 Gaussian 16, Revision A.03,
 Gaussian 16:  ES64L-G16RevA.03 25-Dec-2016

 -----------------------------
 # opt freq b3lyp/6-31g(2df,p)
 -----------------------------

 -------------------
 Title Card Required
 -------------------
 Symbolic Z-matrix:
 Charge =  0 Multiplicity = 1

 SCF Done:  E(RB3LYP) =  -402.017894142     A.U. after   14 cycles
 SCF Done:  E(RB3LYP) =  -402.054395885     A.U. after   13 cycles
 SCF Done:  E(RB3LYP) =  -402.079900944     A.U. after   13 cycles
 SCF Done:  E(RB3LYP) =  -402.087546746     A.U. after   12 cycles
 SCF Done:  E(RB3LYP) =  -402.091261616     A.U. after   12 cycles
 SCF Done:  E(RB3LYP) =  -402.091870470     A.U. after   11 cycles
 SCF Done:  E(RB3LYP) =  -402.092534951     A.U. after   10 cycles
 SCF Done:  E(RB3LYP) =  -402.093596876     A.U. after   11 cycles
 SCF Done:  E(RB3LYP) =  -402.094259640     A.U. after   12 cycles
 SCF Done:  E(RB3LYP) =  -402.094458125     A.U. after   11 cycles
 SCF Done:  E(RB3LYP) =  -402.094795969     A.U. after   11 cycles
 SCF Done:  E(RB3LYP) =  -402.094801855     A.U. after    8 cycles
 SCF Done:  E(RB3LYP) =  -402.094797528     A.U. after   10 cycles
 SCF Done:  E(RB3LYP) =  -402.094804934     A.U. after    9 cycles
 SCF Done:  E(RB3LYP) =  -402.094805125     A.U. after    6 cycles
 Optimization completed.
    -- Stationary point found.
 Normal termination of Gaussian 16 at Tue Mar  9 01:27:14 2021.

 ----------------------------------------------------------------------
 #N Geom=AllCheck Guess=TCheck SCRF=Check GenChk RB3LYP/6-31G(2df,p) Fr
 eq
 ----------------------------------------------------------------------

 Structure from the checkpoint file:  "CC12CC1C1CpdOpNC12.chk"
 -------------------
 Title Card Required
 -------------------
 Charge =  0 Multiplicity = 1

                         Standard orientation:
 ---------------------------------------------------------------------
 Center     Atomic      Atomic             Coordinates (Angstroms)
 Number     Number       Type             X           Y           Z
 ---------------------------------------------------------------------
      1          6           0       -1.878996   -1.399340   -0.574384
      2          6           0       -1.213716   -0.199649    0.035638
      3          6           0       -1.858668    1.156529    0.137446
      4          6           0       -0.567772    1.026817   -0.629620
      5          6           0        0.600029    0.998540    0.355146
      6          6           0        1.701445    0.009318   -0.083087
      7          8           0        2.677543    0.058246   -0.780803
      8          7           0        1.106484   -1.024553    0.620156
      9          6           0       -0.062098   -0.254670    1.048737
     10          1           0       -2.501040   -1.112899   -1.428240
     11          1           0       -2.526489   -1.909193    0.149241
     12          1           0       -1.140401   -2.124914   -0.933567
     13          1           0       -1.878663    1.698149    1.080906
     14          1           0       -2.752140    1.290118   -0.465061
     15          1           0       -0.490698    1.269212   -1.682537
     16          1           0        0.898573    1.912338    0.869157
     17          1           0        1.193262   -2.019503    0.461417
     18          1           0       -0.289478   -0.322669    2.114765
 ---------------------------------------------------------------------

 SCF Done:  E(RB3LYP) =  -402.094805125     A.U. after    1 cycles

 The electronic state is 1-A.
 Alpha  occ. eigenvalues --  -19.10760 -14.34988 -10.27554 -10.23372 -10.20879
 Alpha  occ. eigenvalues --  -10.20388 -10.20228 -10.19618 -10.18988  -1.03460
 Alpha  occ. eigenvalues --   -0.96205  -0.88296  -0.74684  -0.71501  -0.66362
 Alpha  occ. eigenvalues --   -0.60974  -0.57634  -0.54009  -0.49529  -0.48582
 Alpha  occ. eigenvalues --   -0.47240  -0.43981  -0.42003  -0.41566  -0.39839
 Alpha  occ. eigenvalues --   -0.39012  -0.37715  -0.35093  -0.32800  -0.30486
 Alpha  occ. eigenvalues --   -0.27178  -0.26030  -0.24115
 Alpha virt. eigenvalues --    0.02707   0.07919   0.09679   0.10962   0.12063
 Alpha virt. eigenvalues --    0.12265   0.12640   0.14308   0.15078   0.16238
 Alpha virt. eigenvalues --    0.17108   0.18101   0.19228   0.19588   0.22254

 Mulliken charges:
               1
     1  C   -0.502950
     2  C    0.357509
     3  C   -0.340118
     4  C   -0.095271
     5  C   -0.196897
     6  C    0.413538
     7  O   -0.360716
     8  N   -0.321901
     9  C   -0.070116
    10  H    0.125758
    11  H    0.122555
    12  H    0.117090
    13  H    0.108212
    14  H    0.115915
    15  H    0.101780
    16  H    0.097373
    17  H    0.245030
    18  H    0.083209
 Sum of Mulliken charges =  -0.00000

 Dipole moment (field-independent basis, Debye):
    X=             -3.5208    Y=             -0.8479    Z=              1.2807  Tot=              3.8413
 Quadrupole moment (field-independent basis, Debye-Ang):
   XX=            -61.8613   YY=            -48.5403   ZZ=            -52.3617
   XY=             -1.1229   XZ=              4.3651   YZ=              0.1498

  Exact polarizability:  86.853  -0.237  75.566  -3.684  -1.207  65.556
 Approx polarizability: 124.728   2.118 115.250 -13.610  -7.583 105.836

                      1                      2                      3
                      A                      A                      A
 Frequencies --    113.5437               199.9343               220.9601
 Red. masses --      5.3427                 1.6854                 1.5766
 Frc consts  --      0.0406                 0.0397                 0.0454
 IR Inten    --      1.8535                 0.1712                 0.4618

                      4                      5                      6
                      A                      A                      A
 Frequencies --    234.0751               330.2156               387.2876
 Red. masses --      3.0490                 2.5026                 2.6395
 Frc consts  --      0.0984                 0.1608                 0.2333
 IR Inten    --      0.2896                 0.9326                 0.6883

                      7                      8                      9
                      A                      A                      A
 Frequencies --    451.1976               501.3106               533.4967
 Red. masses --      1.6586                 3.3820                 2.2061
 Frc consts  --      0.1989                 0.5008                 0.3700
 IR Inten    --     56.8498                 7.6858                86.0636

                     10                     11                     12
                      A                      A                      A
 Frequencies --    591.7863               687.7288               766.0167
 Red. masses --      3.1902                 6.0101                 4.5378
 Frc consts  --      0.6583                 1.6748                 1.5688
 IR Inten    --      1.3516                 8.3098                 5.4586

                     13                     14                     15
                      A                      A                      A
 Frequencies --    791.3766               821.5763               864.0492
 Red. masses --      2.2172                 2.9030                 2.2225
 Frc consts  --      0.8181                 1.1545                 0.9776
 IR Inten    --      1.4910                 8.1155                 1.0812

                     16                     17                     18
                      A                      A                      A
 Frequencies --    890.2412               936.6680               971.8317
 Red. masses --      1.6904                 2.3315                 1.4256
 Frc consts  --      0.7893                 1.2052                 0.7933
 IR Inten    --      6.0623                 1.6923                 7.2245

                     19                     20                     21
                      A                      A                      A
 Frequencies --    985.4370              1011.0782              1027.9664
 Red. masses --      2.5353                 1.5247                 2.3531
 Frc consts  --      1.4505                 0.9184                 1.4650
 IR Inten    --      6.7200                 4.7852                11.4455

                     22                     23                     24
                      A                      A                      A
 Frequencies --   1048.1675              1080.9862              1099.7517
 Red. masses --      1.5830                 1.3979                 1.8399
 Frc consts  --      1.0247                 0.9624                 1.3111
 IR Inten    --      4.7776                 1.6941                 2.0502

                     25                     26                     27
                      A                      A                      A
 Frequencies --   1114.1555              1135.1847              1154.6440
 Red. masses --      1.9493                 1.9884                 1.8103
 Frc consts  --      1.4257                 1.5097                 1.4220
 IR Inten    --      3.1751                26.8386                11.7202

                     28                     29                     30
                      A                      A                      A
 Frequencies --   1213.3399              1235.5649              1265.2049
 Red. masses --      1.6197                 1.7914                 2.0309
 Frc consts  --      1.4049                 1.6113                 1.9154
 IR Inten    --      3.7053                 4.7584                 0.9714

                     31                     32                     33
                      A                      A                      A
 Frequencies --   1282.6120              1324.1318              1355.9029
 Red. masses --      2.5024                 1.8157                 1.9296
 Frc consts  --      2.4255                 1.8756                 2.0901
 IR Inten    --      6.0847                28.9475                30.8803

                     34                     35                     36
                      A                      A                      A
 Frequencies --   1383.9180              1422.8220              1487.8723
 Red. masses --      1.9814                 1.5225                 1.0461
 Frc consts  --      2.2359                 1.8159                 1.3645
 IR Inten    --      3.7090                 1.2328                 3.9006

                     37                     38                     39
                      A                      A                      A
 Frequencies --   1495.6067              1498.8480              1889.6692
 Red. masses --      1.2034                 1.1394                11.6782
 Frc consts  --      1.5859                 1.5082                24.5695
 IR Inten    --      4.2747                 3.4840               505.6871

                     40                     41                     42
                      A                      A                      A
 Frequencies --   3021.8839              3080.3547              3085.4219
 Red. masses --      1.0364                 1.1002                 1.0877
 Frc consts  --      5.5759                 6.1506                 6.1009
 IR Inten    --     34.5788                17.6859                43.0758

                     43                     44                     45
                      A                      A                      A
 Frequencies --   3098.4643              3103.5113              3115.8338
 Red. masses --      1.0986                 1.0583                 1.0891
 Frc consts  --      6.2144                 6.0060                 6.2295
 IR Inten    --     13.7327                24.6215                27.6137

                     46                     47                     48
                      A                      A                      A
 Frequencies --   3185.0191              3195.3078              3583.3836
 Red. masses --      1.0986                 1.1067                 1.0783
 Frc consts  --      6.5661                 6.6576                 8.1582
 IR Inten    --      5.0106                16.0703                11.9286

 - Thermochemistry -
 -------------------
 Temperature   298.150 Kelvin.  Pressure   1.00000 Atm.
 Atom     1 has atomic number  6 and mass  12.00000

 Molecular mass:   123.06841 amu.
 Principal axes and moments of inertia in atomic units:
                           1         2         3
     Eigenvalues --   554.229001267.264731454.65097
           X            0.99975   0.00962   0.02017
           Y           -0.01055   0.99884   0.04692
           Z           -0.01970  -0.04712   0.99869
 This molecule is an asymmetric top.
 Rotational symmetry number  1.
 Warning -- assumption of classical behavior for rotation
           may cause significant error
 Rotational temperatures (Kelvin)      0.15628     0.06835     0.05954
 Rotational constants (GHZ):           3.25631     1.42412     1.24067
 Zero-point vibrational energy     390433.2 (Joules/Mol)
                                   93.31578 (Kcal/Mol)
 Warning -- explicit consideration of  10 degrees of freedom as
           vibrations may cause significant error
 Vibrational temperatures:    163.36   287.66   317.91   336.78   475.11
          (Kelvin)            557.22   649.17   721.27   767.58   851.45
                              989.49  1102.13  1138.61  1182.07  1243.17
                             1280.86  1347.66  1398.25  1417.82  1454.72
                             1479.01  1508.08  1555.30  1582.30  1603.02
                             1633.28  1661.28  1745.73  1777.70  1820.35
                             1845.39  1905.13  1950.84  1991.15  2047.12
                             2140.72  2151.84  2156.51  2718.81  4347.82
                             4431.94  4439.23  4458.00  4465.26  4482.99
                             4582.53  4597.34  5155.69

 Zero-point correction=                           0.148708 (Hartree/Particle)
 Thermal correction to Energy=                    0.156331
 Thermal correction to Enthalpy=                  0.157275
 Thermal correction to Gibbs Free Energy=         0.116868
 Sum of electronic and zero-point Energies=           -401.946097
 Sum of electronic and thermal Energies=              -401.938474
 Sum of electronic and thermal Enthalpies=            -401.937530
 Sum of electronic and thermal Free Energies=         -401.977937

                     E (Thermal)             CV                S
                      KCal/Mol        Cal/Mol-Kelvin    Cal/Mol-Kelvin
 Total                   98.099             30.234             85.043
 Electronic               0.000              0.000              0.000
 Translational            0.889              2.981             40.337
 Rotational               0.889              2.981             28.415
 Vibrational             96.322             24.273             16.292
 Vibration     1          0.607              1.938              3.207
 Vibration     2          0.638              1.840              2.134
 Vibration     3          0.648              1.809              1.951
 Vibration     4          0.654              1.789              1.847
 Vibration     5          0.713              1.615              1.259
 Vibration     6          0.756              1.497              1.011
 Vibration     7          0.810              1.358              0.792
 Vibration     8          0.857              1.247              0.655
 Vibration     9          0.888              1.176              0.579
 Vibration    10          0.949              1.049              0.464

 Optimization completed.
    -- Stationary point found.
 Normal termination of Gaussian 16 at Tue Mar  9 01:55:08 2021.
