 Gaussian 16, Revision A.03,
 Gaussian 16:  ES64L-G16RevA.03 25-Dec-2016

 -------------------------------------------------------
 # opt freq=noraman b3lyp/6-311+g(d,p) geom=connectivity
 -------------------------------------------------------

 -------------------
 Title Card Required
 -------------------
 Symbolic Z-matrix:
 Charge =  0 Multiplicity = 1

 SCF Done:  E(RB3LYP) =  -196.575580286     A.U. after   11 cycles
 SCF Done:  E(RB3LYP) =  -196.580974323     A.U. after   10 cycles
 SCF Done:  E(RB3LYP) =  -196.582138076     A.U. after    9 cycles
 SCF Done:  E(RB3LYP) =  -196.582521274     A.U. after    9 cycles
 SCF Done:  E(RB3LYP) =  -196.582582127     A.U. after    8 cycles
 SCF Done:  E(RB3LYP) =  -196.582588354     A.U. after    7 cycles
 SCF Done:  E(RB3LYP) =  -196.582588877     A.U. after    6 cycles
 SCF Done:  E(RB3LYP) =  -196.582588972     A.U. after    6 cycles
 Optimization completed.
    -- Stationary point found.
 Normal termination of Gaussian 16 at Thu Feb 11 00:35:54 2021.

 ----------------------------------------------------------------------
 #N Geom=AllCheck Guess=TCheck SCRF=Check GenChk RB3LYP/6-311+G(d,p) Fr
 eq
 ----------------------------------------------------------------------

 Structure from the checkpoint file:  "qm9100.chk"
 -------------------
 Title Card Required
 -------------------
 Charge =  0 Multiplicity = 1

                         Standard orientation:
 ---------------------------------------------------------------------
 Center     Atomic      Atomic             Coordinates (Angstroms)
 Number     Number       Type             X           Y           Z
 ---------------------------------------------------------------------
      1          6           0       -0.757521    0.327513   -0.431047
      2          6           0        0.757541    0.327535   -0.431077
      3          6           0       -0.000001    1.262768    0.485277
      4          1           0       -1.204980    0.801346   -1.300646
      5          1           0        1.205013    0.801349   -1.300673
      6          1           0        0.000031    1.023389    1.544332
      7          1           0       -0.000059    2.325492    0.271478
      8          6           0        1.583128   -0.815371    0.121254
      9          1           0        1.693120   -1.619558   -0.613759
     10          1           0        2.586988   -0.470560    0.388898
     11          1           0        1.138141   -1.246930    1.020716
     12          6           0       -1.583142   -0.815360    0.121245
     13          1           0       -2.586775   -0.470395    0.389544
     14          1           0       -1.693711   -1.619201   -0.614069
     15          1           0       -1.137794   -1.247444    1.020272
 ---------------------------------------------------------------------

 SCF Done:  E(RB3LYP) =  -196.582588972     A.U. after    1 cycles

 The electronic state is 1-A.
 Alpha  occ. eigenvalues --  -10.17368 -10.17343 -10.16312 -10.16030 -10.16030
 Alpha  occ. eigenvalues --   -0.85995  -0.72311  -0.69883  -0.58432  -0.54391
 Alpha  occ. eigenvalues --   -0.49872  -0.44115  -0.41879  -0.40916  -0.38760
 Alpha  occ. eigenvalues --   -0.38637  -0.35799  -0.34176  -0.27896  -0.27182
 Alpha virt. eigenvalues --    0.00566   0.02173   0.02570   0.02893   0.04829
 Alpha virt. eigenvalues --    0.05804   0.06472   0.06593   0.06770   0.09766
 Alpha virt. eigenvalues --    0.09893   0.10651   0.11030   0.11140   0.11574

 Mulliken charges:
               1
     1  C    0.051931
     2  C    0.051991
     3  C   -0.351911
     4  H    0.138570
     5  H    0.138571
     6  H    0.130670
     7  H    0.141693
     8  C   -0.550376
     9  H    0.141196
    10  H    0.141369
    11  H    0.117064
    12  C   -0.550386
    13  H    0.141373
    14  H    0.141188
    15  H    0.117056
 Sum of Mulliken charges =  -0.00000

 Dipole moment (field-independent basis, Debye):
    X=              0.0000    Y=             -0.0628    Z=             -0.1089  Tot=              0.1257
 Quadrupole moment (field-independent basis, Debye-Ang):
   XX=            -34.1921   YY=            -33.7989   ZZ=            -33.1737
   XY=             -0.0001   XZ=             -0.0001   YZ=             -0.7477

  Exact polarizability:  64.115  -0.000  59.324  -0.000   1.522  53.208
 Approx polarizability:  82.547  -0.000  78.923  -0.001   2.853  77.693

                      1                      2                      3
                      A                      A                      A
 Frequencies --    175.5989               176.6438               250.4959
 Red. masses --      1.2334                 1.0416                 1.8186
 Frc consts  --      0.0224                 0.0191                 0.0672
 IR Inten    --      0.0477                 0.0885                 0.0681

                      4                      5                      6
                      A                      A                      A
 Frequencies --    304.7205               410.3985               480.8122
 Red. masses --      2.1382                 2.0443                 2.3605
 Frc consts  --      0.1170                 0.2029                 0.3215
 IR Inten    --      0.0017                 1.0582                 1.7572

                      7                      8                      9
                      A                      A                      A
 Frequencies --    750.5465               765.6271               851.8872
 Red. masses --      2.5075                 3.0052                 1.0967
 Frc consts  --      0.8322                 1.0379                 0.4689
 IR Inten    --      7.2928                 5.8288                 6.7886

                     10                     11                     12
                      A                      A                      A
 Frequencies --    888.9882               926.1222               988.7363
 Red. masses --      1.1342                 2.8486                 1.2087
 Frc consts  --      0.5281                 1.4395                 0.6962
 IR Inten    --      1.6382                 1.7824                 0.8398

                     13                     14                     15
                      A                      A                      A
 Frequencies --   1027.6242              1061.4223              1095.0360
 Red. masses --      1.3776                 1.5421                 1.4856
 Frc consts  --      0.8571                 1.0236                 1.0496
 IR Inten    --      3.1175                 6.4353                 2.8771

                     16                     17                     18
                      A                      A                      A
 Frequencies --   1121.9836              1149.3237              1194.5820
 Red. masses --      1.7603                 1.3725                 1.8148
 Frc consts  --      1.3056                 1.0682                 1.5259
 IR Inten    --      3.4037                 0.0984                 0.5146

                     19                     20                     21
                      A                      A                      A
 Frequencies --   1195.1998              1245.0950              1382.1948
 Red. masses --      1.6175                 1.5203                 1.2915
 Frc consts  --      1.3614                 1.3886                 1.4537
 IR Inten    --      1.9850                 0.0120                 2.6131

                     22                     23                     24
                      A                      A                      A
 Frequencies --   1412.9263              1419.6052              1426.2294
 Red. masses --      1.3039                 1.3763                 1.4939
 Frc consts  --      1.5337                 1.6341                 1.7904
 IR Inten    --      0.7861                 0.8058                 5.3409

                     25                     26                     27
                      A                      A                      A
 Frequencies --   1488.3462              1493.1660              1494.7210
 Red. masses --      1.0433                 1.2568                 1.0421
 Frc consts  --      1.3617                 1.6509                 1.3718
 IR Inten    --      5.0156                 8.0079                 3.2895

                     28                     29                     30
                      A                      A                      A
 Frequencies --   1501.4582              1513.7814              3015.5814
 Red. masses --      1.0539                 1.1659                 1.0363
 Frc consts  --      1.3998                 1.5741                 5.5523
 IR Inten    --      5.1853                 8.9553                41.8799

                     31                     32                     33
                      A                      A                      A
 Frequencies --   3019.8624              3066.9684              3068.6832
 Red. masses --      1.0376                 1.1011                 1.1013
 Frc consts  --      5.5753                 6.1025                 6.1104
 IR Inten    --     37.8817                18.0539                45.8622

                     34                     35                     36
                      A                      A                      A
 Frequencies --   3082.5868              3094.1774              3106.3445
 Red. masses --      1.0982                 1.0948                 1.0556
 Frc consts  --      6.1486                 6.1753                 6.0011
 IR Inten    --     14.7699                10.4000                23.4906

                     37                     38                     39
                      A                      A                      A
 Frequencies --   3113.7096              3125.3637              3188.6711
 Red. masses --      1.0889                 1.0911                 1.1162
 Frc consts  --      6.2200                 6.2795                 6.6867
 IR Inten    --     22.9786                45.5772                21.6540

 - Thermochemistry -
 -------------------
 Temperature   298.150 Kelvin.  Pressure   1.00000 Atm.
 Atom     1 has atomic number  6 and mass  12.00000

 Molecular mass:    70.07825 amu.
 Principal axes and moments of inertia in atomic units:
                           1         2         3
     Eigenvalues --   253.44583 412.07792 546.50931
           X            1.00000  -0.00000   0.00000
           Y            0.00000   0.99977  -0.02151
           Z           -0.00000   0.02151   0.99977
 This molecule is an asymmetric top.
 Rotational symmetry number  1.
 Rotational temperatures (Kelvin)      0.34175     0.21019     0.15849
 Rotational constants (GHZ):           7.12082     4.37961     3.30231
 Zero-point vibrational energy     359329.6 (Joules/Mol)
                                   85.88184 (Kcal/Mol)
 Warning -- explicit consideration of   6 degrees of freedom as
           vibrations may cause significant error
 Vibrational temperatures:    252.65   254.15   360.41   438.42   590.47
          (Kelvin)            691.78  1079.87  1101.57  1225.68  1279.06
                             1332.48  1422.57  1478.52  1527.15  1575.51
                             1614.28  1653.62  1718.74  1719.63  1791.41
                             1988.67  2032.89  2042.50  2052.03  2141.40
                             2148.33  2150.57  2160.26  2177.99  4338.75
                             4344.91  4412.68  4415.15  4435.15  4451.83
                             4469.34  4479.93  4496.70  4587.79

 Zero-point correction=                           0.136861 (Hartree/Particle)
 Thermal correction to Energy=                    0.142954
 Thermal correction to Enthalpy=                  0.143898
 Thermal correction to Gibbs Free Energy=         0.108121
 Sum of electronic and zero-point Energies=           -196.445728
 Sum of electronic and thermal Energies=              -196.439635
 Sum of electronic and thermal Enthalpies=            -196.438691
 Sum of electronic and thermal Free Energies=         -196.474468

                     E (Thermal)             CV                S
                      KCal/Mol        Cal/Mol-Kelvin    Cal/Mol-Kelvin
 Total                   89.705             22.087             75.299
 Electronic               0.000              0.000              0.000
 Translational            0.889              2.981             38.658
 Rotational               0.889              2.981             25.549
 Vibrational             87.928             16.125             11.092
 Vibration     1          0.628              1.872              2.375
 Vibration     2          0.628              1.871              2.364
 Vibration     3          0.663              1.762              1.727
 Vibration     4          0.696              1.665              1.391
 Vibration     5          0.775              1.448              0.925
 Vibration     6          0.837              1.293              0.708

 Optimization completed.
    -- Stationary point found.
 Normal termination of Gaussian 16 at Thu Feb 11 00:43:11 2021.
