 Gaussian 16, Revision A.03,
 Gaussian 16:  ES64L-G16RevA.03 25-Dec-2016

 -----------------------------------------------
 # opt freq b3lyp/6-31g(2df,p) geom=connectivity
 -----------------------------------------------

 -------------------
 Title Card Required
 -------------------
 Symbolic Z-matrix:
 Charge =  0 Multiplicity = 1

 SCF Done:  E(RB3LYP) =  -384.902913180     A.U. after   13 cycles
 SCF Done:  E(RB3LYP) =  -384.907955812     A.U. after   13 cycles
 SCF Done:  E(RB3LYP) =  -384.895834351     A.U. after   14 cycles
 SCF Done:  E(RB3LYP) =  -384.913285268     A.U. after   14 cycles
 SCF Done:  E(RB3LYP) =  -384.914362215     A.U. after   15 cycles
 SCF Done:  E(RB3LYP) =  -384.914764603     A.U. after   11 cycles
 SCF Done:  E(RB3LYP) =  -384.914953803     A.U. after   11 cycles
 SCF Done:  E(RB3LYP) =  -384.914999947     A.U. after   11 cycles
 SCF Done:  E(RB3LYP) =  -384.915006678     A.U. after   10 cycles
 SCF Done:  E(RB3LYP) =  -384.915006834     A.U. after    7 cycles
 Optimization completed.
    -- Stationary point found.
 Normal termination of Gaussian 16 at Wed Feb 17 20:24:53 2021.

 ----------------------------------------------------------------------
 #N Geom=AllCheck Guess=TCheck SCRF=Check GenChk RB3LYP/6-31G(2df,p) Fr
 eq
 ----------------------------------------------------------------------

 Structure from the checkpoint file:  "Cc1ccccc1CdO.chk"
 -------------------
 Title Card Required
 -------------------
 Charge =  0 Multiplicity = 1

                         Standard orientation:
 ---------------------------------------------------------------------
 Center     Atomic      Atomic             Coordinates (Angstroms)
 Number     Number       Type             X           Y           Z
 ---------------------------------------------------------------------
      1          6           0        1.739933    0.713664    0.000143
      2          6           0        0.367179    0.971015    0.000085
      3          6           0       -0.511118   -0.132624   -0.000009
      4          6           0       -0.005157   -1.439173   -0.000087
      5          6           0        1.361195   -1.672701   -0.000094
      6          6           0        2.235948   -0.587095    0.000070
      7          1           0        2.432271    1.550072    0.000207
      8          1           0       -0.719479   -2.254959   -0.000134
      9          1           0        1.744893   -2.687100   -0.000299
     10          1           0        3.308654   -0.751969    0.000131
     11          6           0       -0.119615    2.403263   -0.000168
     12          1           0       -0.728497    2.631569    0.880901
     13          1           0        0.729091    3.091513   -0.000673
     14          1           0       -0.729106    2.630928   -0.880986
     15          6           0       -1.983354    0.035975    0.000130
     16          8           0       -2.775128   -0.880985    0.000014
     17          1           0       -2.346874    1.083881    0.000325
 ---------------------------------------------------------------------

 SCF Done:  E(RB3LYP) =  -384.915006834     A.U. after    1 cycles

 The electronic state is 1-A.
 Alpha  occ. eigenvalues --  -19.13132 -10.26438 -10.21257 -10.20114 -10.19632
 Alpha  occ. eigenvalues --  -10.19522 -10.19481 -10.19480 -10.19416  -1.03711
 Alpha  occ. eigenvalues --   -0.86844  -0.78479  -0.76265  -0.69926  -0.64855
 Alpha  occ. eigenvalues --   -0.59887  -0.56751  -0.51482  -0.48228  -0.45678
 Alpha  occ. eigenvalues --   -0.43649  -0.43419  -0.42258  -0.41827  -0.39675
 Alpha  occ. eigenvalues --   -0.39392  -0.35763  -0.35714  -0.34736  -0.25986
 Alpha  occ. eigenvalues --   -0.25495  -0.24971
 Alpha virt. eigenvalues --   -0.06194  -0.00820   0.04297   0.09275   0.09622
 Alpha virt. eigenvalues --    0.13325   0.14726   0.15708   0.16392   0.17439
 Alpha virt. eigenvalues --    0.18437   0.19199   0.21121   0.26242   0.26950

 Mulliken charges:
               1
     1  C   -0.172327
     2  C    0.228331
     3  C    0.107011
     4  C   -0.159824
     5  C   -0.121252
     6  C   -0.104875
     7  H    0.096174
     8  H    0.127488
     9  H    0.105616
    10  H    0.105324
    11  C   -0.507433
    12  H    0.140839
    13  H    0.127144
    14  H    0.140842
    15  C    0.085578
    16  O   -0.268676
    17  H    0.070037
 Sum of Mulliken charges =  -0.00000

 Dipole moment (field-independent basis, Debye):
    X=              2.7613    Y=              1.7229    Z=              0.0000  Tot=              3.2547
 Quadrupole moment (field-independent basis, Debye-Ang):
   XX=            -56.3540   YY=            -47.6646   ZZ=            -53.6492
   XY=             -5.0257   XZ=             -0.0002   YZ=              0.0005

  Exact polarizability: 113.805  -2.367 101.974   0.001   0.004  41.091
 Approx polarizability: 192.419   4.631 165.696   0.003   0.009  66.646

                      1                      2                      3
                      A                      A                      A
 Frequencies --    115.7032               147.9326               167.7626
 Red. masses --      3.8854                 1.1035                 2.4437
 Frc consts  --      0.0306                 0.0142                 0.0405
 IR Inten    --      4.9985                 0.1278                 0.9928

                      4                      5                      6
                      A                      A                      A
 Frequencies --    229.0933               256.0545               338.4459
 Red. masses --      5.3936                 2.6524                 3.5395
 Frc consts  --      0.1668                 0.1025                 0.2389
 IR Inten    --      5.0794                 4.8439                 3.0006

                      7                      8                      9
                      A                      A                      A
 Frequencies --    455.6465               473.9479               504.8596
 Red. masses --      2.9048                 4.8148                 3.3255
 Frc consts  --      0.3553                 0.6372                 0.4994
 IR Inten    --      3.5403                 3.4663                 0.7229

                     10                     11                     12
                      A                      A                      A
 Frequencies --    545.7372               644.7464               733.2887
 Red. masses --      5.1760                 6.3365                 3.1446
 Frc consts  --      0.9083                 1.5520                 0.9962
 IR Inten    --      1.4387                11.8826                 2.1766

                     13                     14                     15
                      A                      A                      A
 Frequencies --    781.7973               797.8397               842.7176
 Red. masses --      1.2258                 4.6342                 4.4977
 Frc consts  --      0.4414                 1.7380                 1.8819
 IR Inten    --     34.6278                12.1129                20.1192

                     16                     17                     18
                      A                      A                      A
 Frequencies --    897.0869               966.0908               993.8388
 Red. masses --      1.2840                 1.3309                 1.2896
 Frc consts  --      0.6088                 0.7319                 0.7505
 IR Inten    --      0.1168                 0.6258                 0.0384

                     19                     20                     21
                      A                      A                      A
 Frequencies --   1007.9000              1035.8914              1065.3839
 Red. masses --      1.5580                 1.7027                 1.6712
 Frc consts  --      0.9325                 1.0765                 1.1176
 IR Inten    --      1.1403                 0.7666                 2.0517

                     22                     23                     24
                      A                      A                      A
 Frequencies --   1068.2797              1119.4031              1185.1137
 Red. masses --      2.0938                 2.0898                 1.1062
 Frc consts  --      1.4078                 1.5429                 0.9154
 IR Inten    --      1.5867                 6.0694                 2.5424

                     25                     26                     27
                      A                      A                      A
 Frequencies --   1206.5901              1233.6132              1304.4260
 Red. masses --      2.0639                 2.9063                 1.5469
 Frc consts  --      1.7703                 2.6058                 1.5507
 IR Inten    --      2.9100                57.6583                26.5443

                     28                     29                     30
                      A                      A                      A
 Frequencies --   1338.1350              1414.6592              1442.7192
 Red. masses --      6.6128                 1.2499                 1.2803
 Frc consts  --      6.9765                 1.4738                 1.5701
 IR Inten    --      5.1267                 2.4835                14.6073

                     31                     32                     33
                      A                      A                      A
 Frequencies --   1471.7816              1488.5832              1501.8705
 Red. masses --      1.8227                 1.0439                 1.3201
 Frc consts  --      2.3262                 1.3629                 1.7544
 IR Inten    --     16.0116                 5.6231                10.5693

                     34                     35                     36
                      A                      A                      A
 Frequencies --   1515.3566              1613.3672              1638.4710
 Red. masses --      2.1163                 5.8154                 5.8492
 Frc consts  --      2.8632                 8.9185                 9.2517
 IR Inten    --      4.5518                 0.3826                47.5310

                     37                     38                     39
                      A                      A                      A
 Frequencies --   1786.2399              2920.2109              3037.0395
 Red. masses --      9.9177                 1.0820                 1.0374
 Frc consts  --     18.6440                 5.4363                 5.6376
 IR Inten    --    215.9189               102.1684                21.3813

                     40                     41                     42
                      A                      A                      A
 Frequencies --   3092.1591              3116.8697              3166.9560
 Red. masses --      1.0997                 1.1003                 1.0856
 Frc consts  --      6.1954                 6.2981                 6.4153
 IR Inten    --     11.6357                14.0795                 5.1521

                     43                     44                     45
                      A                      A                      A
 Frequencies --   3180.6787              3193.0496              3205.5102
 Red. masses --      1.0889                 1.0927                 1.0950
 Frc consts  --      6.4903                 6.5640                 6.6292
 IR Inten    --     13.1250                11.9879                 9.2545

 - Thermochemistry -
 -------------------
 Temperature   298.150 Kelvin.  Pressure   1.00000 Atm.
 Atom     1 has atomic number  6 and mass  12.00000

 Molecular mass:   120.05751 amu.
 Principal axes and moments of inertia in atomic units:
                           1         2         3
     Eigenvalues --   725.534331154.645151869.00727
           X            0.99888  -0.04741  -0.00000
           Y            0.04741   0.99888  -0.00000
           Z            0.00000   0.00000   1.00000
 This molecule is an asymmetric top.
 Rotational symmetry number  1.
 Warning -- assumption of classical behavior for rotation
           may cause significant error
 Rotational temperatures (Kelvin)      0.11938     0.07501     0.04634
 Rotational constants (GHZ):           2.48746     1.56303     0.96561
 Zero-point vibrational energy     360332.2 (Joules/Mol)
                                   86.12147 (Kcal/Mol)
 Warning -- explicit consideration of  10 degrees of freedom as
           vibrations may cause significant error
 Vibrational temperatures:    166.47   212.84   241.37   329.61   368.41
          (Kelvin)            486.95   655.57   681.91   726.38   785.19
                              927.65  1055.04  1124.83  1147.91  1212.48
                             1290.71  1389.99  1429.91  1450.14  1490.42
                             1532.85  1537.02  1610.57  1705.11  1736.01
                             1774.89  1876.78  1925.28  2035.38  2075.75
                             2117.57  2141.74  2160.86  2180.26  2321.28
                             2357.39  2570.00  4201.53  4369.62  4448.93
                             4484.48  4556.54  4576.29  4594.09  4612.01

 Zero-point correction=                           0.137243 (Hartree/Particle)
 Thermal correction to Energy=                    0.145184
 Thermal correction to Enthalpy=                  0.146129
 Thermal correction to Gibbs Free Energy=         0.104712
 Sum of electronic and zero-point Energies=           -384.777764
 Sum of electronic and thermal Energies=              -384.769822
 Sum of electronic and thermal Enthalpies=            -384.768878
 Sum of electronic and thermal Free Energies=         -384.810295

                     E (Thermal)             CV                S
                      KCal/Mol        Cal/Mol-Kelvin    Cal/Mol-Kelvin
 Total                   91.105             29.894             87.169
 Electronic               0.000              0.000              0.000
 Translational            0.889              2.981             40.263
 Rotational               0.889              2.981             28.839
 Vibrational             89.327             23.932             18.067
 Vibration     1          0.608              1.936              3.171
 Vibration     2          0.617              1.905              2.699
 Vibration     3          0.624              1.882              2.460
 Vibration     4          0.652              1.797              1.886
 Vibration     5          0.666              1.753              1.689
 Vibration     6          0.719              1.599              1.219
 Vibration     7          0.814              1.348              0.779
 Vibration     8          0.831              1.308              0.727
 Vibration     9          0.860              1.239              0.646
 Vibration    10          0.901              1.149              0.553

 Optimization completed.
    -- Stationary point found.
 Normal termination of Gaussian 16 at Wed Feb 17 21:02:01 2021.
