 Gaussian 16, Revision A.03,
 Gaussian 16:  ES64L-G16RevA.03 25-Dec-2016

 -----------------------------
 # opt freq b3lyp/6-31g(2df,p)
 -----------------------------

 -------------------
 Title Card Required
 -------------------
 Symbolic Z-matrix:
 Charge =  0 Multiplicity = 1

 SCF Done:  E(RB3LYP) =  -386.309558299     A.U. after   12 cycles
 SCF Done:  E(RB3LYP) =  -386.311116563     A.U. after   10 cycles
 SCF Done:  E(RB3LYP) =  -386.311293568     A.U. after    9 cycles
 SCF Done:  E(RB3LYP) =  -386.311314625     A.U. after    8 cycles
 SCF Done:  E(RB3LYP) =  -386.311316729     A.U. after    7 cycles
 SCF Done:  E(RB3LYP) =  -386.311318450     A.U. after    7 cycles
 SCF Done:  E(RB3LYP) =  -386.311319086     A.U. after    7 cycles
 SCF Done:  E(RB3LYP) =  -386.311319467     A.U. after    7 cycles
 SCF Done:  E(RB3LYP) =  -386.311319511     A.U. after    6 cycles
 Optimization completed.
    -- Stationary point found.
 Normal termination of Gaussian 16 at Tue Mar  9 02:15:48 2021.

 ----------------------------------------------------------------------
 #N Geom=AllCheck Guess=TCheck SCRF=Check GenChk RB3LYP/6-31G(2df,p) Fr
 eq
 ----------------------------------------------------------------------

 Structure from the checkpoint file:  "CC1COCCOC1.chk"
 -------------------
 Title Card Required
 -------------------
 Charge =  0 Multiplicity = 1

                         Standard orientation:
 ---------------------------------------------------------------------
 Center     Atomic      Atomic             Coordinates (Angstroms)
 Number     Number       Type             X           Y           Z
 ---------------------------------------------------------------------
      1          6           0       -2.669655   -0.131953    0.175648
      2          6           0       -1.220726   -0.082222   -0.326161
      3          6           0       -0.621366    1.301697   -0.039374
      4          8           0        0.739433    1.456602   -0.399694
      5          6           0        1.632550    0.772166    0.452057
      6          6           0        1.940400   -0.659916   -0.003911
      7          8           0        0.827489   -1.429208   -0.413404
      8          6           0       -0.394076   -1.233660    0.272045
      9          1           0       -3.267636    0.677954   -0.254413
     10          1           0       -2.717172   -0.032971    1.266830
     11          1           0       -3.148743   -1.078424   -0.093174
     12          1           0       -1.208732   -0.235793   -1.412508
     13          1           0       -0.749451    1.537635    1.032517
     14          1           0       -1.167148    2.062104   -0.607933
     15          1           0        1.246271    0.776525    1.482904
     16          1           0        2.576778    1.330696    0.461831
     17          1           0        2.486883   -1.160660    0.814886
     18          1           0        2.603452   -0.633390   -0.875170
     19          1           0       -0.241171   -1.089654    1.354209
     20          1           0       -0.951466   -2.169847    0.152985
 ---------------------------------------------------------------------

 SCF Done:  E(RB3LYP) =  -386.311319511     A.U. after    1 cycles

 The electronic state is 1-A.
 Alpha  occ. eigenvalues --  -19.13776 -19.13337 -10.22767 -10.22559 -10.22512
 Alpha  occ. eigenvalues --  -10.22440 -10.18461 -10.18039  -1.03947  -1.01682
 Alpha  occ. eigenvalues --   -0.80536  -0.73992  -0.69742  -0.66416  -0.58647
 Alpha  occ. eigenvalues --   -0.57333  -0.51208  -0.49120  -0.47229  -0.45618
 Alpha  occ. eigenvalues --   -0.43792  -0.42444  -0.40655  -0.39672  -0.37864
 Alpha  occ. eigenvalues --   -0.36867  -0.35298  -0.33692  -0.31087  -0.29781
 Alpha  occ. eigenvalues --   -0.25320  -0.24348
 Alpha virt. eigenvalues --    0.08244   0.09149   0.10998   0.12398   0.13104
 Alpha virt. eigenvalues --    0.14422   0.15497   0.15955   0.16631   0.16849
 Alpha virt. eigenvalues --    0.17871   0.18156   0.20568   0.21465   0.22673

 Mulliken charges:
               1
     1  C   -0.406809
     2  C    0.009397
     3  C   -0.077300
     4  O   -0.238441
     5  C   -0.107763
     6  C   -0.059345
     7  O   -0.245732
     8  C   -0.084204
     9  H    0.118681
    10  H    0.115518
    11  H    0.119034
    12  H    0.090921
    13  H    0.080960
    14  H    0.105913
    15  H    0.090406
    16  H    0.105392
    17  H    0.082698
    18  H    0.113093
    19  H    0.084290
    20  H    0.103292
 Sum of Mulliken charges =   0.00000

 Dipole moment (field-independent basis, Debye):
    X=             -0.6444    Y=              0.1347    Z=              1.4946  Tot=              1.6331
 Quadrupole moment (field-independent basis, Debye-Ang):
   XX=            -45.6558   YY=            -53.1987   ZZ=            -49.7944
   XY=              0.2506   XZ=              1.8587   YZ=             -0.1477

  Exact polarizability:  85.472  -0.097  67.216   1.245  -0.364  61.399
 Approx polarizability: 105.886   0.366  93.778   0.237  -0.563  97.230

                      1                      2                      3
                      A                      A                      A
 Frequencies --     96.5025               168.6477               201.9462
 Red. masses --      2.7612                 2.0799                 1.0865
 Frc consts  --      0.0152                 0.0349                 0.0261
 IR Inten    --      1.6584                 1.0086                 0.2815

                      4                      5                      6
                      A                      A                      A
 Frequencies --    258.3047               293.2198               324.3934
 Red. masses --      2.7756                 2.4991                 3.6679
 Frc consts  --      0.1091                 0.1266                 0.2274
 IR Inten    --      1.7736                 0.2822                 4.7798

                      7                      8                      9
                      A                      A                      A
 Frequencies --    362.5627               401.1310               456.0710
 Red. masses --      3.0308                 2.5514                 2.4917
 Frc consts  --      0.2347                 0.2419                 0.3054
 IR Inten    --      2.7823                 0.6735                 2.0029

                     10                     11                     12
                      A                      A                      A
 Frequencies --    548.6519               607.7138               832.6990
 Red. masses --      2.5591                 2.5367                 2.4960
 Frc consts  --      0.4539                 0.5520                 1.0197
 IR Inten    --      4.8399                15.9371                14.9596

                     13                     14                     15
                      A                      A                      A
 Frequencies --    844.1367               860.7053               904.8593
 Red. masses --      2.3699                 2.0219                 1.6314
 Frc consts  --      0.9950                 0.8825                 0.7870
 IR Inten    --      9.6314                 9.2819                 0.6521

                     16                     17                     18
                      A                      A                      A
 Frequencies --    944.9434               961.4426               990.3605
 Red. masses --      1.6176                 1.5998                 2.4540
 Frc consts  --      0.8510                 0.8713                 1.4181
 IR Inten    --      3.6264                 2.2498                 8.2488

                     19                     20                     21
                      A                      A                      A
 Frequencies --   1014.5871              1093.4036              1120.7829
 Red. masses --      3.2530                 2.9516                 2.5934
 Frc consts  --      1.9729                 2.0791                 1.9194
 IR Inten    --     36.0707                 5.9978                 3.5446

                     22                     23                     24
                      A                      A                      A
 Frequencies --   1153.8354              1171.1120              1178.5975
 Red. masses --      2.4323                 3.3196                 1.9964
 Frc consts  --      1.9079                 2.6824                 1.6339
 IR Inten    --     88.2354                 6.2422                 2.5630

                     25                     26                     27
                      A                      A                      A
 Frequencies --   1209.7829              1270.8056              1287.8137
 Red. masses --      3.7228                 1.2085                 1.1727
 Frc consts  --      3.2103                 1.1498                 1.1459
 IR Inten    --    167.7215                 4.4320                13.0208

                     28                     29                     30
                      A                      A                      A
 Frequencies --   1305.5322              1311.2124              1341.8907
 Red. masses --      1.3126                 1.2413                 1.1720
 Frc consts  --      1.3181                 1.2574                 1.2434
 IR Inten    --     18.1591                19.7666                 4.5807

                     31                     32                     33
                      A                      A                      A
 Frequencies --   1370.6173              1387.9816              1404.9052
 Red. masses --      1.2197                 1.3158                 1.2696
 Frc consts  --      1.3500                 1.4935                 1.4764
 IR Inten    --      1.1474                 0.9038                 2.2193

                     34                     35                     36
                      A                      A                      A
 Frequencies --   1415.5055              1421.1101              1433.2275
 Red. masses --      1.2495                 1.2762                 1.3088
 Frc consts  --      1.4751                 1.5185                 1.5840
 IR Inten    --     15.0387                 6.6221                12.3143

                     37                     38                     39
                      A                      A                      A
 Frequencies --   1485.6622              1491.2041              1498.0874
 Red. masses --      1.0774                 1.0873                 1.0731
 Frc consts  --      1.4012                 1.4246                 1.4189
 IR Inten    --      0.8911                 0.5859                 1.7662

                     40                     41                     42
                      A                      A                      A
 Frequencies --   1499.2844              1503.1737              1512.2492
 Red. masses --      1.0576                 1.0724                 1.0918
 Frc consts  --      1.4006                 1.4277                 1.4711
 IR Inten    --      6.1389                 5.3908                 5.7496

                     43                     44                     45
                      A                      A                      A
 Frequencies --   2943.7076              2950.9503              2969.8926
 Red. masses --      1.0704                 1.0711                 1.0677
 Frc consts  --      5.4647                 5.4955                 5.5486
 IR Inten    --     39.9177                68.8428                16.4066

                     46                     47                     48
                      A                      A                      A
 Frequencies --   2989.5640              3026.7110              3034.6922
 Red. masses --      1.0660                 1.0423                 1.0760
 Frc consts  --      5.6132                 5.6256                 5.8384
 IR Inten    --     80.6494                13.7722                32.3643

                     49                     50                     51
                      A                      A                      A
 Frequencies --   3046.6675              3056.3298              3069.1506
 Red. masses --      1.0939                 1.0946                 1.0920
 Frc consts  --      5.9824                 6.0245                 6.0607
 IR Inten    --     28.5445                37.8058                32.5643

                     52                     53                     54
                      A                      A                      A
 Frequencies --   3071.9259              3092.9596              3104.3226
 Red. masses --      1.0939                 1.0991                 1.1016
 Frc consts  --      6.0818                 6.1950                 6.2545
 IR Inten    --     44.8868                43.6340                27.0811

 - Thermochemistry -
 -------------------
 Temperature   298.150 Kelvin.  Pressure   1.00000 Atm.
 Atom     1 has atomic number  6 and mass  12.00000

 Molecular mass:   116.08373 amu.
 Principal axes and moments of inertia in atomic units:
                           1         2         3
     Eigenvalues --   562.145151005.554261417.10652
           X            0.99998   0.00146   0.00625
           Y           -0.00147   1.00000   0.00104
           Z           -0.00625  -0.00105   0.99998
 This molecule is an asymmetric top.
 Rotational symmetry number  1.
 Warning -- assumption of classical behavior for rotation
           may cause significant error
 Rotational temperatures (Kelvin)      0.15408     0.08614     0.06112
 Rotational constants (GHZ):           3.21045     1.79477     1.27354
 Zero-point vibrational energy     468323.2 (Joules/Mol)
                                  111.93194 (Kcal/Mol)
 Warning -- explicit consideration of  11 degrees of freedom as
           vibrations may cause significant error
 Vibrational temperatures:    138.85   242.65   290.56   371.64   421.88
          (Kelvin)            466.73   521.65   577.14   656.18   789.39
                              874.36  1198.07  1214.52  1238.36  1301.89
                             1359.56  1383.30  1424.91  1459.76  1573.16
                             1612.56  1660.11  1684.97  1695.74  1740.61
                             1828.41  1852.88  1878.37  1886.54  1930.68
                             1972.01  1997.00  2021.35  2036.60  2044.66
                             2062.09  2137.54  2145.51  2155.41  2157.14
                             2162.73  2175.79  4235.34  4245.76  4273.01
                             4301.32  4354.76  4366.25  4383.47  4397.38
                             4415.82  4419.82  4450.08  4466.43

 Zero-point correction=                           0.178375 (Hartree/Particle)
 Thermal correction to Energy=                    0.186337
 Thermal correction to Enthalpy=                  0.187281
 Thermal correction to Gibbs Free Energy=         0.146251
 Sum of electronic and zero-point Energies=           -386.132945
 Sum of electronic and thermal Energies=              -386.124983
 Sum of electronic and thermal Enthalpies=            -386.124038
 Sum of electronic and thermal Free Energies=         -386.165069

                     E (Thermal)             CV                S
                      KCal/Mol        Cal/Mol-Kelvin    Cal/Mol-Kelvin
 Total                  116.928             30.297             86.356
 Electronic               0.000              0.000              0.000
 Translational            0.889              2.981             40.163
 Rotational               0.889              2.981             28.173
 Vibrational            115.151             24.336             18.020
 Vibration     1          0.603              1.952              3.524
 Vibration     2          0.625              1.881              2.450
 Vibration     3          0.639              1.837              2.115
 Vibration     4          0.667              1.749              1.673
 Vibration     5          0.688              1.686              1.455
 Vibration     6          0.709              1.627              1.288
 Vibration     7          0.736              1.549              1.111
 Vibration     8          0.767              1.468              0.959
 Vibration     9          0.814              1.347              0.778
 Vibration    10          0.904              1.143              0.547
 Vibration    11          0.967              1.015              0.437

 Optimization completed.
    -- Stationary point found.
 Normal termination of Gaussian 16 at Tue Mar  9 02:57:10 2021.
