 Gaussian 16, Revision A.03,
 Gaussian 16:  ES64L-G16RevA.03 25-Dec-2016

 -----------------------------
 # opt freq b3lyp/6-31g(2df,p)
 -----------------------------

 -------------------
 Title Card Required
 -------------------
 Symbolic Z-matrix:
 Charge =  0 Multiplicity = 1

 SCF Done:  E(RB3LYP) =  -352.313852704     A.U. after   24 cycles
 SCF Done:  E(RB3LYP) =  -352.371863788     A.U. after   15 cycles
 SCF Done:  E(RB3LYP) =  -352.452057081     A.U. after   14 cycles
 SCF Done:  E(RB3LYP) =  -352.478440472     A.U. after   12 cycles
 SCF Done:  E(RB3LYP) =  -352.500677322     A.U. after   12 cycles
 SCF Done:  E(RB3LYP) =  -352.523923403     A.U. after   12 cycles
 SCF Done:  E(RB3LYP) =  -352.530149562     A.U. after   13 cycles
 SCF Done:  E(RB3LYP) =  -352.551933359     A.U. after   11 cycles
 SCF Done:  E(RB3LYP) =  -352.559485008     A.U. after   10 cycles
 SCF Done:  E(RB3LYP) =  -352.569654338     A.U. after   11 cycles
 SCF Done:  E(RB3LYP) =  -352.571493200     A.U. after   10 cycles
 SCF Done:  E(RB3LYP) =  -352.571979603     A.U. after    9 cycles
 SCF Done:  E(RB3LYP) =  -352.572189314     A.U. after    9 cycles
 SCF Done:  E(RB3LYP) =  -352.572323054     A.U. after    9 cycles
 SCF Done:  E(RB3LYP) =  -352.572436850     A.U. after    9 cycles
 SCF Done:  E(RB3LYP) =  -352.572476776     A.U. after    8 cycles
 SCF Done:  E(RB3LYP) =  -352.572478827     A.U. after    8 cycles
 SCF Done:  E(RB3LYP) =  -352.572479063     A.U. after    6 cycles
 SCF Done:  E(RB3LYP) =  -352.572479128     A.U. after    6 cycles
 Optimization completed.
    -- Stationary point found.
 Normal termination of Gaussian 16 at Tue Mar  9 02:21:00 2021.

 ----------------------------------------------------------------------
 #N Geom=AllCheck Guess=TCheck SCRF=Check GenChk RB3LYP/6-31G(2df,p) Fr
 eq
 ----------------------------------------------------------------------

 Structure from the checkpoint file:  "CC1CpCpC2pCpCpCpC12.chk"
 -------------------
 Title Card Required
 -------------------
 Charge =  0 Multiplicity = 1

                         Standard orientation:
 ---------------------------------------------------------------------
 Center     Atomic      Atomic             Coordinates (Angstroms)
 Number     Number       Type             X           Y           Z
 ---------------------------------------------------------------------
      1          6           0       -2.245658   -1.308200   -0.066839
      2          6           0       -1.250194   -0.413119   -0.798867
      3          6           0       -0.827810    0.983397   -0.189090
      4          6           0       -1.407100    1.457119    1.140442
      5          6           0        0.651816    0.547190   -0.249764
      6          6           0        1.752718    1.491587   -0.647572
      7          6           0        0.847885   -0.715029    0.555172
      8          6           0        2.242111   -1.278365    0.741506
      9          6           0        0.228675   -0.816315   -0.817636
     10          1           0       -3.236705   -0.843380   -0.017557
     11          1           0       -1.931615   -1.528287    0.957900
     12          1           0       -2.355757   -2.265501   -0.588680
     13          1           0       -1.610112   -0.256027   -1.820994
     14          1           0       -1.003553    1.762476   -0.939477
     15          1           0       -1.254705    0.732362    1.945656
     16          1           0       -2.484639    1.638540    1.059746
     17          1           0       -0.938371    2.397516    1.451917
     18          1           0        1.901914    2.265835    0.116112
     19          1           0        1.512215    2.003430   -1.587007
     20          1           0        2.710640    0.982659   -0.784857
     21          1           0        0.208693   -0.876062    1.422075
     22          1           0        2.839849   -1.201315   -0.171850
     23          1           0        2.194398   -2.339628    1.008957
     24          1           0        2.785245   -0.758823    1.539052
     25          1           0        0.707835   -1.403393   -1.595108
 ---------------------------------------------------------------------

 SCF Done:  E(RB3LYP) =  -352.572479128     A.U. after    1 cycles

 The electronic state is 1-A.
 Alpha  occ. eigenvalues --  -10.18325 -10.18066 -10.17961 -10.17858 -10.17451
 Alpha  occ. eigenvalues --  -10.17309 -10.17173 -10.16670 -10.16551  -0.88812
 Alpha  occ. eigenvalues --   -0.76568  -0.72916  -0.70934  -0.69434  -0.63448
 Alpha  occ. eigenvalues --   -0.58787  -0.53688  -0.49687  -0.47976  -0.45777
 Alpha  occ. eigenvalues --   -0.42216  -0.41607  -0.40630  -0.39890  -0.39326
 Alpha  occ. eigenvalues --   -0.38277  -0.37992  -0.37687  -0.35770  -0.34852
 Alpha  occ. eigenvalues --   -0.32937  -0.29863  -0.28831  -0.25531  -0.23737
 Alpha virt. eigenvalues --    0.08725   0.10052   0.10557   0.11905   0.13403
 Alpha virt. eigenvalues --    0.13882   0.14945   0.15213   0.15988   0.16738
 Alpha virt. eigenvalues --    0.17243   0.17990   0.18892   0.19563   0.20161

 Mulliken charges:
               1
     1  C   -0.405081
     2  C    0.000875
     3  C   -0.054930
     4  C   -0.411542
     5  C    0.348408
     6  C   -0.503689
     7  C   -0.049269
     8  C   -0.426663
     9  C   -0.128287
    10  H    0.109789
    11  H    0.112516
    12  H    0.111148
    13  H    0.066637
    14  H    0.064381
    15  H    0.114060
    16  H    0.111113
    17  H    0.111515
    18  H    0.115552
    19  H    0.112625
    20  H    0.117332
    21  H    0.066828
    22  H    0.115499
    23  H    0.115730
    24  H    0.114512
    25  H    0.070941
 Sum of Mulliken charges =  -0.00000

 Dipole moment (field-independent basis, Debye):
    X=              0.1268    Y=              0.1167    Z=             -0.1435  Tot=              0.2243
 Quadrupole moment (field-independent basis, Debye-Ang):
   XX=            -57.7512   YY=            -58.0749   ZZ=            -57.5754
   XY=             -0.4735   XZ=              0.2686   YZ=             -0.1060

  Exact polarizability: 101.647   0.172  94.525   1.403   0.128  83.243
 Approx polarizability: 131.635   0.046 134.887   3.066   0.389 128.294

                      1                      2                      3
                      A                      A                      A
 Frequencies --    123.4760               168.0371               177.6167
 Red. masses --      2.7379                 1.0904                 1.8560
 Frc consts  --      0.0246                 0.0181                 0.0345
 IR Inten    --      0.0641                 0.0166                 0.0084

                      4                      5                      6
                      A                      A                      A
 Frequencies --    193.5517               201.8898               205.9246
 Red. masses --      1.2571                 1.4756                 1.1380
 Frc consts  --      0.0277                 0.0354                 0.0284
 IR Inten    --      0.0813                 0.0408                 0.0145

                      7                      8                      9
                      A                      A                      A
 Frequencies --    215.7282               228.9879               270.9959
 Red. masses --      1.5523                 2.0178                 1.9867
 Frc consts  --      0.0426                 0.0623                 0.0860
 IR Inten    --      0.1349                 0.0752                 0.0207

                     10                     11                     12
                      A                      A                      A
 Frequencies --    309.9451               387.6585               444.7555
 Red. masses --      2.3888                 2.8614                 2.2223
 Frc consts  --      0.1352                 0.2534                 0.2590
 IR Inten    --      0.0477                 0.4736                 0.3783

                     13                     14                     15
                      A                      A                      A
 Frequencies --    520.6024               537.6784               649.6757
 Red. masses --      3.0879                 2.8053                 2.9390
 Frc consts  --      0.4931                 0.4778                 0.7309
 IR Inten    --      0.5482                 1.1472                 2.8383

                     16                     17                     18
                      A                      A                      A
 Frequencies --    669.2000               743.2387               788.9558
 Red. masses --      3.0665                 2.6845                 2.5348
 Frc consts  --      0.8091                 0.8737                 0.9296
 IR Inten    --      2.3543                 0.6199                 4.4391

                     19                     20                     21
                      A                      A                      A
 Frequencies --    879.2011               896.3759               930.4954
 Red. masses --      1.8931                 2.0491                 1.5092
 Frc consts  --      0.8622                 0.9701                 0.7699
 IR Inten    --      0.8388                 0.5249                 0.7759

                     22                     23                     24
                      A                      A                      A
 Frequencies --    962.4723               999.6284              1015.8976
 Red. masses --      1.5131                 1.2735                 1.3049
 Frc consts  --      0.8259                 0.7498                 0.7935
 IR Inten    --      2.3269                 1.3407                 1.3945

                     25                     26                     27
                      A                      A                      A
 Frequencies --   1027.5001              1048.4440              1057.2056
 Red. masses --      1.4039                 1.3979                 1.4510
 Frc consts  --      0.8733                 0.9054                 0.9555
 IR Inten    --      5.8675                 1.4194                 4.5207

                     28                     29                     30
                      A                      A                      A
 Frequencies --   1101.7812              1121.9217              1130.6878
 Red. masses --      1.7477                 2.3093                 1.9761
 Frc consts  --      1.2500                 1.7126                 1.4885
 IR Inten    --      0.9102                 2.6413                 2.9384

                     31                     32                     33
                      A                      A                      A
 Frequencies --   1149.7159              1153.8080              1169.6049
 Red. masses --      1.9263                 2.0294                 2.5127
 Frc consts  --      1.5002                 1.5918                 2.0252
 IR Inten    --      0.5083                 1.6933                 0.8696

                     34                     35                     36
                      A                      A                      A
 Frequencies --   1222.7462              1237.4280              1264.6678
 Red. masses --      1.6668                 1.9724                 1.8567
 Frc consts  --      1.4683                 1.7795                 1.7496
 IR Inten    --      0.7473                 1.4071                 1.1982

                     37                     38                     39
                      A                      A                      A
 Frequencies --   1296.0665              1341.5759              1364.5818
 Red. masses --      1.4868                 1.4749                 1.3714
 Frc consts  --      1.4715                 1.5640                 1.5046
 IR Inten    --      1.3044                 3.6907                 7.5861

                     40                     41                     42
                      A                      A                      A
 Frequencies --   1387.2294              1405.5773              1410.6766
 Red. masses --      1.5126                 1.2883                 1.2710
 Frc consts  --      1.7150                 1.4996                 1.4902
 IR Inten    --      5.6463                 3.0174                 2.5772

                     43                     44                     45
                      A                      A                      A
 Frequencies --   1416.1261              1421.8394              1446.1749
 Red. masses --      1.3339                 1.2457                 2.6736
 Frc consts  --      1.5760                 1.4837                 3.2945
 IR Inten    --      3.1512                 0.6573                 2.2367

                     46                     47                     48
                      A                      A                      A
 Frequencies --   1486.3723              1489.3417              1491.6848
 Red. masses --      1.0472                 1.0449                 1.0525
 Frc consts  --      1.3631                 1.3656                 1.3798
 IR Inten    --      4.6704                 1.4781                 1.7136

                     49                     50                     51
                      A                      A                      A
 Frequencies --   1492.1763              1500.4664              1502.0997
 Red. masses --      1.0485                 1.0555                 1.0467
 Frc consts  --      1.3755                 1.4001                 1.3914
 IR Inten    --      2.5822                 2.3438                 5.9081

                     52                     53                     54
                      A                      A                      A
 Frequencies --   1503.3627              1510.7360              3016.1949
 Red. masses --      1.0499                 1.1205                 1.0397
 Frc consts  --      1.3981                 1.5067                 5.5731
 IR Inten    --      2.1637                 6.6158                34.1942

                     55                     56                     57
                      A                      A                      A
 Frequencies --   3024.2566              3027.6086              3027.9231
 Red. masses --      1.0692                 1.0389                 1.0448
 Frc consts  --      5.7618                 5.6109                 5.6439
 IR Inten    --      3.8416                34.7698                45.4987

                     58                     59                     60
                      A                      A                      A
 Frequencies --   3030.0231              3046.9632              3067.9038
 Red. masses --      1.0406                 1.0830                 1.0991
 Frc consts  --      5.6288                 5.9238                 6.0950
 IR Inten    --     24.7766                38.6989                25.2703

                     61                     62                     63
                      A                      A                      A
 Frequencies --   3086.0939              3086.6716              3089.7791
 Red. masses --      1.1010                 1.1008                 1.1001
 Frc consts  --      6.1783                 6.1795                 6.1876
 IR Inten    --      1.5992                50.3669                18.0804

                     64                     65                     66
                      A                      A                      A
 Frequencies --   3091.7074              3100.1834              3103.2694
 Red. masses --      1.0941                 1.0999                 1.0971
 Frc consts  --      6.1618                 6.2286                 6.2248
 IR Inten    --     20.4848                16.1355                 2.6750

                     67                     68                     69
                      A                      A                      A
 Frequencies --   3108.2456              3114.1214              3153.4887
 Red. masses --      1.0975                 1.0942                 1.0912
 Frc consts  --      6.2471                 6.2520                 6.3935
 IR Inten    --     51.6153                64.0078                28.6755

 - Thermochemistry -
 -------------------
 Temperature   298.150 Kelvin.  Pressure   1.00000 Atm.
 Atom     1 has atomic number  6 and mass  12.00000

 Molecular mass:   124.12520 amu.
 Principal axes and moments of inertia in atomic units:
                           1         2         3
     Eigenvalues --   843.741151290.382221622.83891
           X            0.99994   0.00456  -0.00954
           Y           -0.00463   0.99996  -0.00725
           Z            0.00951   0.00729   0.99993
 This molecule is an asymmetric top.
 Rotational symmetry number  1.
 Warning -- assumption of classical behavior for rotation
           may cause significant error
 Rotational temperatures (Kelvin)      0.10265     0.06712     0.05337
 Rotational constants (GHZ):           2.13897     1.39861     1.11209
 Zero-point vibrational energy     597223.8 (Joules/Mol)
                                  142.73991 (Kcal/Mol)
 Warning -- explicit consideration of  14 degrees of freedom as
           vibrations may cause significant error
 Vibrational temperatures:    177.65   241.77   255.55   278.48   290.47
          (Kelvin)            296.28   310.38   329.46   389.90   445.94
                              557.75   639.90   749.03   773.60   934.74
                              962.83  1069.35  1135.13  1264.97  1289.68
                             1338.78  1384.78  1438.24  1461.65  1478.34
                             1508.48  1521.08  1585.22  1614.20  1626.81
                             1654.18  1660.07  1682.80  1759.26  1780.38
                             1819.57  1864.75  1930.23  1963.33  1995.91
                             2022.31  2029.65  2037.49  2045.71  2080.72
                             2138.56  2142.83  2146.20  2146.91  2158.84
                             2161.19  2163.00  2173.61  4339.63  4351.23
                             4356.05  4356.51  4359.53  4383.90  4414.03
                             4440.20  4441.03  4445.50  4448.28  4460.47
                             4464.91  4472.07  4480.53  4537.17

 Zero-point correction=                           0.227471 (Hartree/Particle)
 Thermal correction to Energy=                    0.237889
 Thermal correction to Enthalpy=                  0.238833
 Thermal correction to Gibbs Free Energy=         0.193112
 Sum of electronic and zero-point Energies=           -352.345009
 Sum of electronic and thermal Energies=              -352.334590
 Sum of electronic and thermal Enthalpies=            -352.333646
 Sum of electronic and thermal Free Energies=         -352.379367

                     E (Thermal)             CV                S
                      KCal/Mol        Cal/Mol-Kelvin    Cal/Mol-Kelvin
 Total                  149.278             39.924             96.229
 Electronic               0.000              0.000              0.000
 Translational            0.889              2.981             40.362
 Rotational               0.889              2.981             28.959
 Vibrational            147.500             33.963             26.907
 Vibration     1          0.610              1.929              3.045
 Vibration     2          0.625              1.882              2.457
 Vibration     3          0.628              1.870              2.353
 Vibration     4          0.635              1.849              2.194
 Vibration     5          0.639              1.837              2.116
 Vibration     6          0.640              1.831              2.080
 Vibration     7          0.645              1.817              1.995
 Vibration     8          0.652              1.797              1.887
 Vibration     9          0.675              1.727              1.590
 Vibration    10          0.699              1.655              1.363
 Vibration    11          0.756              1.497              1.009
 Vibration    12          0.804              1.372              0.812
 Vibration    13          0.876              1.204              0.609
 Vibration    14          0.893              1.167              0.570

 Optimization completed.
    -- Stationary point found.
 Normal termination of Gaussian 16 at Tue Mar  9 03:09:56 2021.
