 Gaussian 16, Revision A.03,
 Gaussian 16:  ES64L-G16RevA.03 25-Dec-2016

 -----------------------------
 # opt freq b3lyp/6-31g(2df,p)
 -----------------------------

 -----
 Title
 -----
 Symbolic Z-matrix:
 Charge =  0 Multiplicity = 1

 SCF Done:  E(RB3LYP) =  -353.800742743     A.U. after   11 cycles
 SCF Done:  E(RB3LYP) =  -353.807798329     A.U. after   10 cycles
 SCF Done:  E(RB3LYP) =  -353.807937357     A.U. after    7 cycles
 SCF Done:  E(RB3LYP) =  -353.807950123     A.U. after    7 cycles
 SCF Done:  E(RB3LYP) =  -353.807948858     A.U. after    6 cycles
 Optimization completed.
    -- Stationary point found.
 Normal termination of Gaussian 16 at Sun Feb 28 00:51:35 2021.

 ----------------------------------------------------------------------
 #N Geom=AllCheck Guess=TCheck SCRF=Check GenChk RB3LYP/6-31G(2df,p) Fr
 eq
 ----------------------------------------------------------------------

 Structure from the checkpoint file:  "CC1pCpCpCppCpC1pCpC.chk"
 -----
 Title
 -----
 Charge =  0 Multiplicity = 1

                         Standard orientation:
 ---------------------------------------------------------------------
 Center     Atomic      Atomic             Coordinates (Angstroms)
 Number     Number       Type             X           Y           Z
 ---------------------------------------------------------------------
      1          6           0       -1.727804   -0.375538    1.242615
      2          6           0       -0.864954   -0.188150    0.000002
      3          6           0       -1.727809   -0.375543   -1.242607
      4          6           0        0.269504    0.842928   -0.000002
      5          6           0        0.538612    1.683827   -1.242636
      6          6           0        0.538617    1.683832    1.242628
      7          6           0        0.595251   -0.654992   -0.000000
      8          6           0        1.189244   -1.308247    1.242612
      9          6           0        1.189239   -1.308253   -1.242612
     10          1           0       -2.552128    0.348039    1.245993
     11          1           0       -1.191497   -0.259220    2.183641
     12          1           0       -2.177979   -1.375748    1.245844
     13          1           0       -2.552132    0.348036   -1.245986
     14          1           0       -2.177987   -1.375752   -1.245828
     15          1           0       -1.191505   -0.259232   -2.183635
     16          1           0       -0.102518    2.573779   -1.245799
     17          1           0        0.371120    1.161196   -2.183651
     18          1           0        1.577440    2.035837   -1.246057
     19          1           0       -0.102512    2.573785    1.245789
     20          1           0        1.577446    2.035841    1.246043
     21          1           0        0.371129    1.161205    2.183645
     22          1           0        0.819736   -0.902451    2.183609
     23          1           0        2.280430   -1.196916    1.246120
     24          1           0        0.975700   -2.384101    1.245695
     25          1           0        0.819725   -0.902462   -2.183610
     26          1           0        0.975698   -2.384106   -1.245688
     27          1           0        2.280425   -1.196919   -1.246126
 ---------------------------------------------------------------------

 SCF Done:  E(RB3LYP) =  -353.807948858     A.U. after    1 cycles

 The electronic state is 1-A.
 Alpha  occ. eigenvalues --  -10.18552 -10.18520 -10.18519 -10.16805 -10.16804
 Alpha  occ. eigenvalues --  -10.16804 -10.16804 -10.16803 -10.16803  -0.86594
 Alpha  occ. eigenvalues --   -0.74430  -0.74429  -0.70031  -0.66584  -0.66584
 Alpha  occ. eigenvalues --   -0.66475  -0.50430  -0.50428  -0.47280  -0.44429
 Alpha  occ. eigenvalues --   -0.43629  -0.43627  -0.39681  -0.38360  -0.38359
 Alpha  occ. eigenvalues --   -0.38246  -0.38245  -0.37574  -0.37564  -0.36292
 Alpha  occ. eigenvalues --   -0.35873  -0.35871  -0.31574  -0.31573  -0.24496
 Alpha  occ. eigenvalues --   -0.24495
 Alpha virt. eigenvalues --    0.07312   0.10237   0.11918   0.12205   0.13059
 Alpha virt. eigenvalues --    0.13063   0.14088   0.15049   0.15049   0.17806
 Alpha virt. eigenvalues --    0.17807   0.19411   0.19987   0.19989   0.19992

 Mulliken charges:
               1
     1  C   -0.446679
     2  C    0.232153
     3  C   -0.446679
     4  C    0.232262
     5  C   -0.446657
     6  C   -0.446657
     7  C    0.232187
     8  C   -0.446661
     9  C   -0.446661
    10  H    0.110259
    11  H    0.110074
    12  H    0.110247
    13  H    0.110259
    14  H    0.110247
    15  H    0.110074
    16  H    0.110237
    17  H    0.110069
    18  H    0.110247
    19  H    0.110237
    20  H    0.110247
    21  H    0.110069
    22  H    0.110070
    23  H    0.110251
    24  H    0.110241
    25  H    0.110070
    26  H    0.110241
    27  H    0.110251
 Sum of Mulliken charges =  -0.00000

 Dipole moment (field-independent basis, Debye):
    X=              0.0000    Y=              0.0001    Z=             -0.0000  Tot=              0.0001
 Quadrupole moment (field-independent basis, Debye-Ang):
   XX=            -59.7802   YY=            -59.7823   ZZ=            -59.7578
   XY=              0.0002   XZ=              0.0000   YZ=              0.0000

  Exact polarizability:  98.479   0.002  98.468  -0.000  -0.000  92.614
 Approx polarizability: 139.680   0.002 139.667  -0.000  -0.000 130.085

                      1                      2                      3
                      A                      A                      A
 Frequencies --     79.5622               138.5931               139.3279
 Red. masses --      1.0358                 1.3249                 1.3258
 Frc consts  --      0.0039                 0.0150                 0.0152
 IR Inten    --      0.0000                 0.0000                 0.0000

                      4                      5                      6
                      A                      A                      A
 Frequencies --    165.9790               167.6315               178.2918
 Red. masses --      1.2597                 1.2628                 1.0357
 Frc consts  --      0.0204                 0.0209                 0.0194
 IR Inten    --      0.0104                 0.0095                 0.0001

                      7                      8                      9
                      A                      A                      A
 Frequencies --    186.5395               247.4656               247.9010
 Red. masses --      2.2399                 1.6450                 1.6436
 Frc consts  --      0.0459                 0.0594                 0.0595
 IR Inten    --      0.0000                 0.0000                 0.0000

                     10                     11                     12
                      A                      A                      A
 Frequencies --    321.5946               321.9694               327.0351
 Red. masses --      1.7073                 1.7072                 2.8432
 Frc consts  --      0.1040                 0.1043                 0.1792
 IR Inten    --      0.2073                 0.2100                 0.0936

                     13                     14                     15
                      A                      A                      A
 Frequencies --    402.8776               407.2246               407.5069
 Red. masses --      2.4635                 2.1470                 2.1471
 Frc consts  --      0.2356                 0.2098                 0.2101
 IR Inten    --      0.0000                 0.1980                 0.1995

                     16                     17                     18
                      A                      A                      A
 Frequencies --    461.8221               462.0882               551.4368
 Red. masses --      3.1116                 3.1134                 2.2386
 Frc consts  --      0.3910                 0.3917                 0.4011
 IR Inten    --      0.0000                 0.0000                 0.0000

                     19                     20                     21
                      A                      A                      A
 Frequencies --    646.0279               668.9716               669.1805
 Red. masses --      3.3530                 3.0134                 3.0128
 Frc consts  --      0.8245                 0.7945                 0.7949
 IR Inten    --      0.0000                 0.1750                 0.1777

                     22                     23                     24
                      A                      A                      A
 Frequencies --    940.8963               941.1736               956.1520
 Red. masses --      2.1166                 2.1118                 1.3918
 Frc consts  --      1.1040                 1.1022                 0.7497
 IR Inten    --      7.2358                 7.2169                 0.0002

                     25                     26                     27
                      A                      A                      A
 Frequencies --    956.2888               980.2216               999.4432
 Red. masses --      1.3926                 1.3668                 1.2606
 Frc consts  --      0.7503                 0.7738                 0.7419
 IR Inten    --      0.0000                 2.2022                 0.0001

                     28                     29                     30
                      A                      A                      A
 Frequencies --    999.5744              1034.7705              1035.7753
 Red. masses --      1.2602                 1.4902                 1.2991
 Frc consts  --      0.7419                 0.9401                 0.8211
 IR Inten    --      0.0000                 0.0001                 0.0000

                     31                     32                     33
                      A                      A                      A
 Frequencies --   1134.0099              1137.7758              1141.9254
 Red. masses --      3.9192                 1.8687                 1.6866
 Frc consts  --      2.9695                 1.4253                 1.2958
 IR Inten    --      2.6553                 0.0002                15.1488

                     34                     35                     36
                      A                      A                      A
 Frequencies --   1141.9674              1227.8592              1228.2173
 Red. masses --      1.6864                 2.5956                 2.6012
 Frc consts  --      1.2957                 2.3056                 2.3119
 IR Inten    --     15.1599                 0.4254                 0.4195

                     37                     38                     39
                      A                      A                      A
 Frequencies --   1259.2554              1259.6245              1403.3064
 Red. masses --      3.7684                 3.7716                 1.2944
 Frc consts  --      3.5208                 3.5258                 1.5019
 IR Inten    --      0.0000                 0.0000                 0.0003

                     40                     41                     42
                      A                      A                      A
 Frequencies --   1403.3970              1413.8328              1416.9735
 Red. masses --      1.2935                 2.9012                 1.2212
 Frc consts  --      1.5010                 3.4168                 1.4447
 IR Inten    --      0.0002                 0.0005                 0.8933

                     43                     44                     45
                      A                      A                      A
 Frequencies --   1417.1281              1418.0418              1452.2010
 Red. masses --      1.2209                 1.2034                 1.2961
 Frc consts  --      1.4446                 1.4257                 1.6105
 IR Inten    --      0.8853                 5.0628                 0.0001

                     46                     47                     48
                      A                      A                      A
 Frequencies --   1466.9259              1481.7511              1481.8751
 Red. masses --      1.0397                 1.0511                 1.0511
 Frc consts  --      1.3181                 1.3597                 1.3599
 IR Inten    --      0.0000                 0.0000                 0.0000

                     49                     50                     51
                      A                      A                      A
 Frequencies --   1489.7953              1495.6819              1495.8417
 Red. masses --      1.0444                 1.0430                 1.0430
 Frc consts  --      1.3658                 1.3748                 1.3750
 IR Inten    --      0.0003                 0.0014                 0.0007

                     52                     53                     54
                      A                      A                      A
 Frequencies --   1498.3820              1498.5435              1507.4713
 Red. masses --      1.0545                 1.0545                 1.0504
 Frc consts  --      1.3949                 1.3952                 1.4064
 IR Inten    --      0.5156                 0.5131                20.1264

                     55                     56                     57
                      A                      A                      A
 Frequencies --   1516.9952              1517.2474              1537.9631
 Red. masses --      1.0463                 1.0464                 1.1840
 Frc consts  --      1.4187                 1.4192                 1.6500
 IR Inten    --     11.7214                11.6929                 0.0006

                     58                     59                     60
                      A                      A                      A
 Frequencies --   3019.9457              3020.0298              3022.9309
 Red. masses --      1.0416                 1.0416                 1.0436
 Frc consts  --      5.5971                 5.5974                 5.6189
 IR Inten    --      0.0065                 0.0070                44.4080

                     61                     62                     63
                      A                      A                      A
 Frequencies --   3024.1326              3024.2075              3031.5750
 Red. masses --      1.0416                 1.0416                 1.0438
 Frc consts  --      5.6124                 5.6126                 5.6521
 IR Inten    --     94.5953                94.4363                 0.0040

                     64                     65                     66
                      A                      A                      A
 Frequencies --   3067.9541              3070.2617              3070.3631
 Red. masses --      1.1004                 1.1006                 1.1006
 Frc consts  --      6.1026                 6.1128                 6.1132
 IR Inten    --      0.0000                 0.0000                 0.0000

                     67                     68                     69
                      A                      A                      A
 Frequencies --   3072.1206              3074.7310              3074.8286
 Red. masses --      1.0998                 1.0998                 1.0998
 Frc consts  --      6.1158                 6.1258                 6.1263
 IR Inten    --      0.0624                80.5201                80.3945

                     70                     71                     72
                      A                      A                      A
 Frequencies --   3133.7583              3133.8478              3135.8469
 Red. masses --      1.0945                 1.0944                 1.0942
 Frc consts  --      6.3326                 6.3328                 6.3394
 IR Inten    --      0.0000                 0.0000                33.1696

                     73                     74                     75
                      A                      A                      A
 Frequencies --   3135.9359              3156.6895              3156.8911
 Red. masses --      1.0942                 1.0900                 1.0900
 Frc consts  --      6.3397                 6.3992                 6.4002
 IR Inten    --     33.0977                92.0231                 0.0000

 - Thermochemistry -
 -------------------
 Temperature   298.150 Kelvin.  Pressure   1.00000 Atm.
 Atom     1 has atomic number  6 and mass  12.00000

 Molecular mass:   126.14085 amu.
 Principal axes and moments of inertia in atomic units:
                           1         2         3
     Eigenvalues --  1178.431191178.658031223.04786
           X            1.00000   0.00268   0.00000
           Y           -0.00268   1.00000   0.00000
           Z           -0.00000  -0.00000   1.00000
 This molecule is an asymmetric top.
 Rotational symmetry number  1.
 Warning -- assumption of classical behavior for rotation
           may cause significant error
 Rotational temperatures (Kelvin)      0.07350     0.07349     0.07082
 Rotational constants (GHZ):           1.53148     1.53118     1.47561
 Zero-point vibrational energy     651446.6 (Joules/Mol)
                                  155.69947 (Kcal/Mol)
 Warning -- explicit consideration of  18 degrees of freedom as
           vibrations may cause significant error
 Vibrational temperatures:    114.47   199.40   200.46   238.81   241.18
          (Kelvin)            256.52   268.39   356.05   356.67   462.70
                              463.24   470.53   579.65   585.91   586.31
                              664.46   664.84   793.39   929.49   962.50
                              962.80  1353.74  1354.14  1375.69  1375.89
                             1410.32  1437.98  1438.16  1488.80  1490.25
                             1631.59  1637.01  1642.98  1643.04  1766.62
                             1767.13  1811.79  1812.32  2019.04  2019.18
                             2034.19  2038.71  2038.93  2040.25  2089.39
                             2110.58  2131.91  2132.09  2143.48  2151.95
                             2152.18  2155.84  2156.07  2168.91  2182.62
                             2182.98  2212.79  4345.03  4345.15  4349.32
                             4351.05  4351.16  4361.76  4414.10  4417.42
                             4417.57  4420.10  4423.85  4423.99  4508.78
                             4508.91  4511.78  4511.91  4541.77  4542.06

 Zero-point correction=                           0.248123 (Hartree/Particle)
 Thermal correction to Energy=                    0.260219
 Thermal correction to Enthalpy=                  0.261163
 Thermal correction to Gibbs Free Energy=         0.212099
 Sum of electronic and zero-point Energies=           -353.559826
 Sum of electronic and thermal Energies=              -353.547730
 Sum of electronic and thermal Enthalpies=            -353.546786
 Sum of electronic and thermal Free Energies=         -353.595850

                     E (Thermal)             CV                S
                      KCal/Mol        Cal/Mol-Kelvin    Cal/Mol-Kelvin
 Total                  163.290             45.452            103.264
 Electronic               0.000              0.000              0.000
 Translational            0.889              2.981             40.410
 Rotational               0.889              2.981             28.920
 Vibrational            161.512             39.490             33.934
 Vibration     1          0.600              1.963              3.902
 Vibration     2          0.614              1.915              2.823
 Vibration     3          0.615              1.914              2.813
 Vibration     4          0.624              1.884              2.481
 Vibration     5          0.624              1.882              2.462
 Vibration     6          0.629              1.869              2.346
 Vibration     7          0.632              1.858              2.262
 Vibration     8          0.661              1.767              1.749
 Vibration     9          0.662              1.766              1.745
 Vibration    10          0.707              1.632              1.302
 Vibration    11          0.707              1.631              1.300
 Vibration    12          0.711              1.621              1.275
 Vibration    13          0.768              1.464              0.952
 Vibration    14          0.772              1.455              0.936
 Vibration    15          0.772              1.454              0.935
 Vibration    16          0.820              1.335              0.761
 Vibration    17          0.820              1.334              0.760
 Vibration    18          0.907              1.137              0.541

                           ! Non-Optimized Parameters !
 Normal termination of Gaussian 16 at Sun Feb 28 01:48:38 2021.
