 Gaussian 16, Revision A.03,
 Gaussian 16:  ES64L-G16RevA.03 25-Dec-2016

 -----------------------------
 # opt freq b3lyp/6-31g(2df,p)
 -----------------------------

 -------------------
 Title Card Required
 -------------------
 Symbolic Z-matrix:
 Charge =  0 Multiplicity = 1

 SCF Done:  E(RB3LYP) =  -403.320368557     A.U. after   14 cycles
 SCF Done:  E(RB3LYP) =  -403.323622012     A.U. after   12 cycles
 SCF Done:  E(RB3LYP) =  -403.324871798     A.U. after   11 cycles
 SCF Done:  E(RB3LYP) =  -403.325339082     A.U. after   11 cycles
 SCF Done:  E(RB3LYP) =  -403.325770701     A.U. after   11 cycles
 SCF Done:  E(RB3LYP) =  -403.326194483     A.U. after   11 cycles
 SCF Done:  E(RB3LYP) =  -403.327142732     A.U. after   12 cycles
 SCF Done:  E(RB3LYP) =  -403.328120975     A.U. after   12 cycles
 SCF Done:  E(RB3LYP) =  -403.329785795     A.U. after   12 cycles
 SCF Done:  E(RB3LYP) =  -403.330560178     A.U. after   11 cycles
 SCF Done:  E(RB3LYP) =  -403.331152406     A.U. after   11 cycles
 SCF Done:  E(RB3LYP) =  -403.331366093     A.U. after   11 cycles
 SCF Done:  E(RB3LYP) =  -403.331394440     A.U. after   11 cycles
 SCF Done:  E(RB3LYP) =  -403.331440555     A.U. after   12 cycles
 SCF Done:  E(RB3LYP) =  -403.331521699     A.U. after   10 cycles
 SCF Done:  E(RB3LYP) =  -403.331525610     A.U. after    9 cycles
 SCF Done:  E(RB3LYP) =  -403.331526095     A.U. after    7 cycles
 SCF Done:  E(RB3LYP) =  -403.331526762     A.U. after    9 cycles
 SCF Done:  E(RB3LYP) =  -403.331526776     A.U. after    6 cycles
 Optimization completed.
    -- Stationary point found.
 Normal termination of Gaussian 16 at Tue Mar  9 02:11:02 2021.

 ----------------------------------------------------------------------
 #N Geom=AllCheck Guess=TCheck SCRF=Check GenChk RB3LYP/6-31G(2df,p) Fr
 eq
 ----------------------------------------------------------------------

 Structure from the checkpoint file:  "CCc1conc1CC.chk"
 -------------------
 Title Card Required
 -------------------
 Charge =  0 Multiplicity = 1

                         Standard orientation:
 ---------------------------------------------------------------------
 Center     Atomic      Atomic             Coordinates (Angstroms)
 Number     Number       Type             X           Y           Z
 ---------------------------------------------------------------------
      1          6           0       -2.348501   -1.393527    0.610175
      2          6           0       -1.596877   -0.845238   -0.615962
      3          6           0       -0.661210    0.281338   -0.286966
      4          6           0       -0.869513    1.617958   -0.410471
      5          8           0        0.188167    2.317068    0.025705
      6          7           0        1.158700    1.421634    0.464673
      7          6           0        0.657808    0.222753    0.277575
      8          6           0        1.484065   -0.985036    0.612012
      9          6           0        2.161156   -1.603621   -0.623611
     10          1           0       -3.011373   -2.216002    0.323927
     11          1           0       -2.954997   -0.611104    1.076247
     12          1           0       -1.654537   -1.768487    1.368877
     13          1           0       -2.324350   -0.501610   -1.359706
     14          1           0       -1.040429   -1.660703   -1.092434
     15          1           0       -1.698672    2.201860   -0.781366
     16          1           0        0.853072   -1.735286    1.101536
     17          1           0        2.246792   -0.684986    1.336299
     18          1           0        1.426324   -1.922653   -1.369415
     19          1           0        2.753351   -2.478618   -0.339499
     20          1           0        2.827011   -0.878158   -1.099342
 ---------------------------------------------------------------------

 SCF Done:  E(RB3LYP) =  -403.331526776     A.U. after    1 cycles

 The electronic state is 1-A.
 Alpha  occ. eigenvalues --  -19.21613 -14.36127 -10.23889 -10.21547 -10.20063
 Alpha  occ. eigenvalues --  -10.19574 -10.19117 -10.18467 -10.18274  -1.13075
 Alpha  occ. eigenvalues --   -0.86709  -0.81232  -0.76673  -0.74377  -0.65123
 Alpha  occ. eigenvalues --   -0.63655  -0.58920  -0.56006  -0.50272  -0.46626
 Alpha  occ. eigenvalues --   -0.46308  -0.44622  -0.43518  -0.41661  -0.40041
 Alpha  occ. eigenvalues --   -0.38676  -0.37929  -0.36397  -0.35745  -0.35263
 Alpha  occ. eigenvalues --   -0.34112  -0.29203  -0.27468  -0.24879
 Alpha virt. eigenvalues --   -0.00206   0.05090   0.08258   0.10801   0.11633
 Alpha virt. eigenvalues --    0.12415   0.13475   0.14792   0.15827   0.16146
 Alpha virt. eigenvalues --    0.16284   0.17471   0.19866   0.20321   0.21553

 Mulliken charges:
               1
     1  C   -0.370286
     2  C   -0.315281
     3  C    0.078548
     4  C   -0.005379
     5  O   -0.170231
     6  N   -0.206328
     7  C    0.316086
     8  C   -0.295347
     9  C   -0.378495
    10  H    0.115908
    11  H    0.123287
    12  H    0.125003
    13  H    0.109924
    14  H    0.112598
    15  H    0.144182
    16  H    0.110172
    17  H    0.129950
    18  H    0.121999
    19  H    0.118019
    20  H    0.135670
 Sum of Mulliken charges =  -0.00000

 Dipole moment (field-independent basis, Debye):
    X=             -1.9856    Y=             -2.3157    Z=             -0.8434  Tot=              3.1649
 Quadrupole moment (field-independent basis, Debye-Ang):
   XX=            -52.5724   YY=            -56.4235   ZZ=            -54.6572
   XY=             -5.3901   XZ=              0.7429   YZ=             -2.2534

  Exact polarizability:  89.288  -2.714  91.423   6.070  -1.614  61.997
 Approx polarizability: 127.041  -1.969 145.127  14.890  -2.088  94.862

                      1                      2                      3
                      A                      A                      A
 Frequencies --     48.2098                73.9995               148.4675
 Red. masses --      2.4000                 2.1158                 3.1498
 Frc consts  --      0.0033                 0.0068                 0.0409
 IR Inten    --      0.0186                 0.4535                 1.5832

                      4                      5                      6
                      A                      A                      A
 Frequencies --    164.2926               178.1946               218.9369
 Red. masses --      3.5397                 1.5118                 1.1131
 Frc consts  --      0.0563                 0.0283                 0.0314
 IR Inten    --      0.0249                 0.7675                 0.2909

                      7                      8                      9
                      A                      A                      A
 Frequencies --    274.3547               356.0997               406.7535
 Red. masses --      1.4513                 3.4563                 2.4381
 Frc consts  --      0.0644                 0.2582                 0.2377
 IR Inten    --      0.4424                 3.0897                 3.0325

                     10                     11                     12
                      A                      A                      A
 Frequencies --    446.5698               613.7400               640.1201
 Red. masses --      4.6224                 4.7591                 3.2876
 Frc consts  --      0.5431                 1.0562                 0.7937
 IR Inten    --      2.5840                 2.2679                 3.0301

                     13                     14                     15
                      A                      A                      A
 Frequencies --    667.6265               757.3849               786.8666
 Red. masses --      3.5732                 2.7261                 1.3635
 Frc consts  --      0.9384                 0.9214                 0.4974
 IR Inten    --      3.7203                 4.7072                 1.4362

                     16                     17                     18
                      A                      A                      A
 Frequencies --    793.1011               845.6087               914.9049
 Red. masses --      1.2328                 1.4986                 4.6808
 Frc consts  --      0.4569                 0.6314                 2.3085
 IR Inten    --      2.8497                10.8154                30.3820

                     19                     20                     21
                      A                      A                      A
 Frequencies --    944.0160               963.4685               982.9434
 Red. masses --      7.0506                 2.4058                 2.3436
 Frc consts  --      3.7020                 1.3158                 1.3341
 IR Inten    --      3.6057                 7.1835                 0.9260

                     22                     23                     24
                      A                      A                      A
 Frequencies --   1066.5617              1075.7209              1090.1410
 Red. masses --      1.5858                 2.0115                 1.7198
 Frc consts  --      1.0629                 1.3714                 1.2042
 IR Inten    --      5.6856                 8.1580                 2.2263

                     25                     26                     27
                      A                      A                      A
 Frequencies --   1094.6905              1156.3733              1202.5918
 Red. masses --      1.6584                 2.6724                 3.1140
 Frc consts  --      1.1709                 2.1055                 2.6534
 IR Inten    --      1.0216                19.9854                 7.5598

                     28                     29                     30
                      A                      A                      A
 Frequencies --   1273.2624              1279.6183              1310.3240
 Red. masses --      1.4751                 1.3258                 1.3990
 Frc consts  --      1.4090                 1.2791                 1.4152
 IR Inten    --      2.6566                 3.4804                 5.6273

                     31                     32                     33
                      A                      A                      A
 Frequencies --   1353.4288              1359.8248              1406.2779
 Red. masses --      1.5122                 1.4925                 1.2524
 Frc consts  --      1.6320                 1.6260                 1.4593
 IR Inten    --      2.0635                 1.7882                 1.3344

                     34                     35                     36
                      A                      A                      A
 Frequencies --   1410.3267              1440.0819              1477.8285
 Red. masses --      1.2158                 3.7313                 1.0867
 Frc consts  --      1.4247                 4.5592                 1.3984
 IR Inten    --      2.2271                27.0255                 4.1127

                     37                     38                     39
                      A                      A                      A
 Frequencies --   1487.1589              1495.1810              1496.9902
 Red. masses --      1.0649                 1.0842                 1.1213
 Frc consts  --      1.3877                 1.4280                 1.4805
 IR Inten    --      0.3635                 2.1588                 2.2945

                     40                     41                     42
                      A                      A                      A
 Frequencies --   1498.8948              1507.8974              1517.9067
 Red. masses --      1.2670                 1.0912                 2.6043
 Frc consts  --      1.6771                 1.4619                 3.5353
 IR Inten    --      4.5471                 7.5467                 1.6982

                     43                     44                     45
                      A                      A                      A
 Frequencies --   1647.4474              3033.8542              3037.4226
 Red. masses --      6.7971                 1.0586                 1.0358
 Frc consts  --     10.8692                 5.7408                 5.6301
 IR Inten    --     11.9750                15.7256                21.4109

                     46                     47                     48
                      A                      A                      A
 Frequencies --   3039.9956              3044.5514              3067.0531
 Red. masses --      1.0357                 1.0617                 1.1016
 Frc consts  --      5.6396                 5.7984                 6.1053
 IR Inten    --     27.0969                22.9468                10.6076

                     49                     50                     51
                      A                      A                      A
 Frequencies --   3089.1403              3109.1603              3111.4792
 Red. masses --      1.0993                 1.1017                 1.1012
 Frc consts  --      6.1809                 6.2747                 6.2815
 IR Inten    --      1.4875                43.0608                42.6817

                     52                     53                     54
                      A                      A                      A
 Frequencies --   3113.2979              3120.8612              3254.1802
 Red. masses --      1.1026                 1.1029                 1.0983
 Frc consts  --      6.2964                 6.3293                 6.8523
 IR Inten    --     18.7865                26.4984                 0.9668

 - Thermochemistry -
 -------------------
 Temperature   298.150 Kelvin.  Pressure   1.00000 Atm.
 Atom     1 has atomic number  6 and mass  12.00000

 Molecular mass:   125.08406 amu.
 Principal axes and moments of inertia in atomic units:
                           1         2         3
     Eigenvalues --  1029.544021110.077341866.83831
           X            0.98136  -0.19183  -0.01193
           Y            0.19177   0.98142  -0.00596
           Z            0.01285   0.00356   0.99991
 This molecule is an asymmetric top.
 Rotational symmetry number  1.
 Warning -- assumption of classical behavior for rotation
           may cause significant error
 Rotational temperatures (Kelvin)      0.08413     0.07803     0.04640
 Rotational constants (GHZ):           1.75295     1.62578     0.96674
 Zero-point vibrational energy     447972.7 (Joules/Mol)
                                  107.06804 (Kcal/Mol)
 Warning -- explicit consideration of  11 degrees of freedom as
           vibrations may cause significant error
 Vibrational temperatures:     69.36   106.47   213.61   236.38   256.38
          (Kelvin)            315.00   394.74   512.35   585.23   642.51
                              883.03   920.99   960.57  1089.71  1132.13
                             1141.10  1216.64  1316.34  1358.23  1386.22
                             1414.24  1534.54  1547.72  1568.47  1575.02
                             1663.76  1730.26  1831.94  1841.09  1885.26
                             1947.28  1956.48  2023.32  2029.15  2071.96
                             2126.27  2139.69  2151.23  2153.83  2156.58
                             2169.53  2183.93  2370.31  4365.04  4370.17
                             4373.88  4380.43  4412.81  4444.58  4473.39
                             4476.72  4479.34  4490.22  4682.04

 Zero-point correction=                           0.170624 (Hartree/Particle)
 Thermal correction to Energy=                    0.180022
 Thermal correction to Enthalpy=                  0.180967
 Thermal correction to Gibbs Free Energy=         0.135583
 Sum of electronic and zero-point Energies=           -403.160903
 Sum of electronic and thermal Energies=              -403.151504
 Sum of electronic and thermal Enthalpies=            -403.150560
 Sum of electronic and thermal Free Energies=         -403.195944

                     E (Thermal)             CV                S
                      KCal/Mol        Cal/Mol-Kelvin    Cal/Mol-Kelvin
 Total                  112.966             33.908             95.518
 Electronic               0.000              0.000              0.000
 Translational            0.889              2.981             40.385
 Rotational               0.889              2.981             29.147
 Vibrational            111.188             27.946             25.986
 Vibration     1          0.595              1.978              4.890
 Vibration     2          0.599              1.966              4.044
 Vibration     3          0.618              1.904              2.692
 Vibration     4          0.623              1.886              2.500
 Vibration     5          0.629              1.869              2.347
 Vibration     6          0.647              1.812              1.968
 Vibration     7          0.677              1.721              1.569
 Vibration     8          0.732              1.563              1.139
 Vibration     9          0.772              1.456              0.938
 Vibration    10          0.806              1.368              0.806
 Vibration    11          0.973              1.003              0.427

 Optimization completed.
    -- Stationary point found.
 Normal termination of Gaussian 16 at Tue Mar  9 02:44:11 2021.
