 Gaussian 16, Revision A.03,
 Gaussian 16:  ES64L-G16RevA.03 25-Dec-2016

 -----------------------------
 # opt freq b3lyp/6-31g(2df,p)
 -----------------------------

 -----
 Title
 -----
 Symbolic Z-matrix:
 Charge =  0 Multiplicity = 1

 SCF Done:  E(RB3LYP) =  -403.180009566     A.U. after   12 cycles
 SCF Done:  E(RB3LYP) =  -403.200169174     A.U. after   11 cycles
 SCF Done:  E(RB3LYP) =  -403.207296571     A.U. after   11 cycles
 SCF Done:  E(RB3LYP) =  -403.207792317     A.U. after   10 cycles
 SCF Done:  E(RB3LYP) =  -403.207841779     A.U. after   10 cycles
 SCF Done:  E(RB3LYP) =  -403.207854768     A.U. after    8 cycles
 SCF Done:  E(RB3LYP) =  -403.207857781     A.U. after    7 cycles
 SCF Done:  E(RB3LYP) =  -403.207858196     A.U. after    7 cycles
 Optimization completed.
    -- Stationary point found.
 Normal termination of Gaussian 16 at Thu Feb 18 12:18:38 2021.

 ----------------------------------------------------------------------
 #N Geom=AllCheck Guess=TCheck SCRF=Check GenChk RB3LYP/6-31G(2df,p) Fr
 eq
 ----------------------------------------------------------------------

 Structure from the checkpoint file:  "CCCC12NC3C1OC32.chk"
 -----
 Title
 -----
 Charge =  0 Multiplicity = 1

                         Standard orientation:
 ---------------------------------------------------------------------
 Center     Atomic      Atomic             Coordinates (Angstroms)
 Number     Number       Type             X           Y           Z
 ---------------------------------------------------------------------
      1          6           0       -3.552658   -0.195393   -0.013852
      2          6           0       -2.127802    0.182504   -0.424660
      3          6           0       -1.074721   -0.265551    0.599156
      4          6           0        0.320130    0.140573    0.228641
      5          7           0        0.766373    1.560775   -0.004875
      6          6           0        2.018597    0.771592   -0.235389
      7          6           0        1.240740   -0.380663   -0.927007
      8          8           0        1.843019   -1.442262   -0.132021
      9          6           0        1.699238   -0.341885    0.812234
     10          1           0       -4.281320    0.131268   -0.762092
     11          1           0       -3.826261    0.267591    0.940957
     12          1           0       -3.658588   -1.279715    0.103557
     13          1           0       -2.049637    1.266533   -0.563678
     14          1           0       -1.892446   -0.265792   -1.397998
     15          1           0       -1.087599   -1.358067    0.707272
     16          1           0       -1.319227    0.147509    1.587955
     17          1           0        0.825283    2.060684    0.886540
     18          1           0        2.975947    1.215276   -0.508333
     19          1           0        1.028455   -0.558413   -1.980117
     20          1           0        2.035484   -0.481270    1.841497
 ---------------------------------------------------------------------

 SCF Done:  E(RB3LYP) =  -403.207858196     A.U. after    1 cycles

 The electronic state is 1-A.
 Alpha  occ. eigenvalues --  -19.13356 -14.32108 -10.24560 -10.24493 -10.22942
 Alpha  occ. eigenvalues --  -10.22636 -10.18739 -10.18172 -10.17426  -1.06921
 Alpha  occ. eigenvalues --   -0.93441  -0.79271  -0.72374  -0.71028  -0.65990
 Alpha  occ. eigenvalues --   -0.62408  -0.58658  -0.53074  -0.49791  -0.48053
 Alpha  occ. eigenvalues --   -0.47184  -0.43943  -0.43405  -0.41291  -0.38971
 Alpha  occ. eigenvalues --   -0.37040  -0.36119  -0.34529  -0.33347  -0.32887
 Alpha  occ. eigenvalues --   -0.31854  -0.29835  -0.23634  -0.23447
 Alpha virt. eigenvalues --    0.05978   0.09224   0.10292   0.11803   0.12451
 Alpha virt. eigenvalues --    0.12764   0.13142   0.14090   0.15447   0.16143
 Alpha virt. eigenvalues --    0.16816   0.17840   0.18025   0.19142   0.19777

 Mulliken charges:
               1
     1  C   -0.383083
     2  C   -0.158962
     3  C   -0.354892
     4  C    0.336156
     5  N   -0.381425
     6  C   -0.078347
     7  C    0.068264
     8  O   -0.330242
     9  C    0.018177
    10  H    0.113502
    11  H    0.113351
    12  H    0.114824
    13  H    0.117113
    14  H    0.099253
    15  H    0.116386
    16  H    0.097496
    17  H    0.207227
    18  H    0.091305
    19  H    0.102223
    20  H    0.091674
 Sum of Mulliken charges =  -0.00000

 Dipole moment (field-independent basis, Debye):
    X=             -0.4708    Y=              0.8498    Z=              1.0988  Tot=              1.4667
 Quadrupole moment (field-independent basis, Debye-Ang):
   XX=            -53.7560   YY=            -59.0996   ZZ=            -50.4998
   XY=              4.2992   XZ=              1.2941   YZ=              2.3571

  Exact polarizability:  92.120   1.702  71.999   0.099   1.014  73.141
 Approx polarizability: 114.895  -0.985 115.260  -0.070   2.398 114.662

                      1                      2                      3
                      A                      A                      A
 Frequencies --     75.6389                83.4743               129.0102
 Red. masses --      3.0339                 1.8130                 3.3083
 Frc consts  --      0.0102                 0.0074                 0.0324
 IR Inten    --      0.1553                 0.1984                 0.4833

                      4                      5                      6
                      A                      A                      A
 Frequencies --    240.6532               258.6222               316.0082
 Red. masses --      1.4701                 1.7964                 2.8787
 Frc consts  --      0.0502                 0.0708                 0.1694
 IR Inten    --      0.5697                 0.9509                 0.1053

                      7                      8                      9
                      A                      A                      A
 Frequencies --    346.6138               487.2134               572.0431
 Red. masses --      3.1372                 2.8143                 4.1783
 Frc consts  --      0.2221                 0.3936                 0.8056
 IR Inten    --      1.2626                 9.3897                 8.1921

                     10                     11                     12
                      A                      A                      A
 Frequencies --    704.0060               732.3079               762.3403
 Red. masses --      3.1500                 1.3883                 2.2395
 Frc consts  --      0.9199                 0.4386                 0.7668
 IR Inten    --      1.8425                 3.0738                 2.0254

                     13                     14                     15
                      A                      A                      A
 Frequencies --    787.8162               812.3049               830.6171
 Red. masses --      3.6145                 2.2091                 3.5280
 Frc consts  --      1.3217                 0.8588                 1.4341
 IR Inten    --      2.8493                10.0707                11.1835

                     16                     17                     18
                      A                      A                      A
 Frequencies --    850.0353               886.0385               910.5039
 Red. masses --      2.6196                 2.8083                 1.6503
 Frc consts  --      1.1152                 1.2990                 0.8061
 IR Inten    --      3.2390                 6.1040                 2.1716

                     19                     20                     21
                      A                      A                      A
 Frequencies --    913.5648               942.6024               975.2392
 Red. masses --      1.9104                 2.9829                 2.2160
 Frc consts  --      0.9394                 1.5615                 1.2418
 IR Inten    --     20.9174                 1.9363                49.7004

                     22                     23                     24
                      A                      A                      A
 Frequencies --   1023.8578              1049.6336              1093.2888
 Red. masses --      1.4162                 2.7115                 1.9033
 Frc consts  --      0.8747                 1.7601                 1.3404
 IR Inten    --      1.7511                 0.2821                 5.3925

                     25                     26                     27
                      A                      A                      A
 Frequencies --   1106.8457              1117.5271              1141.3711
 Red. masses --      1.7254                 1.8034                 1.7671
 Frc consts  --      1.2454                 1.3269                 1.3564
 IR Inten    --     15.2971                 6.7285                12.3291

                     28                     29                     30
                      A                      A                      A
 Frequencies --   1163.7804              1171.7004              1189.8533
 Red. masses --      1.4600                 1.8862                 1.7428
 Frc consts  --      1.1650                 1.5257                 1.4537
 IR Inten    --      3.8189                 3.5409                27.5044

                     31                     32                     33
                      A                      A                      A
 Frequencies --   1242.0886              1256.8160              1287.1056
 Red. masses --      1.4748                 1.7159                 1.4851
 Frc consts  --      1.3406                 1.5969                 1.4495
 IR Inten    --      1.6660                 1.5657                 6.1577

                     34                     35                     36
                      A                      A                      A
 Frequencies --   1307.2863              1317.4491              1333.9948
 Red. masses --      1.3725                 1.5664                 1.2454
 Frc consts  --      1.3820                 1.6019                 1.3058
 IR Inten    --     25.1824                 6.7822                 0.1227

                     37                     38                     39
                      A                      A                      A
 Frequencies --   1375.5894              1407.9026              1413.6296
 Red. masses --      1.7565                 2.6124                 1.2585
 Frc consts  --      1.9582                 3.0510                 1.4818
 IR Inten    --      5.9395                10.2711                 0.3742

                     40                     41                     42
                      A                      A                      A
 Frequencies --   1473.2648              1492.5083              1499.7757
 Red. masses --      1.0842                 1.0544                 1.0403
 Frc consts  --      1.3865                 1.3839                 1.3787
 IR Inten    --      1.3876                 1.3217                 5.2686

                     43                     44                     45
                      A                      A                      A
 Frequencies --   1509.8836              3007.6016              3027.8685
 Red. masses --      1.0824                 1.0612                 1.0402
 Frc consts  --      1.4538                 5.6558                 5.6186
 IR Inten    --      3.5201                13.2850                17.9974

                     46                     47                     48
                      A                      A                      A
 Frequencies --   3032.0879              3045.7658              3070.4403
 Red. masses --      1.0587                 1.0958                 1.1004
 Frc consts  --      5.7345                 5.9892                 6.1124
 IR Inten    --     41.0233                 5.8324                 5.5048

                     49                     50                     51
                      A                      A                      A
 Frequencies --   3097.4020              3100.5514              3102.7851
 Red. masses --      1.1026                 1.0904                 1.1007
 Frc consts  --      6.2324                 6.1762                 6.2432
 IR Inten    --     51.4351                45.1254                35.8537

                     52                     53                     54
                      A                      A                      A
 Frequencies --   3121.3338              3139.0261              3399.4913
 Red. masses --      1.0910                 1.0980                 1.0741
 Frc consts  --      6.2628                 6.3744                 7.3137
 IR Inten    --     55.1809                25.7471                 7.8846

 - Thermochemistry -
 -------------------
 Temperature   298.150 Kelvin.  Pressure   1.00000 Atm.
 Atom     1 has atomic number  6 and mass  12.00000

 Molecular mass:   125.08406 amu.
 Principal axes and moments of inertia in atomic units:
                           1         2         3
     Eigenvalues --   473.669711779.898711957.11162
           X            0.99987   0.01606   0.00268
           Y           -0.01609   0.99984   0.00806
           Z           -0.00255  -0.00810   0.99996
 This molecule is an asymmetric top.
 Rotational symmetry number  1.
 Warning -- assumption of classical behavior for rotation
           may cause significant error
 Rotational temperatures (Kelvin)      0.18286     0.04866     0.04426
 Rotational constants (GHZ):           3.81013     1.01396     0.92215
 Zero-point vibrational energy     447021.5 (Joules/Mol)
                                  106.84071 (Kcal/Mol)
 Warning -- explicit consideration of   9 degrees of freedom as
           vibrations may cause significant error
 Vibrational temperatures:    108.83   120.10   185.62   346.25   372.10
          (Kelvin)            454.67   498.70   700.99   823.04  1012.91
                             1053.63  1096.84  1133.49  1168.73  1195.07
                             1223.01  1274.81  1310.01  1314.42  1356.19
                             1403.15  1473.10  1510.19  1573.00  1592.50
                             1607.87  1642.18  1674.42  1685.82  1711.93
                             1787.09  1808.28  1851.86  1880.89  1895.52
                             1919.32  1979.17  2025.66  2033.90  2119.70
                             2147.39  2157.84  2172.39  4327.27  4356.43
                             4362.50  4382.18  4417.68  4456.47  4461.00
                             4464.22  4490.90  4516.36  4891.11

 Zero-point correction=                           0.170262 (Hartree/Particle)
 Thermal correction to Energy=                    0.178640
 Thermal correction to Enthalpy=                  0.179584
 Thermal correction to Gibbs Free Energy=         0.136707
 Sum of electronic and zero-point Energies=           -403.037597
 Sum of electronic and thermal Energies=              -403.029218
 Sum of electronic and thermal Enthalpies=            -403.028274
 Sum of electronic and thermal Free Energies=         -403.071151

                     E (Thermal)             CV                S
                      KCal/Mol        Cal/Mol-Kelvin    Cal/Mol-Kelvin
 Total                  112.098             32.012             90.243
 Electronic               0.000              0.000              0.000
 Translational            0.889              2.981             40.385
 Rotational               0.889              2.981             28.891
 Vibrational            110.321             26.051             20.966
 Vibration     1          0.599              1.965              4.001
 Vibration     2          0.600              1.961              3.807
 Vibration     3          0.611              1.924              2.961
 Vibration     4          0.658              1.778              1.798
 Vibration     5          0.667              1.748              1.671
 Vibration     6          0.703              1.643              1.331
 Vibration     7          0.725              1.582              1.182
 Vibration     8          0.843              1.278              0.691
 Vibration     9          0.928              1.092              0.500

 Optimization completed.
    -- Stationary point found.
 Normal termination of Gaussian 16 at Thu Feb 18 12:50:38 2021.
