 Gaussian 16, Revision A.03,
 Gaussian 16:  ES64L-G16RevA.03 25-Dec-2016

 -----------------------------
 # opt freq b3lyp/6-31g(2df,p)
 -----------------------------

 -----
 Title
 -----
 Symbolic Z-matrix:
 Charge =  0 Multiplicity = 1

 SCF Done:  E(RB3LYP) =  -355.047030579     A.U. after   12 cycles
 SCF Done:  E(RB3LYP) =  -355.051450278     A.U. after    9 cycles
 SCF Done:  E(RB3LYP) =  -355.051543437     A.U. after    8 cycles
 SCF Done:  E(RB3LYP) =  -355.051549961     A.U. after    7 cycles
 Optimization completed.
    -- Stationary point found.
 Normal termination of Gaussian 16 at Sun Feb 28 00:59:06 2021.

 ----------------------------------------------------------------------
 #N Geom=AllCheck Guess=TCheck SCRF=Check GenChk RB3LYP/6-31G(2df,p) Fr
 eq
 ----------------------------------------------------------------------

 Structure from the checkpoint file:  "CCCCpCppCpCCC.chk"
 -----
 Title
 -----
 Charge =  0 Multiplicity = 1

                         Standard orientation:
 ---------------------------------------------------------------------
 Center     Atomic      Atomic             Coordinates (Angstroms)
 Number     Number       Type             X           Y           Z
 ---------------------------------------------------------------------
      1          6           0       -3.756819   -0.947487    0.000000
      2          6           0       -2.630447    0.092077    0.000000
      3          6           0       -1.242070   -0.562150   -0.000000
      4          6           0        0.000000    0.370155   -0.000000
      5          6           0       -0.000003    1.258229   -1.258914
      6          6           0        0.000001    1.258224    1.258916
      7          6           0        1.242071   -0.562149   -0.000004
      8          6           0        2.630447    0.092078    0.000002
      9          6           0        3.756820   -0.947486   -0.000001
     10          1           0       -3.699689   -1.593419   -0.883341
     11          1           0       -4.741622   -0.469650    0.000001
     12          1           0       -3.699689   -1.593420    0.883341
     13          1           0       -2.743551    0.740023   -0.876920
     14          1           0       -2.743550    0.740023    0.876921
     15          1           0       -1.172424   -1.222818   -0.875893
     16          1           0       -1.172423   -1.222818    0.875892
     17          1           0       -0.879346    1.908347   -1.290987
     18          1           0       -0.000002    0.650914   -2.171516
     19          1           0        0.879338    1.908350   -1.290989
     20          1           0       -0.879341    1.908343    1.290994
     21          1           0        0.879343    1.908345    1.290990
     22          1           0        0.000004    0.650907    2.171516
     23          1           0        1.172425   -1.222813   -0.875899
     24          1           0        1.172423   -1.222822    0.875885
     25          1           0        2.743549    0.740020    0.876925
     26          1           0        2.743553    0.740027   -0.876916
     27          1           0        3.699688   -1.593423    0.883337
     28          1           0        4.741622   -0.469650    0.000003
     29          1           0        3.699691   -1.593415   -0.883345
 ---------------------------------------------------------------------

 SCF Done:  E(RB3LYP) =  -355.051549961     A.U. after    1 cycles

 The electronic state is 1-A.
 Alpha  occ. eigenvalues --  -10.18753 -10.17350 -10.17350 -10.16950 -10.16949
 Alpha  occ. eigenvalues --  -10.16886 -10.16886 -10.16505 -10.16505  -0.82282
 Alpha  occ. eigenvalues --   -0.77299  -0.74868  -0.67792  -0.67417  -0.66515
 Alpha  occ. eigenvalues --   -0.60150  -0.56857  -0.52197  -0.46379  -0.45336
 Alpha  occ. eigenvalues --   -0.45058  -0.43568  -0.41549  -0.40126  -0.39890
 Alpha  occ. eigenvalues --   -0.38262  -0.36712  -0.35987  -0.35629  -0.35455
 Alpha  occ. eigenvalues --   -0.34772  -0.33161  -0.32829  -0.31674  -0.30830
 Alpha  occ. eigenvalues --   -0.30032  -0.28975
 Alpha virt. eigenvalues --    0.07700   0.10579   0.11286   0.11768   0.11995
 Alpha virt. eigenvalues --    0.13783   0.14362   0.14477   0.16501   0.16999
 Alpha virt. eigenvalues --    0.17255   0.17950   0.18072   0.18657   0.19728

 Mulliken charges:
               1
     1  C   -0.375534
     2  C   -0.192979
     3  C   -0.166662
     4  C    0.246528
     5  C   -0.409611
     6  C   -0.409611
     7  C   -0.166663
     8  C   -0.192979
     9  C   -0.375534
    10  H    0.112287
    11  H    0.108467
    12  H    0.112287
    13  H    0.096920
    14  H    0.096920
    15  H    0.084276
    16  H    0.084276
    17  H    0.110795
    18  H    0.104499
    19  H    0.110795
    20  H    0.110795
    21  H    0.110795
    22  H    0.104499
    23  H    0.084276
    24  H    0.084276
    25  H    0.096920
    26  H    0.096920
    27  H    0.112287
    28  H    0.108467
    29  H    0.112287
 Sum of Mulliken charges =  -0.00000

 Dipole moment (field-independent basis, Debye):
    X=             -0.0000    Y=              0.0714    Z=              0.0000  Tot=              0.0714
 Quadrupole moment (field-independent basis, Debye-Ang):
   XX=            -62.1365   YY=            -61.8499   ZZ=            -61.0060
   XY=             -0.0000   XZ=              0.0000   YZ=             -0.0000

  Exact polarizability: 119.010   0.000  92.004   0.000  -0.000  89.574
 Approx polarizability: 138.988   0.000 135.156   0.000  -0.000 135.888

                      1                      2                      3
                      A                      A                      A
 Frequencies --     37.0092                68.6916                87.5134
 Red. masses --      1.5144                 1.7741                 2.4912
 Frc consts  --      0.0012                 0.0049                 0.0112
 IR Inten    --      0.0000                 0.0308                 0.0047

                      4                      5                      6
                      A                      A                      A
 Frequencies --    109.2017               115.1896               233.8128
 Red. masses --      1.9339                 3.0270                 2.3399
 Frc consts  --      0.0136                 0.0237                 0.0754
 IR Inten    --      0.0000                 0.0220                 0.1639

                      7                      8                      9
                      A                      A                      A
 Frequencies --    235.7375               248.6445               259.0582
 Red. masses --      1.1019                 1.1068                 1.1460
 Frc consts  --      0.0361                 0.0403                 0.0453
 IR Inten    --      0.0000                 0.0121                 0.0792

                     10                     11                     12
                      A                      A                      A
 Frequencies --    263.6595               301.8091               329.9155
 Red. masses --      1.1579                 3.0768                 2.4506
 Frc consts  --      0.0474                 0.1651                 0.1572
 IR Inten    --      0.0000                 0.0038                 0.0406

                     13                     14                     15
                      A                      A                      A
 Frequencies --    330.7125               340.9785               409.6903
 Red. masses --      2.0256                 2.7701                 2.0181
 Frc consts  --      0.1305                 0.1898                 0.1996
 IR Inten    --      0.0000                 0.1554                 0.0224

                     16                     17                     18
                      A                      A                      A
 Frequencies --    434.8562               574.2565               738.3079
 Red. masses --      2.4512                 2.4722                 1.1028
 Frc consts  --      0.2731                 0.4803                 0.3542
 IR Inten    --      0.3035                 0.4270                 0.0000

                     19                     20                     21
                      A                      A                      A
 Frequencies --    747.3670               751.1079               856.9165
 Red. masses --      1.1269                 3.2317                 2.2418
 Frc consts  --      0.3708                 1.0742                 0.9699
 IR Inten    --      4.7581                 0.0046                 0.0545

                     22                     23                     24
                      A                      A                      A
 Frequencies --    863.6669               867.5959               931.5979
 Red. masses --      1.2128                 1.3707                 1.6763
 Frc consts  --      0.5330                 0.6079                 0.8572
 IR Inten    --      0.0000                 0.0511                 0.3090

                     25                     26                     27
                      A                      A                      A
 Frequencies --    937.9330               941.2550               985.1069
 Red. masses --      2.0647                 1.4616                 2.3138
 Frc consts  --      1.0702                 0.7630                 1.3230
 IR Inten    --      7.5229                 0.0592                 0.0761

                     28                     29                     30
                      A                      A                      A
 Frequencies --   1007.6635              1028.8384              1048.8941
 Red. masses --      1.2165                 1.3883                 2.7329
 Frc consts  --      0.7278                 0.8658                 1.7715
 IR Inten    --      0.0000                 0.0173                 0.0106

                     31                     32                     33
                      A                      A                      A
 Frequencies --   1056.7948              1089.1114              1126.2060
 Red. masses --      2.4249                 1.7628                 2.1417
 Frc consts  --      1.5956                 1.2320                 1.6005
 IR Inten    --      0.2448                 1.1597                 0.0372

                     34                     35                     36
                      A                      A                      A
 Frequencies --   1130.5345              1210.1339              1230.6042
 Red. masses --      1.4511                 1.9869                 2.0812
 Frc consts  --      1.0927                 1.7143                 1.8570
 IR Inten    --      0.0000                15.2986                 1.3660

                     37                     38                     39
                      A                      A                      A
 Frequencies --   1246.8562              1269.8286              1300.8358
 Red. masses --      3.0097                 1.2812                 1.3287
 Frc consts  --      2.7568                 1.2172                 1.3247
 IR Inten    --      3.1839                 0.0000                 0.5935

                     40                     41                     42
                      A                      A                      A
 Frequencies --   1323.4469              1325.5451              1331.2746
 Red. masses --      1.4735                 1.3701                 1.0798
 Frc consts  --      1.5206                 1.4184                 1.1275
 IR Inten    --      0.0660                 0.3623                 0.0000

                     43                     44                     45
                      A                      A                      A
 Frequencies --   1367.8112              1387.2980              1399.3123
 Red. masses --      1.2060                 1.5319                 1.4232
 Frc consts  --      1.3294                 1.7371                 1.6419
 IR Inten    --      0.0347                 0.7318                 0.5656

                     46                     47                     48
                      A                      A                      A
 Frequencies --   1400.4727              1410.3626              1410.8736
 Red. masses --      1.2579                 1.2248                 1.2287
 Frc consts  --      1.4536                 1.4354                 1.4410
 IR Inten    --      6.7757                 0.1771                 0.2651

                     49                     50                     51
                      A                      A                      A
 Frequencies --   1425.9154              1470.7810              1482.9030
 Red. masses --      1.2659                 1.0787                 1.0741
 Frc consts  --      1.5165                 1.3748                 1.3916
 IR Inten    --      5.7658                 0.3295                 0.0004

                     52                     53                     54
                      A                      A                      A
 Frequencies --   1482.9476              1492.1693              1493.8205
 Red. masses --      1.0454                 1.0559                 1.0575
 Frc consts  --      1.3545                 1.3852                 1.3904
 IR Inten    --      0.0000                 1.3795                 0.1084

                     55                     56                     57
                      A                      A                      A
 Frequencies --   1497.7670              1499.4299              1503.4405
 Red. masses --      1.0463                 1.0404                 1.0511
 Frc consts  --      1.3829                 1.3782                 1.3999
 IR Inten    --      7.4530                 0.0000                 3.1677

                     58                     59                     60
                      A                      A                      A
 Frequencies --   1508.2379              1508.3300              1510.3155
 Red. masses --      1.0718                 1.0620                 1.0800
 Frc consts  --      1.4365                 1.4235                 1.4515
 IR Inten    --      0.1714                 5.1326                 0.0297

                     61                     62                     63
                      A                      A                      A
 Frequencies --   1518.6962              2992.2427              2999.3075
 Red. masses --      1.0646                 1.0585                 1.0577
 Frc consts  --      1.4467                 5.5838                 5.6062
 IR Inten    --     14.3089                 0.6305                41.5760

                     64                     65                     66
                      A                      A                      A
 Frequencies --   3023.6724              3026.9083              3027.1000
 Red. masses --      1.1012                 1.0362                 1.0370
 Frc consts  --      5.9317                 5.5936                 5.5986
 IR Inten    --      0.0000                39.3707                15.1394

                     67                     68                     69
                      A                      A                      A
 Frequencies --   3027.2647              3030.7269              3031.4388
 Red. masses --      1.0374                 1.0476                 1.1003
 Frc consts  --      5.6012                 5.6693                 5.9573
 IR Inten    --     26.8640                34.3824                25.9434

                     70                     71                     72
                      A                      A                      A
 Frequencies --   3031.7612              3036.2648              3063.8746
 Red. masses --      1.0581                 1.0485                 1.1023
 Frc consts  --      5.7301                 5.6952                 6.0969
 IR Inten    --      1.6320                37.8103                 0.0000

                     73                     74                     75
                      A                      A                      A
 Frequencies --   3066.7904              3094.7642              3095.1551
 Red. masses --      1.1013                 1.1002                 1.1026
 Frc consts  --      6.1027                 6.2086                 6.2234
 IR Inten    --     35.8160                64.8065                 0.0000

                     76                     77                     78
                      A                      A                      A
 Frequencies --   3097.5239              3097.5309              3099.1414
 Red. masses --      1.1018                 1.0990                 1.1010
 Frc consts  --      6.2282                 6.2125                 6.2304
 IR Inten    --     74.9533                10.9781                34.7338

                     79                     80                     81
                      A                      A                      A
 Frequencies --   3099.9771              3104.3661              3107.5540
 Red. masses --      1.0994                 1.1006                 1.0995
 Frc consts  --      6.2247                 6.2495                 6.2556
 IR Inten    --     73.2249                 0.0000                81.3787

 - Thermochemistry -
 -------------------
 Temperature   298.150 Kelvin.  Pressure   1.00000 Atm.
 Atom     1 has atomic number  6 and mass  12.00000

 Molecular mass:   128.15650 amu.
 Principal axes and moments of inertia in atomic units:
                           1         2         3
     Eigenvalues --   596.444432660.138112802.35208
           X            1.00000  -0.00000   0.00000
           Y            0.00000   1.00000   0.00000
           Z           -0.00000  -0.00000   1.00000
 This molecule is an asymmetric top.
 Rotational symmetry number  1.
 Warning -- assumption of classical behavior for rotation
           may cause significant error
 Rotational temperatures (Kelvin)      0.14522     0.03256     0.03091
 Rotational constants (GHZ):           3.02583     0.67844     0.64401
 Zero-point vibrational energy     715680.3 (Joules/Mol)
                                  171.05171 (Kcal/Mol)
 Warning -- explicit consideration of  17 degrees of freedom as
           vibrations may cause significant error
 Vibrational temperatures:     53.25    98.83   125.91   157.12   165.73
          (Kelvin)            336.40   339.17   357.74   372.73   379.35
                              434.24   474.67   475.82   490.59   589.45
                              625.66   826.23  1062.26  1075.29  1080.68
                             1232.91  1242.62  1248.28  1340.36  1349.48
                             1354.26  1417.35  1449.80  1480.27  1509.12
                             1520.49  1566.99  1620.36  1626.59  1741.11
                             1770.56  1793.95  1827.00  1871.61  1904.14
                             1907.16  1915.41  1967.98  1996.01  2013.30
                             2014.97  2029.20  2029.93  2051.57  2116.13
                             2133.57  2133.63  2146.90  2149.27  2154.95
                             2157.35  2163.12  2170.02  2170.15  2173.01
                             2185.07  4305.17  4315.33  4350.39  4355.05
                             4355.32  4355.56  4360.54  4361.56  4362.03
                             4368.51  4408.23  4412.43  4452.68  4453.24
                             4456.65  4456.66  4458.97  4460.18  4466.49
                             4471.08

 Zero-point correction=                           0.272588 (Hartree/Particle)
 Thermal correction to Energy=                    0.285079
 Thermal correction to Enthalpy=                  0.286023
 Thermal correction to Gibbs Free Energy=         0.234248
 Sum of electronic and zero-point Energies=           -354.778962
 Sum of electronic and thermal Energies=              -354.766471
 Sum of electronic and thermal Enthalpies=            -354.765527
 Sum of electronic and thermal Free Energies=         -354.817302

                     E (Thermal)             CV                S
                      KCal/Mol        Cal/Mol-Kelvin    Cal/Mol-Kelvin
 Total                  178.890             45.736            108.971
 Electronic               0.000              0.000              0.000
 Translational            0.889              2.981             40.457
 Rotational               0.889              2.981             29.876
 Vibrational            177.112             39.774             38.637
 Vibration     1          0.594              1.982              5.413
 Vibration     2          0.598              1.969              4.191
 Vibration     3          0.601              1.958              3.715
 Vibration     4          0.606              1.942              3.283
 Vibration     5          0.608              1.937              3.180
 Vibration     6          0.654              1.789              1.849
 Vibration     7          0.655              1.786              1.835
 Vibration     8          0.662              1.765              1.740
 Vibration     9          0.668              1.747              1.668
 Vibration    10          0.670              1.740              1.637
 Vibration    11          0.694              1.670              1.407
 Vibration    12          0.713              1.616              1.260
 Vibration    13          0.713              1.614              1.257
 Vibration    14          0.720              1.594              1.208
 Vibration    15          0.774              1.449              0.928
 Vibration    16          0.795              1.394              0.843
 Vibration    17          0.931              1.087              0.496

 Optimization completed.
    -- Stationary point found.
 Normal termination of Gaussian 16 at Sun Feb 28 01:56:43 2021.
