 Gaussian 16, Revision A.03,
 Gaussian 16:  ES64L-G16RevA.03 25-Dec-2016

 -----------------------------
 # opt freq b3lyp/6-31g(2df,p)
 -----------------------------

 -----
 Title
 -----
 Symbolic Z-matrix:
 Charge =  0 Multiplicity = 1

 SCF Done:  E(RB3LYP) =  -440.440153965     A.U. after   14 cycles
 SCF Done:  E(RB3LYP) =  -440.444851549     A.U. after   12 cycles
 SCF Done:  E(RB3LYP) =  -440.445266243     A.U. after   11 cycles
 SCF Done:  E(RB3LYP) =  -440.445410261     A.U. after   11 cycles
 SCF Done:  E(RB3LYP) =  -440.445445048     A.U. after    9 cycles
 SCF Done:  E(RB3LYP) =  -440.445456085     A.U. after   10 cycles
 SCF Done:  E(RB3LYP) =  -440.445459943     A.U. after    8 cycles
 SCF Done:  E(RB3LYP) =  -440.445463770     A.U. after    8 cycles
 SCF Done:  E(RB3LYP) =  -440.445465373     A.U. after    8 cycles
 SCF Done:  E(RB3LYP) =  -440.445466059     A.U. after    8 cycles
 Optimization completed.
    -- Stationary point found.
 Normal termination of Gaussian 16 at Thu Feb 18 12:31:01 2021.

 ----------------------------------------------------------------------
 #N Geom=AllCheck Guess=TCheck SCRF=Check GenChk RB3LYP/6-31G(2df,p) Fr
 eq
 ----------------------------------------------------------------------

 Structure from the checkpoint file:  "CCCpCOpOCCtN.chk"
 -----
 Title
 -----
 Charge =  0 Multiplicity = 1

                         Standard orientation:
 ---------------------------------------------------------------------
 Center     Atomic      Atomic             Coordinates (Angstroms)
 Number     Number       Type             X           Y           Z
 ---------------------------------------------------------------------
      1          6           0       -1.309515    2.510968   -0.227999
      2          6           0       -1.574567    1.178677    0.477421
      3          6           0       -1.054194   -0.028243   -0.315254
      4          6           0       -1.456254   -1.349763    0.340594
      5          8           0       -0.880809   -2.413473   -0.396687
      6          8           0        0.349975    0.072379   -0.575879
      7          6           0        1.208360   -0.322404    0.468528
      8          6           0        2.574563    0.087699    0.127060
      9          7           0        3.661736    0.397234   -0.107930
     10          1           0       -1.653017    3.352851    0.379702
     11          1           0       -1.830996    2.556312   -1.190133
     12          1           0       -0.242018    2.639274   -0.423405
     13          1           0       -2.651733    1.045348    0.639020
     14          1           0       -1.119749    1.186449    1.476891
     15          1           0       -1.488478   -0.011744   -1.321647
     16          1           0       -2.555422   -1.400190    0.343073
     17          1           0       -1.132201   -1.368751    1.394201
     18          1           0       -1.186412   -3.244072   -0.020061
     19          1           0        1.192672   -1.412721    0.604382
     20          1           0        0.951516    0.143755    1.431908
 ---------------------------------------------------------------------

 SCF Done:  E(RB3LYP) =  -440.445466059     A.U. after    1 cycles

 The electronic state is 1-A.
 Alpha  occ. eigenvalues --  -19.15948 -19.15494 -14.32840 -10.27614 -10.24728
 Alpha  occ. eigenvalues --  -10.24633 -10.21873 -10.19619 -10.17983  -1.05731
 Alpha  occ. eigenvalues --   -1.03154  -0.89902  -0.80955  -0.75005  -0.72583
 Alpha  occ. eigenvalues --   -0.63861  -0.59739  -0.54316  -0.53034  -0.50168
 Alpha  occ. eigenvalues --   -0.48597  -0.46628  -0.44841  -0.43935  -0.40077
 Alpha  occ. eigenvalues --   -0.38360  -0.37084  -0.36164  -0.35608  -0.35029
 Alpha  occ. eigenvalues --   -0.33307  -0.32620  -0.31691  -0.28937  -0.27187
 Alpha virt. eigenvalues --    0.01860   0.04014   0.05827   0.07792   0.09235
 Alpha virt. eigenvalues --    0.11431   0.13231   0.14750   0.15634   0.15984
 Alpha virt. eigenvalues --    0.16767   0.17870   0.18210   0.19160   0.20025

 Mulliken charges:
               1
     1  C   -0.383781
     2  C   -0.196202
     3  C    0.144919
     4  C   -0.117168
     5  O   -0.410062
     6  O   -0.251426
     7  C   -0.202340
     8  C    0.270374
     9  N   -0.297969
    10  H    0.114253
    11  H    0.118802
    12  H    0.138917
    13  H    0.101714
    14  H    0.097497
    15  H    0.102296
    16  H    0.100564
    17  H    0.089605
    18  H    0.293709
    19  H    0.152376
    20  H    0.133924
 Sum of Mulliken charges =  -0.00000

 Dipole moment (field-independent basis, Debye):
    X=             -5.2320    Y=             -1.6648    Z=              2.6503  Tot=              6.0967
 Quadrupole moment (field-independent basis, Debye-Ang):
   XX=            -67.4952   YY=            -48.6802   ZZ=            -54.2658
   XY=             -0.6082   XZ=              1.9232   YZ=             -2.6217

  Exact polarizability:  91.297   2.238  76.791  -1.689  -1.432  61.528
 Approx polarizability: 127.895   6.874  98.709  -5.150  -1.912  96.593

                      1                      2                      3
                      A                      A                      A
 Frequencies --     43.7920                77.8171               123.6667
 Red. masses --      5.7012                 2.2664                 4.1220
 Frc consts  --      0.0064                 0.0081                 0.0371
 IR Inten    --      1.9147                 1.9071                 6.7759

                      4                      5                      6
                      A                      A                      A
 Frequencies --    143.1963               157.2657               186.3443
 Red. masses --      1.9308                 5.0804                 3.0766
 Frc consts  --      0.0233                 0.0740                 0.0629
 IR Inten    --      5.4789                 4.5785                 1.4463

                      7                      8                      9
                      A                      A                      A
 Frequencies --    226.3602               266.2385               292.2226
 Red. masses --      1.3010                 2.5145                 1.1939
 Frc consts  --      0.0393                 0.1050                 0.0601
 IR Inten    --      1.9821                26.7955                78.5315

                     10                     11                     12
                      A                      A                      A
 Frequencies --    305.7176               388.7836               401.2607
 Red. masses --      4.2047                 3.7585                 4.1538
 Frc consts  --      0.2315                 0.3347                 0.3941
 IR Inten    --      0.3010                 1.9338                 0.6937

                     13                     14                     15
                      A                      A                      A
 Frequencies --    492.8221               530.2018               577.1043
 Red. masses --      3.2517                 4.2520                 2.7394
 Frc consts  --      0.4653                 0.7043                 0.5376
 IR Inten    --      7.7377                13.4687                 3.0564

                     16                     17                     18
                      A                      A                      A
 Frequencies --    781.9702               846.3642               935.5276
 Red. masses --      1.3826                 2.4601                 1.7981
 Frc consts  --      0.4981                 1.0383                 0.9272
 IR Inten    --      3.1404                16.4881                 9.4595

                     19                     20                     21
                      A                      A                      A
 Frequencies --    953.9455               978.6139              1019.5781
 Red. masses --      4.1688                 1.7617                 3.1907
 Frc consts  --      2.2352                 0.9941                 1.9542
 IR Inten    --      6.3619                18.6604                 8.0688

                     22                     23                     24
                      A                      A                      A
 Frequencies --   1038.3324              1051.4777              1103.1476
 Red. masses --      1.8132                 2.2454                 3.7714
 Frc consts  --      1.1518                 1.4626                 2.7041
 IR Inten    --     13.8505                24.0917                86.4406

                     25                     26                     27
                      A                      A                      A
 Frequencies --   1118.4424              1135.3209              1170.6980
 Red. masses --      2.6551                 2.1747                 2.3441
 Frc consts  --      1.9568                 1.6515                 1.8929
 IR Inten    --     21.4558                89.2232                55.6296

                     28                     29                     30
                      A                      A                      A
 Frequencies --   1243.9683              1257.3756              1258.5975
 Red. masses --      1.1779                 1.1449                 1.2129
 Frc consts  --      1.0740                 1.0664                 1.1320
 IR Inten    --     25.5825                13.0467                 5.7782

                     31                     32                     33
                      A                      A                      A
 Frequencies --   1304.6067              1313.4847              1384.1464
 Red. masses --      1.2109                 1.2162                 1.5411
 Frc consts  --      1.2143                 1.2362                 1.7396
 IR Inten    --     11.3859                 8.4126                 0.3975

                     34                     35                     36
                      A                      A                      A
 Frequencies --   1401.2371              1408.5828              1413.9880
 Red. masses --      1.2354                 1.2773                 1.2447
 Frc consts  --      1.4292                 1.4932                 1.4662
 IR Inten    --      2.1779                28.0553                 1.0374

                     37                     38                     39
                      A                      A                      A
 Frequencies --   1461.7707              1478.8512              1496.3760
 Red. masses --      1.4714                 1.0760                 1.0422
 Frc consts  --      1.8524                 1.3865                 1.3750
 IR Inten    --      0.4477                 0.8679                 3.6691

                     40                     41                     42
                      A                      A                      A
 Frequencies --   1501.1163              1509.0043              1521.1964
 Red. masses --      1.0738                 1.0609                 1.0804
 Frc consts  --      1.4257                 1.4233                 1.4730
 IR Inten    --      2.5921                 6.0784                 3.9195

                     43                     44                     45
                      A                      A                      A
 Frequencies --   2372.5373              2966.6847              2990.2198
 Red. masses --     12.6216                 1.0613                 1.0592
 Frc consts  --     41.8593                 5.5032                 5.5799
 IR Inten    --      1.1810                31.0711                18.2129

                     46                     47                     48
                      A                      A                      A
 Frequencies --   3004.1970              3019.0199              3032.0051
 Red. masses --      1.0971                 1.0620                 1.0982
 Frc consts  --      5.8337                 5.7029                 5.9484
 IR Inten    --     39.4103                26.1664                16.0627

                     49                     50                     51
                      A                      A                      A
 Frequencies --   3040.8131              3044.3602              3061.0397
 Red. masses --      1.0389                 1.0884                 1.0942
 Frc consts  --      5.6597                 5.9435                 6.0405
 IR Inten    --     22.4686                 7.3591                58.8637

                     52                     53                     54
                      A                      A                      A
 Frequencies --   3107.2938              3126.4900              3829.9852
 Red. masses --      1.1008                 1.1014                 1.0665
 Frc consts  --      6.2619                 6.3432                 9.2174
 IR Inten    --     33.5075                21.6269                31.5685

 - Thermochemistry -
 -------------------
 Temperature   298.150 Kelvin.  Pressure   1.00000 Atm.
 Atom     1 has atomic number  6 and mass  12.00000

 Molecular mass:   129.07898 amu.
 Principal axes and moments of inertia in atomic units:
                           1         2         3
     Eigenvalues --  1006.342701583.052762394.69497
           X            0.99884  -0.04815  -0.00066
           Y            0.04813   0.99874  -0.01449
           Z            0.00136   0.01444   0.99989
 This molecule is an asymmetric top.
 Rotational symmetry number  1.
 Warning -- assumption of classical behavior for rotation
           may cause significant error
 Rotational temperatures (Kelvin)      0.08607     0.05471     0.03617
 Rotational constants (GHZ):           1.79337     1.14004     0.75364
 Zero-point vibrational energy     441991.2 (Joules/Mol)
                                  105.63843 (Kcal/Mol)
 Warning -- explicit consideration of  15 degrees of freedom as
           vibrations may cause significant error
 Vibrational temperatures:     63.01   111.96   177.93   206.03   226.27
          (Kelvin)            268.11   325.68   383.06   420.44   439.86
                              559.37   577.32   709.06   762.84   830.32
                             1125.08  1217.73  1346.02  1372.51  1408.01
                             1466.95  1493.93  1512.84  1587.18  1609.19
                             1633.47  1684.37  1789.79  1809.08  1810.84
                             1877.04  1889.81  1991.48  2016.07  2026.64
                             2034.41  2103.16  2127.74  2152.95  2159.77
                             2171.12  2188.66  3413.55  4268.40  4302.26
                             4322.37  4343.70  4362.38  4375.05  4380.16
                             4404.15  4470.70  4498.32  5510.49

 Zero-point correction=                           0.168346 (Hartree/Particle)
 Thermal correction to Energy=                    0.179012
 Thermal correction to Enthalpy=                  0.179956
 Thermal correction to Gibbs Free Energy=         0.131750
 Sum of electronic and zero-point Energies=           -440.277120
 Sum of electronic and thermal Energies=              -440.266454
 Sum of electronic and thermal Enthalpies=            -440.265510
 Sum of electronic and thermal Free Energies=         -440.313716

                     E (Thermal)             CV                S
                      KCal/Mol        Cal/Mol-Kelvin    Cal/Mol-Kelvin
 Total                  112.332             37.144            101.458
 Electronic               0.000              0.000              0.000
 Translational            0.889              2.981             40.479
 Rotational               0.889              2.981             29.724
 Vibrational            110.554             31.182             31.255
 Vibration     1          0.595              1.980              5.080
 Vibration     2          0.599              1.964              3.945
 Vibration     3          0.610              1.929              3.042
 Vibration     4          0.616              1.910              2.761
 Vibration     5          0.621              1.895              2.582
 Vibration     6          0.632              1.859              2.264
 Vibration     7          0.650              1.801              1.908
 Vibration     8          0.672              1.735              1.621
 Vibration     9          0.688              1.688              1.461
 Vibration    10          0.696              1.663              1.385
 Vibration    11          0.757              1.494              1.005
 Vibration    12          0.767              1.467              0.958
 Vibration    13          0.849              1.266              0.676
 Vibration    14          0.885              1.183              0.587
 Vibration    15          0.934              1.081              0.491

                           ! Non-Optimized Parameters !
 Normal termination of Gaussian 16 at Thu Feb 18 13:01:47 2021.
