 Gaussian 16, Revision A.03,
 Gaussian 16:  ES64L-G16RevA.03 25-Dec-2016

 -----------------------------------------------
 # opt freq b3lyp/6-31g(2df,p) geom=connectivity
 -----------------------------------------------

 -------------------
 Title Card Required
 -------------------
 Symbolic Z-matrix:
 Charge =  0 Multiplicity = 1

 SCF Done:  E(RB3LYP) =  -405.703275751     A.U. after   17 cycles
 SCF Done:  E(RB3LYP) =  -405.760792161     A.U. after   13 cycles
 SCF Done:  E(RB3LYP) =  -405.784637700     A.U. after   12 cycles
 SCF Done:  E(RB3LYP) =  -405.806702892     A.U. after   12 cycles
 SCF Done:  E(RB3LYP) =  -405.809754484     A.U. after   11 cycles
 SCF Done:  E(RB3LYP) =  -405.810708029     A.U. after   11 cycles
 SCF Done:  E(RB3LYP) =  -405.814508475     A.U. after   11 cycles
 SCF Done:  E(RB3LYP) =  -405.815283673     A.U. after   12 cycles
 SCF Done:  E(RB3LYP) =  -405.815683981     A.U. after   12 cycles
 SCF Done:  E(RB3LYP) =  -405.815876556     A.U. after   11 cycles
 SCF Done:  E(RB3LYP) =  -405.816845429     A.U. after   12 cycles
 SCF Done:  E(RB3LYP) =  -405.816986980     A.U. after   12 cycles
 SCF Done:  E(RB3LYP) =  -405.816956919     A.U. after   11 cycles
 SCF Done:  E(RB3LYP) =  -405.816994109     A.U. after   11 cycles
 SCF Done:  E(RB3LYP) =  -405.816992623     A.U. after    9 cycles
 SCF Done:  E(RB3LYP) =  -405.816994725     A.U. after    9 cycles
 SCF Done:  E(RB3LYP) =  -405.816994730     A.U. after    7 cycles
 SCF Done:  E(RB3LYP) =  -405.816994748     A.U. after    7 cycles
 SCF Done:  E(RB3LYP) =  -405.816994740     A.U. after    6 cycles
 Optimization completed.
    -- Stationary point found.
 Normal termination of Gaussian 16 at Wed Feb 17 22:08:10 2021.

 ----------------------------------------------------------------------
 #N Geom=AllCheck Guess=TCheck SCRF=Check GenChk RB3LYP/6-31G(2df,p) Fr
 eq
 ----------------------------------------------------------------------

 Structure from the checkpoint file:  "CCCpdOpNCCpCpC.chk"
 -------------------
 Title Card Required
 -------------------
 Charge =  0 Multiplicity = 1

                         Standard orientation:
 ---------------------------------------------------------------------
 Center     Atomic      Atomic             Coordinates (Angstroms)
 Number     Number       Type             X           Y           Z
 ---------------------------------------------------------------------
      1          6           0        3.807610    0.032565    0.070268
      2          1           0        4.666698    0.313881   -0.545115
      3          1           0        3.756474    0.695393    0.936201
      4          1           0        3.971389   -0.983918    0.440777
      5          6           0        2.508934    0.123828   -0.731956
      6          1           0        2.415408    1.124209   -1.175457
      7          1           0        2.511071   -0.584592   -1.568963
      8          6           0        1.275504   -0.089670    0.146474
      9          8           0        1.249028    0.232501    1.321920
     10          7           0        0.204110   -0.644213   -0.495704
     11          1           0        0.303131   -0.887840   -1.467823
     12          6           0       -1.079475   -0.874324    0.144921
     13          1           0       -0.924892   -0.676863    1.209310
     14          1           0       -1.352478   -1.932376    0.037480
     15          6           0       -2.219160    0.005812   -0.401303
     16          1           0       -2.290151   -0.176285   -1.484697
     17          6           0       -1.941908    1.497635   -0.184097
     18          1           0       -1.000190    1.800877   -0.650058
     19          1           0       -2.742337    2.110265   -0.611474
     20          1           0       -1.872275    1.729595    0.884455
     21          6           0       -3.549325   -0.415653    0.235812
     22          1           0       -4.381363    0.170216   -0.166879
     23          1           0       -3.765801   -1.474190    0.055232
     24          1           0       -3.528757   -0.260038    1.320869
 ---------------------------------------------------------------------

 SCF Done:  E(RB3LYP) =  -405.816994740     A.U. after    1 cycles

 The electronic state is 1-A.
 Alpha  occ. eigenvalues --  -19.09292 -14.34713 -10.26978 -10.21037 -10.19061
 Alpha  occ. eigenvalues --  -10.19046 -10.17517 -10.17143 -10.16928  -1.02238
 Alpha  occ. eigenvalues --   -0.91407  -0.80038  -0.76823  -0.69223  -0.68210
 Alpha  occ. eigenvalues --   -0.62851  -0.57663  -0.56472  -0.49621  -0.47380
 Alpha  occ. eigenvalues --   -0.46426  -0.44657  -0.43748  -0.41092  -0.39572
 Alpha  occ. eigenvalues --   -0.38619  -0.38086  -0.37397  -0.35840  -0.35665
 Alpha  occ. eigenvalues --   -0.34694  -0.33465  -0.32949  -0.32566  -0.24465
 Alpha  occ. eigenvalues --   -0.24083
 Alpha virt. eigenvalues --    0.03708   0.07109   0.09295   0.11398   0.13288
 Alpha virt. eigenvalues --    0.13758   0.14648   0.14996   0.15627   0.16497
 Alpha virt. eigenvalues --    0.17473   0.18252   0.18524   0.18863   0.20065

 Mulliken charges:
               1
     1  C   -0.366318
     2  H    0.106647
     3  H    0.145865
     4  H    0.120719
     5  C   -0.298660
     6  H    0.127384
     7  H    0.094880
     8  C    0.422353
     9  O   -0.379446
    10  N   -0.322211
    11  H    0.238668
    12  C   -0.155128
    13  H    0.145108
    14  H    0.096317
    15  C    0.032926
    16  H    0.061949
    17  C   -0.374085
    18  H    0.113397
    19  H    0.107123
    20  H    0.125730
    21  C   -0.385780
    22  H    0.113484
    23  H    0.109276
    24  H    0.119804
 Sum of Mulliken charges =   0.00000

 Dipole moment (field-independent basis, Debye):
    X=             -0.8692    Y=             -0.9502    Z=             -3.1036  Tot=              3.3601
 Quadrupole moment (field-independent basis, Debye-Ang):
   XX=            -55.1594   YY=            -56.2805   ZZ=            -58.4044
   XY=             -0.0568   XZ=             -3.8056   YZ=              0.1593

  Exact polarizability: 109.361   4.712  75.609   0.215   1.580  77.898
 Approx polarizability: 124.878   6.951 110.190   3.634   7.633 128.304

                      1                      2                      3
                      A                      A                      A
 Frequencies --     25.4376                38.2573                60.7016
 Red. masses --      2.4256                 4.7518                 2.4866
 Frc consts  --      0.0009                 0.0041                 0.0054
 IR Inten    --      0.1552                 5.4069                 1.1667

                      4                      5                      6
                      A                      A                      A
 Frequencies --     74.4949               197.8501               214.9695
 Red. masses --      2.9316                 1.1985                 1.1260
 Frc consts  --      0.0096                 0.0276                 0.0307
 IR Inten    --      1.2485                 0.4719                 0.4981

                      7                      8                      9
                      A                      A                      A
 Frequencies --    227.1026               251.2071               260.2168
 Red. masses --      1.5064                 1.5173                 2.5419
 Frc consts  --      0.0458                 0.0564                 0.1014
 IR Inten    --      1.6091                 2.8380                 2.9166

                     10                     11                     12
                      A                      A                      A
 Frequencies --    302.9581               333.0637               392.5456
 Red. masses --      2.8062                 3.2420                 2.3508
 Frc consts  --      0.1518                 0.2119                 0.2134
 IR Inten    --      0.3920                19.4140                 1.1245

                     13                     14                     15
                      A                      A                      A
 Frequencies --    416.2111               459.0294               537.4525
 Red. masses --      1.8566                 1.2437                 3.1536
 Frc consts  --      0.1895                 0.1544                 0.5367
 IR Inten    --      0.2607                68.6123                 3.3520

                     16                     17                     18
                      A                      A                      A
 Frequencies --    595.0465               685.7490               809.4735
 Red. masses --      2.4466                 2.6673                 1.4187
 Frc consts  --      0.5104                 0.7390                 0.5477
 IR Inten    --      3.9179                 0.2551                 3.6843

                     19                     20                     21
                      A                      A                      A
 Frequencies --    819.4309               847.8022               926.8627
 Red. masses --      2.6543                 2.1822                 1.3030
 Frc consts  --      1.0501                 0.9242                 0.6595
 IR Inten    --      2.0223                 1.8565                 3.7748

                     22                     23                     24
                      A                      A                      A
 Frequencies --    939.3125               953.9091               970.9987
 Red. masses --      1.7228                 1.6396                 1.5644
 Frc consts  --      0.8956                 0.8790                 0.8690
 IR Inten    --      3.0674                 2.6474                 1.3193

                     25                     26                     27
                      A                      A                      A
 Frequencies --   1008.1729              1054.6632              1096.1470
 Red. masses --      2.3132                 1.9924                 1.8031
 Frc consts  --      1.3853                 1.3057                 1.2765
 IR Inten    --      0.4199                 6.1694                 1.6715

                     28                     29                     30
                      A                      A                      A
 Frequencies --   1116.8910              1145.4069              1181.7851
 Red. masses --      2.5689                 2.2349                 1.9730
 Frc consts  --      1.8880                 1.7275                 1.6235
 IR Inten    --      1.1960                 4.5016                11.2906

                     31                     32                     33
                      A                      A                      A
 Frequencies --   1196.1965              1224.7682              1286.0351
 Red. masses --      1.8023                 1.9054                 1.2152
 Frc consts  --      1.5195                 1.6841                 1.1842
 IR Inten    --      0.3591               140.0115                 5.1283

                     34                     35                     36
                      A                      A                      A
 Frequencies --   1291.8516              1332.3715              1373.1122
 Red. masses --      1.2916                 1.2684                 1.5399
 Frc consts  --      1.2700                 1.3266                 1.7106
 IR Inten    --     49.2929                 3.1865                14.5482

                     37                     38                     39
                      A                      A                      A
 Frequencies --   1374.8176              1395.6665              1401.9403
 Red. masses --      1.3450                 1.3675                 1.2993
 Frc consts  --      1.4978                 1.5694                 1.5046
 IR Inten    --      3.6634                 3.2865                 3.7013

                     40                     41                     42
                      A                      A                      A
 Frequencies --   1406.6162              1424.7963              1465.4376
 Red. masses --      1.2264                 1.2472                 1.0802
 Frc consts  --      1.4297                 1.4918                 1.3667
 IR Inten    --      4.0550                 3.2988                 3.6470

                     43                     44                     45
                      A                      A                      A
 Frequencies --   1478.1691              1487.4336              1493.1808
 Red. masses --      1.0753                 1.0452                 1.0414
 Frc consts  --      1.3843                 1.3624                 1.3680
 IR Inten    --      6.5685                 1.5709                 8.2274

                     46                     47                     48
                      A                      A                      A
 Frequencies --   1494.0808              1503.2079              1505.3877
 Red. masses --      1.0616                 1.0591                 1.0522
 Frc consts  --      1.3963                 1.4101                 1.4049
 IR Inten    --      3.4498                11.4099                 4.0189

                     49                     50                     51
                      A                      A                      A
 Frequencies --   1510.0919              1541.0734              1774.8536
 Red. masses --      1.0551                 1.8979                 9.2519
 Frc consts  --      1.4175                 2.6556                17.1714
 IR Inten    --     12.7101               214.8089               184.8925

                     52                     53                     54
                      A                      A                      A
 Frequencies --   2983.8315              3016.0367              3021.3174
 Red. masses --      1.0823                 1.0670                 1.0602
 Frc consts  --      5.6773                 5.7185                 5.7018
 IR Inten    --     29.3314                40.3895                18.5348

                     55                     56                     57
                      A                      A                      A
 Frequencies --   3026.4574              3034.4028              3047.2846
 Red. masses --      1.0365                 1.0362                 1.0394
 Frc consts  --      5.5934                 5.6212                 5.6867
 IR Inten    --     41.7555                13.6002                26.9458

                     58                     59                     60
                      A                      A                      A
 Frequencies --   3057.8381              3090.9738              3098.7512
 Red. masses --      1.0966                 1.1008                 1.1014
 Frc consts  --      6.0412                 6.1965                 6.2311
 IR Inten    --     20.6321                24.1058                 8.7870

                     61                     62                     63
                      A                      A                      A
 Frequencies --   3102.5861              3106.7817              3111.0908
 Red. masses --      1.1005                 1.0948                 1.1000
 Frc consts  --      6.2415                 6.2262                 6.2730
 IR Inten    --     45.8020                15.1078                32.5382

                     64                     65                     66
                      A                      A                      A
 Frequencies --   3113.2157              3139.1545              3637.7561
 Red. masses --      1.1022                 1.1007                 1.0766
 Frc consts  --      6.2938                 6.3907                 8.3944
 IR Inten    --     28.9803                13.6407                15.6809

 - Thermochemistry -
 -------------------
 Temperature   298.150 Kelvin.  Pressure   1.00000 Atm.
 Atom     1 has atomic number  6 and mass  12.00000

 Molecular mass:   129.11536 amu.
 Principal axes and moments of inertia in atomic units:
                           1         2         3
     Eigenvalues --   436.394852679.589312718.30462
           X            0.99996  -0.00143  -0.00866
           Y            0.00055   0.99500  -0.09987
           Z            0.00876   0.09986   0.99496
 This molecule is an asymmetric top.
 Rotational symmetry number  1.
 Warning -- assumption of classical behavior for rotation
           may cause significant error
 Rotational temperatures (Kelvin)      0.19848     0.03232     0.03186
 Rotational constants (GHZ):           4.13557     0.67351     0.66392
 Zero-point vibrational energy     565186.0 (Joules/Mol)
                                  135.08269 (Kcal/Mol)
 Warning -- explicit consideration of  16 degrees of freedom as
           vibrations may cause significant error
 Vibrational temperatures:     36.60    55.04    87.34   107.18   284.66
          (Kelvin)            309.29   326.75   361.43   374.39   435.89
                              479.20   564.79   598.83   660.44   773.27
                              856.14   986.64  1164.65  1178.98  1219.80
                             1333.55  1351.46  1372.46  1397.05  1450.54
                             1517.43  1577.11  1606.96  1647.99  1700.33
                             1721.06  1762.17  1850.32  1858.69  1916.99
                             1975.60  1978.06  2008.05  2017.08  2023.81
                             2049.96  2108.44  2126.76  2140.09  2148.35
                             2149.65  2162.78  2165.92  2172.69  2217.26
                             2553.62  4293.07  4339.40  4347.00  4354.40
                             4365.83  4384.36  4399.55  4447.22  4458.41
                             4463.93  4469.97  4476.17  4479.22  4516.54
                             5233.92

 Zero-point correction=                           0.215268 (Hartree/Particle)
 Thermal correction to Energy=                    0.226871
 Thermal correction to Enthalpy=                  0.227815
 Thermal correction to Gibbs Free Energy=         0.176557
 Sum of electronic and zero-point Energies=           -405.601727
 Sum of electronic and thermal Energies=              -405.590124
 Sum of electronic and thermal Enthalpies=            -405.589179
 Sum of electronic and thermal Free Energies=         -405.640438

                     E (Thermal)             CV                S
                      KCal/Mol        Cal/Mol-Kelvin    Cal/Mol-Kelvin
 Total                  142.364             40.915            107.883
 Electronic               0.000              0.000              0.000
 Translational            0.889              2.981             40.480
 Rotational               0.889              2.981             29.543
 Vibrational            140.586             34.953             37.861
 Vibration     1          0.593              1.985              6.157
 Vibration     2          0.594              1.982              5.347
 Vibration     3          0.597              1.973              4.434
 Vibration     4          0.599              1.966              4.031
 Vibration     5          0.637              1.843              2.153
 Vibration     6          0.645              1.818              2.001
 Vibration     7          0.651              1.800              1.902
 Vibration     8          0.663              1.761              1.722
 Vibration     9          0.668              1.745              1.660
 Vibration    10          0.694              1.668              1.401
 Vibration    11          0.715              1.609              1.245
 Vibration    12          0.760              1.486              0.990
 Vibration    13          0.779              1.435              0.905
 Vibration    14          0.817              1.341              0.769
 Vibration    15          0.892              1.167              0.571
 Vibration    16          0.953              1.042              0.458

 Optimization completed.
    -- Stationary point found.
 Normal termination of Gaussian 16 at Wed Feb 17 23:12:26 2021.
