 Gaussian 16, Revision A.03,
 Gaussian 16:  ES64L-G16RevA.03 25-Dec-2016

 -----------------------------
 # opt freq b3lyp/6-31g(2df,p)
 -----------------------------

 -----
 Title
 -----
 Symbolic Z-matrix:
 Charge =  0 Multiplicity = 1

 SCF Done:  E(RB3LYP) =  -390.943460326     A.U. after   12 cycles
 SCF Done:  E(RB3LYP) =  -390.949716936     A.U. after   11 cycles
 SCF Done:  E(RB3LYP) =  -390.951210952     A.U. after   10 cycles
 SCF Done:  E(RB3LYP) =  -390.951449875     A.U. after   13 cycles
 SCF Done:  E(RB3LYP) =  -390.953750362     A.U. after   11 cycles
 SCF Done:  E(RB3LYP) =  -390.954204293     A.U. after    9 cycles
 SCF Done:  E(RB3LYP) =  -390.954410393     A.U. after    9 cycles
 SCF Done:  E(RB3LYP) =  -390.954464072     A.U. after    9 cycles
 SCF Done:  E(RB3LYP) =  -390.954481308     A.U. after    8 cycles
 SCF Done:  E(RB3LYP) =  -390.954492428     A.U. after    8 cycles
 SCF Done:  E(RB3LYP) =  -390.954495836     A.U. after    7 cycles
 SCF Done:  E(RB3LYP) =  -390.954497237     A.U. after    7 cycles
 SCF Done:  E(RB3LYP) =  -390.954497313     A.U. after    6 cycles
 Optimization completed.
    -- Stationary point found.
 Normal termination of Gaussian 16 at Sun Feb 28 01:26:42 2021.

 ----------------------------------------------------------------------
 #N Geom=AllCheck Guess=TCheck SCRF=Check GenChk RB3LYP/6-31G(2df,p) Fr
 eq
 ----------------------------------------------------------------------

 Structure from the checkpoint file:  "CCCpCCpOCpCpC.chk"
 -----
 Title
 -----
 Charge =  0 Multiplicity = 1

                         Standard orientation:
 ---------------------------------------------------------------------
 Center     Atomic      Atomic             Coordinates (Angstroms)
 Number     Number       Type             X           Y           Z
 ---------------------------------------------------------------------
      1          6           0       -2.816648   -1.450031    0.149013
      2          6           0       -1.475170   -1.155023   -0.530288
      3          6           0       -0.704882    0.038496    0.056565
      4          6           0       -1.411223    1.379927   -0.175756
      5          6           0       -0.688359    2.569910    0.458819
      6          8           0        0.584756    0.104758   -0.555129
      7          6           0        1.712186   -0.156648    0.273423
      8          6           0        1.842625   -1.640455    0.633975
      9          6           0        2.931037    0.348961   -0.491957
     10          1           0       -2.691832   -1.602636    1.227470
     11          1           0       -3.266650   -2.359180   -0.261568
     12          1           0       -3.537694   -0.638756    0.011178
     13          1           0       -0.830269   -2.037065   -0.458680
     14          1           0       -1.624784   -0.974196   -1.602059
     15          1           0       -0.587805   -0.113270    1.142225
     16          1           0       -1.496460    1.532072   -1.259252
     17          1           0       -2.433006    1.318459    0.215737
     18          1           0        0.327780    2.658607    0.065289
     19          1           0       -0.622086    2.461924    1.547712
     20          1           0       -1.213768    3.507255    0.251473
     21          1           0        1.613161    0.422575    1.206589
     22          1           0        1.933736   -2.245233   -0.274251
     23          1           0        0.975813   -1.996130    1.198617
     24          1           0        2.731623   -1.806641    1.251541
     25          1           0        3.039824   -0.198488   -1.433707
     26          1           0        3.843124    0.210465    0.096331
     27          1           0        2.823843    1.411349   -0.726378
 ---------------------------------------------------------------------

 SCF Done:  E(RB3LYP) =  -390.954497313     A.U. after    1 cycles

 The electronic state is 1-A.
 Alpha  occ. eigenvalues --  -19.12401 -10.22800 -10.22219 -10.17274 -10.17249
 Alpha  occ. eigenvalues --  -10.17217 -10.17037 -10.16827 -10.16678  -1.01695
 Alpha  occ. eigenvalues --   -0.80046  -0.75763  -0.74446  -0.68568  -0.66459
 Alpha  occ. eigenvalues --   -0.60755  -0.57824  -0.56156  -0.49601  -0.45631
 Alpha  occ. eigenvalues --   -0.44861  -0.43413  -0.42752  -0.41923  -0.39263
 Alpha  occ. eigenvalues --   -0.38916  -0.38185  -0.36926  -0.36311  -0.35512
 Alpha  occ. eigenvalues --   -0.35057  -0.34513  -0.33422  -0.31957  -0.31276
 Alpha  occ. eigenvalues --   -0.29539  -0.23966
 Alpha virt. eigenvalues --    0.08166   0.09529   0.10780   0.11820   0.12829
 Alpha virt. eigenvalues --    0.14331   0.14645   0.15381   0.16231   0.16923
 Alpha virt. eigenvalues --    0.17362   0.17931   0.18409   0.18657   0.19051

 Mulliken charges:
               1
     1  C   -0.389052
     2  C   -0.182734
     3  C    0.132163
     4  C   -0.165348
     5  C   -0.389243
     6  O   -0.278861
     7  C    0.154318
     8  C   -0.387909
     9  C   -0.391941
    10  H    0.111694
    11  H    0.114012
    12  H    0.120071
    13  H    0.096940
    14  H    0.099664
    15  H    0.061165
    16  H    0.100467
    17  H    0.092758
    18  H    0.128724
    19  H    0.106618
    20  H    0.108282
    21  H    0.064391
    22  H    0.119701
    23  H    0.114060
    24  H    0.109140
    25  H    0.121512
    26  H    0.109362
    27  H    0.120045
 Sum of Mulliken charges =  -0.00000

 Dipole moment (field-independent basis, Debye):
    X=             -0.0749    Y=             -0.3143    Z=              0.8839  Tot=              0.9411
 Quadrupole moment (field-independent basis, Debye-Ang):
   XX=            -57.3872   YY=            -59.4624   ZZ=            -59.7397
   XY=             -0.4842   XZ=              1.0524   YZ=             -0.0007

  Exact polarizability: 104.807   0.776  95.317   0.810  -0.147  80.106
 Approx polarizability: 130.053  -0.805 123.675   1.097  -0.411 125.016

                      1                      2                      3
                      A                      A                      A
 Frequencies --     45.3730                58.7007                81.0751
 Red. masses --      2.8419                 2.6034                 2.2446
 Frc consts  --      0.0034                 0.0053                 0.0087
 IR Inten    --      0.3963                 0.0909                 0.6489

                      4                      5                      6
                      A                      A                      A
 Frequencies --    100.8328               171.8916               202.6026
 Red. masses --      1.8519                 1.7122                 1.8387
 Frc consts  --      0.0111                 0.0298                 0.0445
 IR Inten    --      0.1072                 0.2388                 0.2854

                      7                      8                      9
                      A                      A                      A
 Frequencies --    216.4767               242.9617               247.1214
 Red. masses --      1.0430                 1.5298                 1.1923
 Frc consts  --      0.0288                 0.0532                 0.0429
 IR Inten    --      0.0743                 0.3779                 0.0736

                     10                     11                     12
                      A                      A                      A
 Frequencies --    263.7066               293.9423               325.3514
 Red. masses --      1.3590                 2.1267                 2.6556
 Frc consts  --      0.0557                 0.1083                 0.1656
 IR Inten    --      0.4152                 2.1169                 0.6018

                     13                     14                     15
                      A                      A                      A
 Frequencies --    357.4610               436.6845               472.5142
 Red. masses --      2.2436                 2.3616                 3.1132
 Frc consts  --      0.1689                 0.2653                 0.4095
 IR Inten    --      0.2373                 0.9712                 2.5309

                     16                     17                     18
                      A                      A                      A
 Frequencies --    493.3780               525.3540               757.3171
 Red. masses --      2.6287                 2.6151                 1.4663
 Frc consts  --      0.3770                 0.4253                 0.4955
 IR Inten    --      4.0357                 1.8325                 0.4722

                     19                     20                     21
                      A                      A                      A
 Frequencies --    770.0997               831.8866               868.8177
 Red. masses --      1.2262                 2.3073                 1.5041
 Frc consts  --      0.4285                 0.9408                 0.6689
 IR Inten    --      2.2146                 0.8611                 3.9378

                     22                     23                     24
                      A                      A                      A
 Frequencies --    921.0326               924.8770               929.1845
 Red. masses --      1.8059                 1.3347                 1.7545
 Frc consts  --      0.9026                 0.6727                 0.8925
 IR Inten    --      3.8628                 2.2003                 8.5605

                     25                     26                     27
                      A                      A                      A
 Frequencies --    943.5018              1016.6472              1024.6108
 Red. masses --      1.4828                 1.2556                 2.0440
 Frc consts  --      0.7777                 0.7646                 1.2643
 IR Inten    --      0.9581                 0.3113                26.9517

                     28                     29                     30
                      A                      A                      A
 Frequencies --   1045.1883              1068.2013              1128.9652
 Red. masses --      2.7391                 2.9560                 2.1482
 Frc consts  --      1.7630                 1.9873                 1.6132
 IR Inten    --      4.1599                68.8897                43.7750

                     31                     32                     33
                      A                      A                      A
 Frequencies --   1137.5603              1147.0840              1167.4386
 Red. masses --      2.1518                 2.2278                 2.1341
 Frc consts  --      1.6406                 1.7271                 1.7137
 IR Inten    --     11.5512                60.0666                24.5482

                     34                     35                     36
                      A                      A                      A
 Frequencies --   1190.7388              1208.0040              1271.7983
 Red. masses --      2.0915                 2.1251                 1.2934
 Frc consts  --      1.7472                 1.8271                 1.2326
 IR Inten    --     54.4446                 2.3753                 3.6285

                     37                     38                     39
                      A                      A                      A
 Frequencies --   1306.5994              1329.8068              1340.2812
 Red. masses --      1.1909                 1.2098                 1.2641
 Frc consts  --      1.1979                 1.2605                 1.3379
 IR Inten    --      2.3100                 6.3250                22.3663

                     40                     41                     42
                      A                      A                      A
 Frequencies --   1362.8008              1371.9953              1389.3899
 Red. masses --      1.3561                 1.2663                 1.5573
 Frc consts  --      1.4839                 1.4044                 1.7712
 IR Inten    --     13.9377                15.1090                 1.5462

                     43                     44                     45
                      A                      A                      A
 Frequencies --   1396.2523              1402.2565              1410.5027
 Red. masses --      1.3454                 1.2481                 1.2372
 Frc consts  --      1.5454                 1.4460                 1.4503
 IR Inten    --     15.1333                 2.4112                12.4380

                     46                     47                     48
                      A                      A                      A
 Frequencies --   1413.2323              1420.7961              1474.9279
 Red. masses --      1.2324                 1.3283                 1.0765
 Frc consts  --      1.4502                 1.5798                 1.3798
 IR Inten    --      1.2650                 5.4561                 0.6098

                     49                     50                     51
                      A                      A                      A
 Frequencies --   1478.7769              1484.6158              1487.4949
 Red. masses --      1.0493                 1.0546                 1.0590
 Frc consts  --      1.3519                 1.3695                 1.3805
 IR Inten    --      0.7013                 0.7126                 3.0908

                     52                     53                     54
                      A                      A                      A
 Frequencies --   1494.8784              1496.8975              1501.6515
 Red. masses --      1.0509                 1.0465                 1.0480
 Frc consts  --      1.3837                 1.3815                 1.3924
 IR Inten    --      3.7799                 2.7071                 3.0337

                     55                     56                     57
                      A                      A                      A
 Frequencies --   1507.5497              1510.1705              1511.4854
 Red. masses --      1.0565                 1.0539                 1.0631
 Frc consts  --      1.4147                 1.4161                 1.4309
 IR Inten    --      7.2173                 5.7027                 2.1950

                     58                     59                     60
                      A                      A                      A
 Frequencies --   2956.8580              2968.4527              3026.6426
 Red. masses --      1.0824                 1.0817                 1.0595
 Frc consts  --      5.5757                 5.6157                 5.7181
 IR Inten    --     15.5602                41.9392                10.5682

                     61                     62                     63
                      A                      A                      A
 Frequencies --   3031.4359              3032.0296              3032.1689
 Red. masses --      1.0408                 1.0371                 1.0372
 Frc consts  --      5.6355                 5.6176                 5.6187
 IR Inten    --     21.1583                16.0715                40.6481

                     64                     65                     66
                      A                      A                      A
 Frequencies --   3034.6521              3040.7252              3066.9896
 Red. masses --      1.0589                 1.0351                 1.0987
 Frc consts  --      5.7453                 5.6387                 6.0891
 IR Inten    --     24.5637                15.3729                21.1176

                     67                     68                     69
                      A                      A                      A
 Frequencies --   3073.0234              3095.9304              3096.7465
 Red. masses --      1.0982                 1.1002                 1.1002
 Frc consts  --      6.1102                 6.2132                 6.2162
 IR Inten    --     10.1571                19.8531                68.4555

                     70                     71                     72
                      A                      A                      A
 Frequencies --   3102.8378              3108.5053              3109.7063
 Red. masses --      1.1012                 1.1012                 1.1013
 Frc consts  --      6.2467                 6.2692                 6.2749
 IR Inten    --     14.8670                29.9140                26.5546

                     73                     74                     75
                      A                      A                      A
 Frequencies --   3114.2568              3117.8627              3119.6525
 Red. masses --      1.1014                 1.1007                 1.1019
 Frc consts  --      6.2935                 6.3040                 6.3185
 IR Inten    --     44.7468                43.1673                24.5571

 - Thermochemistry -
 -------------------
 Temperature   298.150 Kelvin.  Pressure   1.00000 Atm.
 Atom     1 has atomic number  6 and mass  12.00000

 Molecular mass:   130.13577 amu.
 Principal axes and moments of inertia in atomic units:
                           1         2         3
     Eigenvalues --   974.362641678.867982388.22944
           X            0.99999   0.00430  -0.00029
           Y           -0.00430   0.99999  -0.00013
           Z            0.00029   0.00014   1.00000
 This molecule is an asymmetric top.
 Rotational symmetry number  1.
 Warning -- assumption of classical behavior for rotation
           may cause significant error
 Rotational temperatures (Kelvin)      0.08889     0.05159     0.03627
 Rotational constants (GHZ):           1.85223     1.07498     0.75568
 Zero-point vibrational energy     652618.1 (Joules/Mol)
                                  155.97946 (Kcal/Mol)
 Warning -- explicit consideration of  17 degrees of freedom as
           vibrations may cause significant error
 Vibrational temperatures:     65.28    84.46   116.65   145.08   247.31
          (Kelvin)            291.50   311.46   349.57   355.55   379.41
                              422.92   468.11   514.31   628.29   679.84
                              709.86   755.87  1089.61  1108.00  1196.90
                             1250.03  1325.16  1330.69  1336.89  1357.49
                             1462.73  1474.19  1503.79  1536.90  1624.33
                             1636.70  1650.40  1679.68  1713.21  1738.05
                             1829.83  1879.91  1913.30  1928.37  1960.77
                             1974.00  1999.02  2008.90  2017.53  2029.40
                             2033.33  2044.21  2122.09  2127.63  2136.03
                             2140.17  2150.80  2153.70  2160.54  2169.03
                             2172.80  2174.69  4254.26  4270.94  4354.66
                             4361.56  4362.41  4362.61  4366.19  4374.93
                             4412.71  4421.40  4454.35  4455.53  4464.29
                             4472.45  4474.17  4480.72  4485.91  4488.48

 Zero-point correction=                           0.248569 (Hartree/Particle)
 Thermal correction to Energy=                    0.260747
 Thermal correction to Enthalpy=                  0.261691
 Thermal correction to Gibbs Free Energy=         0.210495
 Sum of electronic and zero-point Energies=           -390.705928
 Sum of electronic and thermal Energies=              -390.693750
 Sum of electronic and thermal Enthalpies=            -390.692806
 Sum of electronic and thermal Free Energies=         -390.744002

                     E (Thermal)             CV                S
                      KCal/Mol        Cal/Mol-Kelvin    Cal/Mol-Kelvin
 Total                  163.621             44.009            107.751
 Electronic               0.000              0.000              0.000
 Translational            0.889              2.981             40.503
 Rotational               0.889              2.981             29.748
 Vibrational            161.844             38.048             37.501
 Vibration     1          0.595              1.979              5.010
 Vibration     2          0.596              1.974              4.500
 Vibration     3          0.600              1.962              3.865
 Vibration     4          0.604              1.948              3.438
 Vibration     5          0.626              1.877              2.415
 Vibration     6          0.639              1.836              2.109
 Vibration     7          0.645              1.816              1.988
 Vibration     8          0.659              1.774              1.781
 Vibration     9          0.661              1.768              1.751
 Vibration    10          0.670              1.739              1.637
 Vibration    11          0.689              1.685              1.451
 Vibration    12          0.709              1.625              1.283
 Vibration    13          0.733              1.560              1.133
 Vibration    14          0.797              1.390              0.837
 Vibration    15          0.829              1.311              0.731
 Vibration    16          0.849              1.265              0.675
 Vibration    17          0.880              1.194              0.598

 Optimization completed.
    -- Stationary point found.
 Normal termination of Gaussian 16 at Sun Feb 28 02:09:00 2021.
