 Gaussian 16, Revision A.03,
 Gaussian 16:  ES64L-G16RevA.03 25-Dec-2016

 -----------------------------
 # opt freq b3lyp/6-31g(2df,p)
 -----------------------------

 -----
 Title
 -----
 Symbolic Z-matrix:
 Charge =  0 Multiplicity = 1

 SCF Done:  E(RB3LYP) =  -352.574242726     A.U. after   13 cycles
 SCF Done:  E(RB3LYP) =  -352.576956517     A.U. after   11 cycles
 SCF Done:  E(RB3LYP) =  -352.576556492     A.U. after   11 cycles
 SCF Done:  E(RB3LYP) =  -352.578591524     A.U. after   10 cycles
 SCF Done:  E(RB3LYP) =  -352.578288193     A.U. after   10 cycles
 SCF Done:  E(RB3LYP) =  -352.578630886     A.U. after   10 cycles
 SCF Done:  E(RB3LYP) =  -352.578633810     A.U. after    8 cycles
 SCF Done:  E(RB3LYP) =  -352.578634135     A.U. after    7 cycles
 SCF Done:  E(RB3LYP) =  -352.578634185     A.U. after    6 cycles
 SCF Done:  E(RB3LYP) =  -352.578634223     A.U. after    5 cycles
 SCF Done:  E(RB3LYP) =  -352.578642898     A.U. after   10 cycles
 SCF Done:  E(RB3LYP) =  -352.578645079     A.U. after   10 cycles
 SCF Done:  E(RB3LYP) =  -352.578623247     A.U. after   13 cycles
 SCF Done:  E(RB3LYP) =  -352.578647144     A.U. after   11 cycles
 SCF Done:  E(RB3LYP) =  -352.578649838     A.U. after   10 cycles
 SCF Done:  E(RB3LYP) =  -352.578648941     A.U. after   10 cycles
 SCF Done:  E(RB3LYP) =  -352.578650079     A.U. after    9 cycles
 SCF Done:  E(RB3LYP) =  -352.578649368     A.U. after    8 cycles
 SCF Done:  E(RB3LYP) =  -352.578649493     A.U. after    7 cycles
 Optimization completed on the basis of negligible forces.
    -- Stationary point found.
 Normal termination of Gaussian 16 at Sun Feb 28 03:13:35 2021.

 ----------------------------------------------------------------------
 #N Geom=AllCheck Guess=TCheck SCRF=Check GenChk RB3LYP/6-31G(2df,p) Fr
 eq
 ----------------------------------------------------------------------

 Structure from the checkpoint file:  "CCCtCCCpCppCpC.chk"
 -----
 Title
 -----
 Charge =  0 Multiplicity = 1

                         Standard orientation:
 ---------------------------------------------------------------------
 Center     Atomic      Atomic             Coordinates (Angstroms)
 Number     Number       Type             X           Y           Z
 ---------------------------------------------------------------------
      1          6           0        3.887140    0.774071   -0.071620
      2          6           0        3.155331   -0.532347    0.286201
      3          6           0        1.760009   -0.546160   -0.143731
      4          6           0        0.613911   -0.540496   -0.517709
      5          6           0       -0.776748   -0.539015   -0.961151
      6          6           0       -1.789187    0.084250    0.045372
      7          6           0       -1.765844   -0.703402    1.365655
      8          6           0       -1.427628    1.555633    0.306817
      9          6           0       -3.191094    0.000107   -0.581843
     10          1           0        4.926413    0.736826    0.268921
     11          1           0        3.400694    1.632972    0.398910
     12          1           0        3.884056    0.937062   -1.152832
     13          1           0        3.205671   -0.693265    1.370970
     14          1           0        3.683797   -1.381907   -0.165804
     15          1           0       -1.088408   -1.570250   -1.176712
     16          1           0       -0.852076    0.003761   -1.913381
     17          1           0       -0.769986   -0.682727    1.817581
     18          1           0       -2.040352   -1.752220    1.205095
     19          1           0       -2.475796   -0.278727    2.083493
     20          1           0       -0.420235    1.643863    0.723665
     21          1           0       -2.131074    2.008611    1.013654
     22          1           0       -1.460848    2.141254   -0.618999
     23          1           0       -3.475799   -1.038920   -0.782561
     24          1           0       -3.237498    0.549989   -1.528627
     25          1           0       -3.943907    0.427844    0.088676
 ---------------------------------------------------------------------

 SCF Done:  E(RB3LYP) =  -352.578649493     A.U. after    1 cycles

 The electronic state is 1-A.
 Alpha  occ. eigenvalues --  -10.20187 -10.19495 -10.19473 -10.17817 -10.16962
 Alpha  occ. eigenvalues --  -10.16480 -10.16472 -10.16339 -10.16095  -0.82452
 Alpha  occ. eigenvalues --   -0.78763  -0.73653  -0.68198  -0.67767  -0.67748
 Alpha  occ. eigenvalues --   -0.62543  -0.53663  -0.48141  -0.45339  -0.45221
 Alpha  occ. eigenvalues --   -0.45042  -0.44594  -0.40947  -0.40508  -0.38913
 Alpha  occ. eigenvalues --   -0.37339  -0.36575  -0.36420  -0.35788  -0.35727
 Alpha  occ. eigenvalues --   -0.32915  -0.31975  -0.31957  -0.24075  -0.24025
 Alpha virt. eigenvalues --    0.05740   0.06193   0.08780   0.10944   0.13880
 Alpha virt. eigenvalues --    0.14091   0.14464   0.14961   0.15640   0.16373
 Alpha virt. eigenvalues --    0.16654   0.17182   0.17764   0.18358   0.19314

 Mulliken charges:
               1
     1  C   -0.362562
     2  C   -0.315542
     3  C    0.119528
     4  C    0.016029
     5  C   -0.364770
     6  C    0.267893
     7  C   -0.398254
     8  C   -0.398182
     9  C   -0.404502
    10  H    0.111803
    11  H    0.125928
    12  H    0.126676
    13  H    0.125501
    14  H    0.126262
    15  H    0.117258
    16  H    0.116928
    17  H    0.123383
    18  H    0.104901
    19  H    0.105665
    20  H    0.122317
    21  H    0.105740
    22  H    0.104703
    23  H    0.107360
    24  H    0.107282
    25  H    0.108658
 Sum of Mulliken charges =  -0.00000

 Dipole moment (field-independent basis, Debye):
    X=              0.1375    Y=              0.0647    Z=              0.0506  Tot=              0.1602
 Quadrupole moment (field-independent basis, Debye-Ang):
   XX=            -53.0742   YY=            -58.4755   ZZ=            -57.5927
   XY=             -0.1358   XZ=              1.4316   YZ=              0.1323

  Exact polarizability: 130.746   0.376  82.810   6.628  -0.221  82.470
 Approx polarizability: 171.172  -0.717 117.771  14.920   0.472 122.727

                      1                      2                      3
                      A                      A                      A
 Frequencies --      5.1922                56.7788                85.1979
 Red. masses --      2.2615                 2.8745                 2.6418
 Frc consts  --      0.0000                 0.0055                 0.0113
 IR Inten    --      0.0013                 0.2277                 0.5948

                      4                      5                      6
                      A                      A                      A
 Frequencies --    139.0001               204.5016               213.2589
 Red. masses --      2.8362                 1.4732                 1.0566
 Frc consts  --      0.0323                 0.0363                 0.0283
 IR Inten    --      1.3634                 1.4365                 0.0216

                      7                      8                      9
                      A                      A                      A
 Frequencies --    262.5777               266.2770               282.7810
 Red. masses --      1.1200                 1.0347                 1.8622
 Frc consts  --      0.0455                 0.0432                 0.0877
 IR Inten    --      0.8609                 0.0693                 1.3604

                     10                     11                     12
                      A                      A                      A
 Frequencies --    302.1685               320.0932               334.3972
 Red. masses --      2.7556                 2.5096                 2.1244
 Frc consts  --      0.1482                 0.1515                 0.1400
 IR Inten    --      2.9312                 0.7960                 1.6825

                     13                     14                     15
                      A                      A                      A
 Frequencies --    389.3664               404.1728               406.3584
 Red. masses --      2.4004                 2.0296                 3.0417
 Frc consts  --      0.2144                 0.1953                 0.2959
 IR Inten    --      0.4338                 0.0061                 0.1239

                     16                     17                     18
                      A                      A                      A
 Frequencies --    493.1855               542.2819               744.4062
 Red. masses --      3.6885                 3.8329                 3.7374
 Frc consts  --      0.5286                 0.6641                 1.2202
 IR Inten    --      0.9231                 1.1434                 0.6140

                     19                     20                     21
                      A                      A                      A
 Frequencies --    755.6948               784.7335               893.7253
 Red. masses --      3.1298                 1.1735                 1.8056
 Frc consts  --      1.0531                 0.4258                 0.8497
 IR Inten    --      0.0078                 1.5671                 0.1966

                     22                     23                     24
                      A                      A                      A
 Frequencies --    903.2405               939.4441               941.5313
 Red. masses --      2.2680                 1.6509                 1.5469
 Frc consts  --      1.0902                 0.8584                 0.8080
 IR Inten    --      1.8605                 0.6235                 0.1203

                     25                     26                     27
                      A                      A                      A
 Frequencies --    962.1673               967.2829              1048.6182
 Red. masses --      1.2050                 2.3217                 1.4461
 Frc consts  --      0.6572                 1.2798                 0.9369
 IR Inten    --      0.0189                 0.1823                 0.1413

                     28                     29                     30
                      A                      A                      A
 Frequencies --   1060.6972              1079.4788              1104.1007
 Red. masses --      1.4451                 1.9090                 1.4709
 Frc consts  --      0.9579                 1.3106                 1.0565
 IR Inten    --      0.0081                 2.6720                 0.4044

                     31                     32                     33
                      A                      A                      A
 Frequencies --   1164.9362              1184.5530              1229.2062
 Red. masses --      2.6759                 1.3839                 2.2496
 Frc consts  --      2.1396                 1.1441                 2.0026
 IR Inten    --      0.2671                 1.3164                15.9988

                     34                     35                     36
                      A                      A                      A
 Frequencies --   1261.3902              1286.4844              1307.7740
 Red. masses --      2.6775                 1.1494                 1.7136
 Frc consts  --      2.5100                 1.1208                 1.7268
 IR Inten    --     15.3691                 0.0433                 1.7242

                     37                     38                     39
                      A                      A                      A
 Frequencies --   1342.7902              1352.0641              1398.6793
 Red. masses --      1.5228                 1.5881                 1.2449
 Frc consts  --      1.6177                 1.7105                 1.4349
 IR Inten    --      1.1046                32.3528                 5.5982

                     40                     41                     42
                      A                      A                      A
 Frequencies --   1398.9374              1407.8785              1430.1885
 Red. masses --      1.2421                 1.2140                 1.2292
 Frc consts  --      1.4322                 1.4178                 1.4813
 IR Inten    --      4.5718                 0.8818                 6.0879

                     43                     44                     45
                      A                      A                      A
 Frequencies --   1465.6758              1475.8764              1478.4871
 Red. masses --      1.0881                 1.0717                 1.0475
 Frc consts  --      1.3772                 1.3754                 1.3491
 IR Inten    --      2.3810                 2.7150                 0.1696

                     46                     47                     48
                      A                      A                      A
 Frequencies --   1486.0447              1488.1784              1494.4276
 Red. masses --      1.0454                 1.0445                 1.0400
 Frc consts  --      1.3602                 1.3629                 1.3685
 IR Inten    --      0.1425                 0.0469                 4.4328

                     49                     50                     51
                      A                      A                      A
 Frequencies --   1505.1400              1505.3708              1505.8797
 Red. masses --      1.0588                 1.0588                 1.0595
 Frc consts  --      1.4132                 1.4137                 1.4156
 IR Inten    --      2.1082                 4.3804                 3.2895

                     52                     53                     54
                      A                      A                      A
 Frequencies --   1517.9031              2360.2587              3003.5498
 Red. masses --      1.0596                11.8480                 1.0577
 Frc consts  --      1.4383                38.8878                 5.6218
 IR Inten    --      8.5844                 0.0322                27.1197

                     55                     56                     57
                      A                      A                      A
 Frequencies --   3016.0867              3021.0960              3024.8362
 Red. masses --      1.0588                 1.0349                 1.0354
 Frc consts  --      5.6749                 5.5651                 5.5817
 IR Inten    --     30.6347                29.1969                34.9691

                     58                     59                     60
                      A                      A                      A
 Frequencies --   3031.8994              3034.8523              3042.0706
 Red. masses --      1.0371                 1.1013                 1.0796
 Frc consts  --      5.6168                 5.9762                 5.8863
 IR Inten    --     14.3183                15.3865                17.9198

                     61                     62                     63
                      A                      A                      A
 Frequencies --   3042.1945              3087.2039              3090.6197
 Red. masses --      1.0541                 1.1016                 1.1011
 Frc consts  --      5.7476                 6.1861                 6.1969
 IR Inten    --     23.4816                 2.2842                 5.7717

                     64                     65                     66
                      A                      A                      A
 Frequencies --   3091.5495              3097.1713              3108.0181
 Red. masses --      1.1011                 1.1003                 1.1008
 Frc consts  --      6.2004                 6.2187                 6.2653
 IR Inten    --     45.9592                65.9483                 2.5130

                     67                     68                     69
                      A                      A                      A
 Frequencies --   3112.0148              3114.9078              3121.4367
 Red. masses --      1.1001                 1.1019                 1.1028
 Frc consts  --      6.2772                 6.2993                 6.3308
 IR Inten    --     52.1355                30.3814                26.0395

 - Thermochemistry -
 -------------------
 Temperature   298.150 Kelvin.  Pressure   1.00000 Atm.
 Atom     1 has atomic number  6 and mass  12.00000

 Molecular mass:   124.12520 amu.
 Principal axes and moments of inertia in atomic units:
                           1         2         3
     Eigenvalues --   527.195282755.148662812.60071
           X            0.99998   0.00650   0.00207
           Y           -0.00635   0.99771  -0.06733
           Z           -0.00250   0.06732   0.99773
 This molecule is an asymmetric top.
 Rotational symmetry number  1.
 Warning -- assumption of classical behavior for rotation
           may cause significant error
 Rotational temperatures (Kelvin)      0.16429     0.03144     0.03079
 Rotational constants (GHZ):           3.42329     0.65504     0.64166
 Zero-point vibrational energy     592033.9 (Joules/Mol)
                                  141.49950 (Kcal/Mol)
 Warning -- explicit consideration of  17 degrees of freedom as
           vibrations may cause significant error
 Vibrational temperatures:      7.47    81.69   122.58   199.99   294.23
          (Kelvin)            306.83   377.79   383.11   406.86   434.75
                              460.54   481.12   560.21   581.51   584.66
                              709.58   780.22  1071.03  1087.28  1129.06
                             1285.87  1299.56  1351.65  1354.65  1384.34
                             1391.70  1508.73  1526.11  1553.13  1588.55
                             1676.08  1704.31  1768.55  1814.86  1850.96
                             1881.60  1931.98  1945.32  2012.39  2012.76
                             2025.62  2057.72  2108.78  2123.46  2127.21
                             2138.09  2141.16  2150.15  2165.56  2165.89
                             2166.63  2183.92  3395.89  4321.44  4339.48
                             4346.68  4352.06  4362.23  4366.48  4376.86
                             4377.04  4441.80  4446.71  4448.05  4456.14
                             4471.74  4477.50  4481.66  4491.05

 Zero-point correction=                           0.225494 (Hartree/Particle)
 Thermal correction to Energy=                    0.237373
 Thermal correction to Enthalpy=                  0.238317
 Thermal correction to Gibbs Free Energy=         0.186159
 Sum of electronic and zero-point Energies=           -352.353156
 Sum of electronic and thermal Energies=              -352.341277
 Sum of electronic and thermal Enthalpies=            -352.340333
 Sum of electronic and thermal Free Energies=         -352.392491

                     E (Thermal)             CV                S
                      KCal/Mol        Cal/Mol-Kelvin    Cal/Mol-Kelvin
 Total                  148.954             43.014            109.777
 Electronic               0.000              0.000              0.000
 Translational            0.889              2.981             40.362
 Rotational               0.889              2.981             29.792
 Vibrational            147.176             37.053             39.622
 Vibration     1          0.593              1.987              9.313
 Vibration     2          0.596              1.975              4.566
 Vibration     3          0.601              1.959              3.767
 Vibration     4          0.615              1.914              2.818
 Vibration     5          0.640              1.833              2.092
 Vibration     6          0.644              1.821              2.016
 Vibration     7          0.670              1.741              1.645
 Vibration     8          0.672              1.735              1.620
 Vibration     9          0.682              1.706              1.517
 Vibration    10          0.694              1.670              1.405
 Vibration    11          0.706              1.635              1.310
 Vibration    12          0.716              1.607              1.239
 Vibration    13          0.757              1.493              1.003
 Vibration    14          0.769              1.461              0.947
 Vibration    15          0.771              1.456              0.940
 Vibration    16          0.849              1.265              0.675
 Vibration    17          0.897              1.157              0.560

 Optimization completed on the basis of negligible forces.
    -- Stationary point found.
 Normal termination of Gaussian 16 at Sun Feb 28 03:48:57 2021.
