 Gaussian 16, Revision A.03,
 Gaussian 16:  ES64L-G16RevA.03 25-Dec-2016

 -----------------------------
 # opt freq b3lyp/6-31g(2df,p)
 -----------------------------

 -----
 Title
 -----
 Symbolic Z-matrix:
 Charge =  0 Multiplicity = 1

 SCF Done:  E(RB3LYP) =  -390.945106635     A.U. after   12 cycles
 SCF Done:  E(RB3LYP) =  -390.950395060     A.U. after   10 cycles
 SCF Done:  E(RB3LYP) =  -390.949992549     A.U. after   10 cycles
 SCF Done:  E(RB3LYP) =  -390.950971981     A.U. after    9 cycles
 SCF Done:  E(RB3LYP) =  -390.951112793     A.U. after    9 cycles
 SCF Done:  E(RB3LYP) =  -390.951162198     A.U. after    9 cycles
 SCF Done:  E(RB3LYP) =  -390.951193741     A.U. after    9 cycles
 SCF Done:  E(RB3LYP) =  -390.951302608     A.U. after   10 cycles
 SCF Done:  E(RB3LYP) =  -390.951323237     A.U. after    9 cycles
 SCF Done:  E(RB3LYP) =  -390.951225991     A.U. after   10 cycles
 SCF Done:  E(RB3LYP) =  -390.952143868     A.U. after    9 cycles
 SCF Done:  E(RB3LYP) =  -390.952138843     A.U. after    9 cycles
 SCF Done:  E(RB3LYP) =  -390.952151219     A.U. after    9 cycles
 SCF Done:  E(RB3LYP) =  -390.952148737     A.U. after    9 cycles
 SCF Done:  E(RB3LYP) =  -390.952154800     A.U. after    8 cycles
 SCF Done:  E(RB3LYP) =  -390.952144035     A.U. after    6 cycles
 SCF Done:  E(RB3LYP) =  -390.952137828     A.U. after    9 cycles
 SCF Done:  E(RB3LYP) =  -390.952139552     A.U. after    9 cycles
 SCF Done:  E(RB3LYP) =  -390.952145333     A.U. after    7 cycles
 Optimization completed.
    -- Stationary point found.
 Normal termination of Gaussian 16 at Sun Feb 28 03:15:16 2021.

 ----------------------------------------------------------------------
 #N Geom=AllCheck Guess=TCheck SCRF=Check GenChk RB3LYP/6-31G(2df,p) Fr
 eq
 ----------------------------------------------------------------------

 Structure from the checkpoint file:  "CCpCpCpOpCpCppCpC.chk"
 -----
 Title
 -----
 Charge =  0 Multiplicity = 1

                         Standard orientation:
 ---------------------------------------------------------------------
 Center     Atomic      Atomic             Coordinates (Angstroms)
 Number     Number       Type             X           Y           Z
 ---------------------------------------------------------------------
      1          6           0        2.530626   -0.767311    0.810040
      2          6           0        1.412511    0.219084    0.430545
      3          6           0        1.946569    1.223958   -0.604290
      4          6           0        0.168125   -0.575976   -0.040226
      5          8           0        0.405825   -0.926047   -1.404767
      6          6           0       -1.239489    0.073789    0.158328
      7          6           0       -1.509435    0.279768    1.660595
      8          6           0       -1.393902    1.407737   -0.591798
      9          6           0       -2.293470   -0.916073   -0.384787
     10          1           0        3.434958   -0.236610    1.124832
     11          1           0        2.789188   -1.395154   -0.049131
     12          1           0        2.225536   -1.425595    1.630555
     13          1           0        1.133635    0.770342    1.335665
     14          1           0        2.828879    1.732871   -0.202053
     15          1           0        1.215945    1.988931   -0.871366
     16          1           0        2.239659    0.709049   -1.522107
     17          1           0        0.141913   -1.498359    0.564883
     18          1           0       -0.178377   -1.653238   -1.634364
     19          1           0       -0.840848    1.023895    2.102691
     20          1           0       -1.390516   -0.654847    2.221159
     21          1           0       -2.535192    0.630238    1.817903
     22          1           0       -0.806671    2.205669   -0.129021
     23          1           0       -2.441316    1.729503   -0.584902
     24          1           0       -1.076622    1.304882   -1.633211
     25          1           0       -2.191330   -1.906391    0.076093
     26          1           0       -2.219993   -1.030067   -1.471308
     27          1           0       -3.304660   -0.556599   -0.168620
 ---------------------------------------------------------------------

 SCF Done:  E(RB3LYP) =  -390.952145333     A.U. after    1 cycles

 The electronic state is 1-A.
 Alpha  occ. eigenvalues --  -19.13115 -10.22243 -10.19114 -10.17953 -10.17410
 Alpha  occ. eigenvalues --  -10.17121 -10.16507 -10.16370 -10.15840  -1.01273
 Alpha  occ. eigenvalues --   -0.81524  -0.77948  -0.68408  -0.68336  -0.66901
 Alpha  occ. eigenvalues --   -0.66196  -0.56311  -0.53688  -0.50310  -0.46406
 Alpha  occ. eigenvalues --   -0.44149  -0.42872  -0.42691  -0.41802  -0.39232
 Alpha  occ. eigenvalues --   -0.38397  -0.37465  -0.36952  -0.36307  -0.35377
 Alpha  occ. eigenvalues --   -0.34983  -0.33191  -0.32357  -0.31982  -0.31406
 Alpha  occ. eigenvalues --   -0.29694  -0.25664
 Alpha virt. eigenvalues --    0.06147   0.09970   0.11595   0.11889   0.12843
 Alpha virt. eigenvalues --    0.13647   0.14910   0.15505   0.16106   0.17308
 Alpha virt. eigenvalues --    0.17533   0.18023   0.18734   0.19766   0.20275

 Mulliken charges:
               1
     1  C   -0.390847
     2  C    0.022952
     3  C   -0.383812
     4  C    0.113340
     5  O   -0.441659
     6  C    0.252522
     7  C   -0.414258
     8  C   -0.410181
     9  C   -0.433676
    10  H    0.104822
    11  H    0.124706
    12  H    0.102925
    13  H    0.070804
    14  H    0.099968
    15  H    0.110759
    16  H    0.132346
    17  H    0.053612
    18  H    0.283751
    19  H    0.116854
    20  H    0.107337
    21  H    0.109749
    22  H    0.113000
    23  H    0.101093
    24  H    0.125272
    25  H    0.104759
    26  H    0.109990
    27  H    0.113873
 Sum of Mulliken charges =  -0.00000

 Dipole moment (field-independent basis, Debye):
    X=             -1.0471    Y=             -0.6286    Z=              0.6157  Tot=              1.3677
 Quadrupole moment (field-independent basis, Debye-Ang):
   XX=            -60.0033   YY=            -57.6588   ZZ=            -60.5979
   XY=              1.2646   XZ=              1.6225   YZ=              1.4417

  Exact polarizability: 101.656   1.438  87.375   0.975  -0.927  85.923
 Approx polarizability: 129.827   1.630 126.924  -0.396   0.950 127.304

                      1                      2                      3
                      A                      A                      A
 Frequencies --     34.0111                90.4947               194.0004
 Red. masses --      2.4661                 2.8980                 1.5725
 Frc consts  --      0.0017                 0.0140                 0.0349
 IR Inten    --      0.0262                 0.1524                 0.0288

                      4                      5                      6
                      A                      A                      A
 Frequencies --    199.8414               214.5213               241.5049
 Red. masses --      1.3279                 1.1915                 1.4359
 Frc consts  --      0.0312                 0.0323                 0.0493
 IR Inten    --      0.6490                 1.6166                14.8897

                      7                      8                      9
                      A                      A                      A
 Frequencies --    245.9620               263.8153               286.9532
 Red. masses --      1.3389                 1.3501                 1.6221
 Frc consts  --      0.0477                 0.0554                 0.0787
 IR Inten    --      2.7776                 1.9463                40.7961

                     10                     11                     12
                      A                      A                      A
 Frequencies --    289.2432               305.3268               323.2328
 Red. masses --      2.1907                 1.4739                 2.0486
 Frc consts  --      0.1080                 0.0810                 0.1261
 IR Inten    --      3.7132                 6.8597                 2.6118

                     13                     14                     15
                      A                      A                      A
 Frequencies --    336.2865               367.0752               396.4288
 Red. masses --      1.8668                 1.7617                 2.0969
 Frc consts  --      0.1244                 0.1399                 0.1942
 IR Inten    --     20.8073                15.8455                 1.8103

                     16                     17                     18
                      A                      A                      A
 Frequencies --    416.1400               472.4293               533.6621
 Red. masses --      2.2414                 2.7614                 2.4160
 Frc consts  --      0.2287                 0.3631                 0.4054
 IR Inten    --      0.3983                 2.2754                 0.5757

                     19                     20                     21
                      A                      A                      A
 Frequencies --    629.8434               766.9452               814.3387
 Red. masses --      2.9716                 3.2773                 2.7113
 Frc consts  --      0.6946                 1.1358                 1.0593
 IR Inten    --      8.3760                 2.7366                 4.6648

                     22                     23                     24
                      A                      A                      A
 Frequencies --    890.9974               925.4727               934.0027
 Red. masses --      2.3345                 1.2389                 1.6906
 Frc consts  --      1.0920                 0.6252                 0.8689
 IR Inten    --      1.7708                 3.3544                 0.8320

                     25                     26                     27
                      A                      A                      A
 Frequencies --    940.8237               956.2849               961.0023
 Red. masses --      1.5740                 1.2082                 1.5940
 Frc consts  --      0.8209                 0.6510                 0.8673
 IR Inten    --      0.6859                 0.2159                 2.3990

                     28                     29                     30
                      A                      A                      A
 Frequencies --    984.4784              1009.4426              1035.0664
 Red. masses --      1.9161                 2.3063                 1.4029
 Frc consts  --      1.0942                 1.3846                 0.8856
 IR Inten    --      6.0397                47.7538                 1.3694

                     31                     32                     33
                      A                      A                      A
 Frequencies --   1052.5875              1113.7484              1149.8346
 Red. masses --      1.5368                 1.8860                 2.0708
 Frc consts  --      1.0032                 1.3784                 1.6131
 IR Inten    --     14.4843                 1.1975                14.2187

                     34                     35                     36
                      A                      A                      A
 Frequencies --   1192.4895              1223.7074              1238.6510
 Red. masses --      1.7645                 2.1550                 2.1300
 Frc consts  --      1.4784                 1.9013                 1.9254
 IR Inten    --     24.9210                13.5849                 8.5547

                     37                     38                     39
                      A                      A                      A
 Frequencies --   1250.5724              1270.6667              1333.0847
 Red. masses --      1.4650                 2.4918                 1.3466
 Frc consts  --      1.3499                 2.3704                 1.4100
 IR Inten    --     22.2421                 3.7368                 3.6634

                     40                     41                     42
                      A                      A                      A
 Frequencies --   1365.5424              1384.3101              1391.5359
 Red. masses --      1.4279                 1.2697                 1.2353
 Frc consts  --      1.5687                 1.4336                 1.4094
 IR Inten    --      8.1048                 4.9207                 5.3978

                     43                     44                     45
                      A                      A                      A
 Frequencies --   1395.7815              1400.5460              1403.9749
 Red. masses --      1.2419                 1.3226                 1.2660
 Frc consts  --      1.4255                 1.5285                 1.4703
 IR Inten    --      6.9767                 1.1395                 3.3147

                     46                     47                     48
                      A                      A                      A
 Frequencies --   1429.7436              1432.2235              1481.4583
 Red. masses --      1.2854                 1.2549                 1.0494
 Frc consts  --      1.5481                 1.5167                 1.3570
 IR Inten    --     20.9266                 2.5126                 0.0259

                     49                     50                     51
                      A                      A                      A
 Frequencies --   1484.5584              1489.5401              1493.7301
 Red. masses --      1.0447                 1.0472                 1.0473
 Frc consts  --      1.3566                 1.3690                 1.3768
 IR Inten    --      0.1240                 0.8779                 0.6023

                     52                     53                     54
                      A                      A                      A
 Frequencies --   1495.2421              1503.4926              1507.7769
 Red. masses --      1.0520                 1.0504                 1.0527
 Frc consts  --      1.3858                 1.3989                 1.4100
 IR Inten    --      1.9797                 0.4995                 6.9787

                     55                     56                     57
                      A                      A                      A
 Frequencies --   1513.1042              1518.4538              1524.8442
 Red. masses --      1.0533                 1.0612                 1.0580
 Frc consts  --      1.4208                 1.4416                 1.4494
 IR Inten    --      5.0947                 5.0048                13.0063

                     58                     59                     60
                      A                      A                      A
 Frequencies --   2942.5040              3018.7156              3025.9433
 Red. masses --      1.0830                 1.0365                 1.0374
 Frc consts  --      5.5247                 5.5652                 5.5967
 IR Inten    --     47.5513                27.3767                21.0768

                     61                     62                     63
                      A                      A                      A
 Frequencies --   3028.3988              3034.3986              3041.2958
 Red. masses --      1.0349                 1.0382                 1.0782
 Frc consts  --      5.5923                 5.6322                 5.8758
 IR Inten    --     32.7086                10.4737                28.6167

                     64                     65                     66
                      A                      A                      A
 Frequencies --   3047.9102              3085.5027              3089.8256
 Red. masses --      1.0433                 1.0998                 1.1002
 Frc consts  --      5.7103                 6.1689                 6.1884
 IR Inten    --     22.8944                 6.3713                34.4468

                     67                     68                     69
                      A                      A                      A
 Frequencies --   3094.2455              3095.9932              3097.6159
 Red. masses --      1.1000                 1.1010                 1.0999
 Frc consts  --      6.2053                 6.2179                 6.2179
 IR Inten    --     12.1823                39.4008                53.7470

                     70                     71                     72
                      A                      A                      A
 Frequencies --   3103.6668              3106.1934              3116.4071
 Red. masses --      1.1011                 1.0992                 1.0954
 Frc consts  --      6.2490                 6.2487                 6.2681
 IR Inten    --     18.7910                42.9911                41.2277

                     73                     74                     75
                      A                      A                      A
 Frequencies --   3118.7685              3141.8361              3844.8455
 Red. masses --      1.1015                 1.0999                 1.0661
 Frc consts  --      6.3128                 6.3966                 9.2853
 IR Inten    --     11.9642                23.0497                18.6018

 - Thermochemistry -
 -------------------
 Temperature   298.150 Kelvin.  Pressure   1.00000 Atm.
 Atom     1 has atomic number  6 and mass  12.00000

 Molecular mass:   130.13577 amu.
 Principal axes and moments of inertia in atomic units:
                           1         2         3
     Eigenvalues --   811.407201679.168151702.84267
           X            0.99996   0.00856   0.00131
           Y           -0.00537   0.49372   0.86960
           Z           -0.00680   0.86958  -0.49375
 This molecule is an asymmetric top.
 Rotational symmetry number  1.
 Warning -- assumption of classical behavior for rotation
           may cause significant error
 Rotational temperatures (Kelvin)      0.10675     0.05158     0.05086
 Rotational constants (GHZ):           2.22421     1.07478     1.05984
 Zero-point vibrational energy     652771.6 (Joules/Mol)
                                  156.01616 (Kcal/Mol)
 Warning -- explicit consideration of  18 degrees of freedom as
           vibrations may cause significant error
 Vibrational temperatures:     48.93   130.20   279.12   287.53   308.65
          (Kelvin)            347.47   353.88   379.57   412.86   416.16
                              439.30   465.06   483.84   528.14   570.37
                              598.73   679.72   767.82   906.20  1103.46
                             1171.65  1281.95  1331.55  1343.82  1353.64
                             1375.88  1382.67  1416.44  1452.36  1489.23
                             1514.44  1602.44  1654.36  1715.73  1760.64
                             1782.14  1799.29  1828.21  1918.01  1964.71
                             1991.71  2002.11  2008.22  2015.07  2020.01
                             2057.08  2060.65  2131.49  2135.95  2143.12
                             2149.14  2151.32  2163.19  2169.35  2177.02
                             2184.72  2193.91  4233.61  4343.26  4353.66
                             4357.19  4365.82  4375.75  4385.26  4439.35
                             4445.57  4451.93  4454.44  4456.78  4465.48
                             4469.12  4483.81  4487.21  4520.40  5531.88

 Zero-point correction=                           0.248628 (Hartree/Particle)
 Thermal correction to Energy=                    0.260622
 Thermal correction to Enthalpy=                  0.261566
 Thermal correction to Gibbs Free Energy=         0.212091
 Sum of electronic and zero-point Energies=           -390.703518
 Sum of electronic and thermal Energies=              -390.691523
 Sum of electronic and thermal Enthalpies=            -390.690579
 Sum of electronic and thermal Free Energies=         -390.740054

                     E (Thermal)             CV                S
                      KCal/Mol        Cal/Mol-Kelvin    Cal/Mol-Kelvin
 Total                  163.543             45.534            104.130
 Electronic               0.000              0.000              0.000
 Translational            0.889              2.981             40.503
 Rotational               0.889              2.981             29.230
 Vibrational            161.765             39.572             34.397
 Vibration     1          0.594              1.983              5.581
 Vibration     2          0.602              1.956              3.649
 Vibration     3          0.635              1.848              2.189
 Vibration     4          0.638              1.840              2.135
 Vibration     5          0.644              1.819              2.005
 Vibration     6          0.658              1.777              1.792
 Vibration     7          0.660              1.769              1.759
 Vibration     8          0.670              1.739              1.636
 Vibration     9          0.684              1.698              1.492
 Vibration    10          0.686              1.694              1.478
 Vibration    11          0.696              1.664              1.388
 Vibration    12          0.708              1.629              1.294
 Vibration    13          0.717              1.603              1.230
 Vibration    14          0.740              1.540              1.092
 Vibration    15          0.763              1.478              0.976
 Vibration    16          0.779              1.435              0.905
 Vibration    17          0.829              1.311              0.731
 Vibration    18          0.889              1.176              0.579

                           ! Non-Optimized Parameters !
 Normal termination of Gaussian 16 at Sun Feb 28 04:02:51 2021.
