 Gaussian 16, Revision A.03,
 Gaussian 16:  ES64L-G16RevA.03 25-Dec-2016

 -----------------------------
 # opt freq b3lyp/6-31g(2df,p)
 -----------------------------

 -----
 Title
 -----
 Symbolic Z-matrix:
 Charge =  0 Multiplicity = 1

 SCF Done:  E(RB3LYP) =  -390.941530847     A.U. after   12 cycles
 SCF Done:  E(RB3LYP) =  -390.947675427     A.U. after   10 cycles
 SCF Done:  E(RB3LYP) =  -390.947497965     A.U. after   11 cycles
 SCF Done:  E(RB3LYP) =  -390.947741567     A.U. after   10 cycles
 SCF Done:  E(RB3LYP) =  -390.948365670     A.U. after   10 cycles
 SCF Done:  E(RB3LYP) =  -390.948371885     A.U. after   10 cycles
 SCF Done:  E(RB3LYP) =  -390.948584134     A.U. after    9 cycles
 SCF Done:  E(RB3LYP) =  -390.948611410     A.U. after    9 cycles
 SCF Done:  E(RB3LYP) =  -390.948633466     A.U. after    8 cycles
 SCF Done:  E(RB3LYP) =  -390.948638321     A.U. after    8 cycles
 SCF Done:  E(RB3LYP) =  -390.948639207     A.U. after    7 cycles
 SCF Done:  E(RB3LYP) =  -390.948639391     A.U. after    6 cycles
 Optimization completed.
    -- Stationary point found.
 Normal termination of Gaussian 16 at Sun Feb 28 01:23:27 2021.

 ----------------------------------------------------------------------
 #N Geom=AllCheck Guess=TCheck SCRF=Check GenChk RB3LYP/6-31G(2df,p) Fr
 eq
 ----------------------------------------------------------------------

 Structure from the checkpoint file:  "CCpCpCpCpCpCppCpO.chk"
 -----
 Title
 -----
 Charge =  0 Multiplicity = 1

                         Standard orientation:
 ---------------------------------------------------------------------
 Center     Atomic      Atomic             Coordinates (Angstroms)
 Number     Number       Type             X           Y           Z
 ---------------------------------------------------------------------
      1          6           0       -2.762351    0.498626   -0.125163
      2          6           0       -1.444556   -0.184859    0.292744
      3          6           0       -1.583945   -1.689274    0.000590
      4          6           0       -0.208376    0.505896   -0.363654
      5          6           0       -0.210086    2.014768   -0.048268
      6          6           0        1.200704   -0.123992   -0.027039
      7          6           0        1.354083   -0.480168    1.459436
      8          6           0        1.528139   -1.324070   -0.924515
      9          8           0        2.243933    0.804407   -0.375955
     10          1           0       -3.618127   -0.052929    0.277224
     11          1           0       -2.866970    0.515837   -1.217020
     12          1           0       -2.842208    1.525799    0.235593
     13          1           0       -1.350526   -0.065455    1.381278
     14          1           0       -1.600774   -1.884992   -1.077897
     15          1           0       -2.526212   -2.063074    0.414828
     16          1           0       -0.783906   -2.288824    0.438320
     17          1           0       -0.325502    0.409695   -1.452945
     18          1           0       -0.146338    2.206574    1.030880
     19          1           0       -1.120598    2.496092   -0.407594
     20          1           0        0.627327    2.511766   -0.539854
     21          1           0        0.687960   -1.289161    1.768679
     22          1           0        1.140408    0.384535    2.099271
     23          1           0        2.384322   -0.794473    1.649870
     24          1           0        0.825250   -2.147437   -0.809341
     25          1           0        2.532943   -1.687619   -0.690868
     26          1           0        1.522787   -1.007495   -1.971654
     27          1           0        2.267022    1.494340    0.294082
 ---------------------------------------------------------------------

 SCF Done:  E(RB3LYP) =  -390.948639391     A.U. after    1 cycles

 The electronic state is 1-A.
 Alpha  occ. eigenvalues --  -19.12456 -10.23346 -10.18691 -10.18167 -10.17247
 Alpha  occ. eigenvalues --  -10.17059 -10.16966 -10.16799 -10.16260  -1.00865
 Alpha  occ. eigenvalues --   -0.81400  -0.76027  -0.72763  -0.68809  -0.67662
 Alpha  occ. eigenvalues --   -0.62786  -0.57685  -0.53995  -0.49175  -0.45923
 Alpha  occ. eigenvalues --   -0.44870  -0.44011  -0.42597  -0.40133  -0.39714
 Alpha  occ. eigenvalues --   -0.38692  -0.38297  -0.37420  -0.37258  -0.35529
 Alpha  occ. eigenvalues --   -0.34474  -0.34112  -0.32368  -0.31965  -0.31112
 Alpha  occ. eigenvalues --   -0.29890  -0.25686
 Alpha virt. eigenvalues --    0.06844   0.09987   0.11309   0.11927   0.12130
 Alpha virt. eigenvalues --    0.13282   0.14691   0.15263   0.16246   0.16448
 Alpha virt. eigenvalues --    0.17237   0.17723   0.18755   0.19120   0.19528

 Mulliken charges:
               1
     1  C   -0.398389
     2  C    0.048552
     3  C   -0.400135
     4  C    0.009242
     5  C   -0.435448
     6  C    0.352561
     7  C   -0.437739
     8  C   -0.403975
     9  O   -0.459901
    10  H    0.107314
    11  H    0.112195
    12  H    0.115208
    13  H    0.071092
    14  H    0.114023
    15  H    0.106480
    16  H    0.117847
    17  H    0.068343
    18  H    0.103859
    19  H    0.118027
    20  H    0.121890
    21  H    0.121528
    22  H    0.106526
    23  H    0.119359
    24  H    0.113410
    25  H    0.114112
    26  H    0.119191
    27  H    0.274829
 Sum of Mulliken charges =  -0.00000

 Dipole moment (field-independent basis, Debye):
    X=             -0.8774    Y=              0.0802    Z=              1.1068  Tot=              1.4147
 Quadrupole moment (field-independent basis, Debye-Ang):
   XX=            -62.6103   YY=            -58.2900   ZZ=            -59.4048
   XY=              0.4191   XZ=              2.8302   YZ=              1.3332

  Exact polarizability:  99.823  -0.512  92.772   0.574   1.135  82.198
 Approx polarizability: 130.728   1.595 128.481  -0.807   1.219 126.665

                      1                      2                      3
                      A                      A                      A
 Frequencies --     64.3432                91.1253               183.4913
 Red. masses --      2.6807                 2.4553                 1.1619
 Frc consts  --      0.0065                 0.0120                 0.0230
 IR Inten    --      0.1116                 0.2365                 3.1906

                      4                      5                      6
                      A                      A                      A
 Frequencies --    194.0434               202.3996               236.5290
 Red. masses --      1.4211                 1.1904                 1.6342
 Frc consts  --      0.0315                 0.0287                 0.0539
 IR Inten    --      0.0991                 1.8713                 0.7390

                      7                      8                      9
                      A                      A                      A
 Frequencies --    249.9801               257.3348               301.4893
 Red. masses --      1.6160                 1.1527                 1.6639
 Frc consts  --      0.0595                 0.0450                 0.0891
 IR Inten    --      0.1251                 0.1397                 1.1190

                     10                     11                     12
                      A                      A                      A
 Frequencies --    311.6447               341.2071               358.0434
 Red. masses --      2.0592                 1.4724                 2.6794
 Frc consts  --      0.1178                 0.1010                 0.2024
 IR Inten    --      1.2608                76.2449                 0.0831

                     13                     14                     15
                      A                      A                      A
 Frequencies --    365.0722               391.4331               441.5734
 Red. masses --      1.9516                 2.4487                 1.8386
 Frc consts  --      0.1532                 0.2211                 0.2112
 IR Inten    --     18.0273                 0.9559                 9.0967

                     16                     17                     18
                      A                      A                      A
 Frequencies --    462.3342               483.0287               500.0280
 Red. masses --      2.0498                 2.6626                 2.4535
 Frc consts  --      0.2581                 0.3660                 0.3614
 IR Inten    --     12.0544                 5.7455                 6.2285

                     19                     20                     21
                      A                      A                      A
 Frequencies --    553.7281               720.1023               809.5279
 Red. masses --      2.5744                 2.6631                 2.2592
 Frc consts  --      0.4651                 0.8136                 0.8723
 IR Inten    --      2.6923                 0.6603                 0.1449

                     22                     23                     24
                      A                      A                      A
 Frequencies --    874.6729               920.3880               925.9721
 Red. masses --      2.3437                 1.9981                 1.3655
 Frc consts  --      1.0565                 0.9973                 0.6898
 IR Inten    --     12.0421                 4.8150                 0.2264

                     25                     26                     27
                      A                      A                      A
 Frequencies --    930.8314               958.9215               969.9713
 Red. masses --      1.3624                 2.2804                 1.4871
 Frc consts  --      0.6955                 1.2355                 0.8243
 IR Inten    --      2.4663                26.0461                 0.0414

                     28                     29                     30
                      A                      A                      A
 Frequencies --    983.6969              1006.5670              1043.2369
 Red. masses --      1.2155                 1.3292                 1.9590
 Frc consts  --      0.6930                 0.7934                 1.2562
 IR Inten    --      1.7653                 0.4293                 8.7130

                     31                     32                     33
                      A                      A                      A
 Frequencies --   1057.4951              1117.0177              1145.8981
 Red. masses --      1.8085                 1.9825                 1.8164
 Frc consts  --      1.1916                 1.4574                 1.4052
 IR Inten    --     20.1996                 4.7586                12.8686

                     34                     35                     36
                      A                      A                      A
 Frequencies --   1181.8807              1187.5194              1205.3010
 Red. masses --      1.8800                 1.9090                 2.4529
 Frc consts  --      1.5472                 1.5861                 2.0995
 IR Inten    --     32.8049                 4.5396                30.2953

                     37                     38                     39
                      A                      A                      A
 Frequencies --   1237.4365              1292.0666              1325.6643
 Red. masses --      2.7235                 1.3901                 1.2949
 Frc consts  --      2.4571                 1.3673                 1.3408
 IR Inten    --     17.0325                 9.3774                 7.9493

                     40                     41                     42
                      A                      A                      A
 Frequencies --   1347.2158              1370.2011              1379.9945
 Red. masses --      1.3241                 1.3813                 1.3071
 Frc consts  --      1.4159                 1.5279                 1.4666
 IR Inten    --      4.7117                 0.3511                12.7238

                     43                     44                     45
                      A                      A                      A
 Frequencies --   1397.0935              1402.4430              1405.8811
 Red. masses --      1.2496                 1.2312                 1.4918
 Frc consts  --      1.4371                 1.4268                 1.7373
 IR Inten    --      1.4130                 8.2251                28.4425

                     46                     47                     48
                      A                      A                      A
 Frequencies --   1416.7446              1426.2784              1480.6639
 Red. masses --      1.2462                 1.2129                 1.0550
 Frc consts  --      1.4738                 1.4537                 1.3627
 IR Inten    --     11.5562                 2.5361                 1.5411

                     49                     50                     51
                      A                      A                      A
 Frequencies --   1483.1159              1490.6700              1494.8000
 Red. masses --      1.0527                 1.0530                 1.0525
 Frc consts  --      1.3643                 1.3786                 1.3856
 IR Inten    --      1.9654                 0.7156                 3.8458

                     52                     53                     54
                      A                      A                      A
 Frequencies --   1496.3055              1502.2261              1504.1454
 Red. masses --      1.0548                 1.0544                 1.0466
 Frc consts  --      1.3914                 1.4020                 1.3951
 IR Inten    --      2.4091                 2.3227                 2.1435

                     55                     56                     57
                      A                      A                      A
 Frequencies --   1511.3479              1520.7032              1534.5737
 Red. masses --      1.0558                 1.0468                 1.0457
 Frc consts  --      1.4209                 1.4262                 1.4509
 IR Inten    --      0.3207                14.8677                 3.6886

                     58                     59                     60
                      A                      A                      A
 Frequencies --   2992.5295              3008.1602              3026.4976
 Red. masses --      1.0804                 1.0819                 1.0477
 Frc consts  --      5.7003                 5.7683                 5.6543
 IR Inten    --      2.9092                19.3793                 6.3088

                     61                     62                     63
                      A                      A                      A
 Frequencies --   3027.6501              3032.5815              3034.2785
 Red. masses --      1.0394                 1.0426                 1.0399
 Frc consts  --      5.6137                 5.6493                 5.6407
 IR Inten    --     21.0041                42.7113                35.3316

                     64                     65                     66
                      A                      A                      A
 Frequencies --   3052.5321              3086.7534              3095.0780
 Red. masses --      1.0398                 1.1008                 1.0994
 Frc consts  --      5.7087                 6.1795                 6.2051
 IR Inten    --     17.2601                 0.3426                65.0185

                     67                     68                     69
                      A                      A                      A
 Frequencies --   3097.1742              3112.6822              3113.3358
 Red. masses --      1.0961                 1.0918                 1.1000
 Frc consts  --      6.1947                 6.2327                 6.2819
 IR Inten    --     26.8858                10.7817                31.2183

                     70                     71                     72
                      A                      A                      A
 Frequencies --   3121.1095              3123.4917              3125.2158
 Red. masses --      1.0985                 1.0952                 1.0983
 Frc consts  --      6.3046                 6.2955                 6.3201
 IR Inten    --     52.1347                45.2337                 4.8992

                     73                     74                     75
                      A                      A                      A
 Frequencies --   3140.1945              3169.0555              3821.1845
 Red. masses --      1.0990                 1.0953                 1.0660
 Frc consts  --      6.3853                 6.4810                 9.1708
 IR Inten    --     19.7192                14.8235                11.3653

 - Thermochemistry -
 -------------------
 Temperature   298.150 Kelvin.  Pressure   1.00000 Atm.
 Atom     1 has atomic number  6 and mass  12.00000

 Molecular mass:   130.13577 amu.
 Principal axes and moments of inertia in atomic units:
                           1         2         3
     Eigenvalues --   840.972381520.097221896.34022
           X            0.99975  -0.01930   0.01142
           Y            0.01913   0.99971   0.01496
           Z           -0.01171  -0.01474   0.99982
 This molecule is an asymmetric top.
 Rotational symmetry number  1.
 Warning -- assumption of classical behavior for rotation
           may cause significant error
 Rotational temperatures (Kelvin)      0.10299     0.05698     0.04567
 Rotational constants (GHZ):           2.14602     1.18725     0.95170
 Zero-point vibrational energy     653322.0 (Joules/Mol)
                                  156.14770 (Kcal/Mol)
 Warning -- explicit consideration of  19 degrees of freedom as
           vibrations may cause significant error
 Vibrational temperatures:     92.58   131.11   264.00   279.19   291.21
          (Kelvin)            340.31   359.67   370.25   433.78   448.39
                              490.92   515.14   525.26   563.18   635.33
                              665.20   694.97   719.43   796.69  1036.07
                             1164.73  1258.46  1324.23  1332.27  1339.26
                             1379.67  1395.57  1415.32  1448.23  1500.99
                             1521.50  1607.14  1648.69  1700.46  1708.58
                             1734.16  1780.40  1859.00  1907.34  1938.34
                             1971.41  1985.50  2010.11  2017.80  2022.75
                             2038.38  2052.10  2130.35  2133.87  2144.74
                             2150.68  2152.85  2161.37  2164.13  2174.49
                             2187.95  2207.91  4305.58  4328.07  4354.46
                             4356.11  4363.21  4365.65  4391.91  4441.15
                             4453.13  4456.14  4478.46  4479.40  4490.58
                             4494.01  4496.49  4518.04  4559.56  5497.83

 Zero-point correction=                           0.248837 (Hartree/Particle)
 Thermal correction to Energy=                    0.260642
 Thermal correction to Enthalpy=                  0.261587
 Thermal correction to Gibbs Free Energy=         0.212932
 Sum of electronic and zero-point Energies=           -390.699802
 Sum of electronic and thermal Energies=              -390.687997
 Sum of electronic and thermal Enthalpies=            -390.687053
 Sum of electronic and thermal Free Energies=         -390.735708

                     E (Thermal)             CV                S
                      KCal/Mol        Cal/Mol-Kelvin    Cal/Mol-Kelvin
 Total                  163.556             45.461            102.403
 Electronic               0.000              0.000              0.000
 Translational            0.889              2.981             40.503
 Rotational               0.889              2.981             29.273
 Vibrational            161.778             39.499             32.626
 Vibration     1          0.597              1.971              4.319
 Vibration     2          0.602              1.955              3.636
 Vibration     3          0.631              1.862              2.293
 Vibration     4          0.635              1.848              2.189
 Vibration     5          0.639              1.836              2.111
 Vibration     6          0.655              1.785              1.829
 Vibration     7          0.663              1.763              1.731
 Vibration     8          0.667              1.750              1.680
 Vibration     9          0.693              1.671              1.409
 Vibration    10          0.700              1.651              1.354
 Vibration    11          0.721              1.593              1.206
 Vibration    12          0.733              1.559              1.131
 Vibration    13          0.738              1.544              1.100
 Vibration    14          0.759              1.488              0.995
 Vibration    15          0.801              1.379              0.822
 Vibration    16          0.820              1.334              0.759
 Vibration    17          0.839              1.288              0.702
 Vibration    18          0.855              1.250              0.658
 Vibration    19          0.909              1.132              0.536

                           ! Non-Optimized Parameters !
 Normal termination of Gaussian 16 at Sun Feb 28 02:13:53 2021.
