 Gaussian 16, Revision A.03,
 Gaussian 16:  ES64L-G16RevA.03 25-Dec-2016

 -----------------------------
 # opt freq b3lyp/6-31g(2df,p)
 -----------------------------

 -------------------
 Title Card Required
 -------------------
 Symbolic Z-matrix:
 Charge =  0 Multiplicity = 1

 SCF Done:  E(RB3LYP) =  -423.118402281     A.U. after   14 cycles
 SCF Done:  E(RB3LYP) =  -423.121547965     A.U. after   12 cycles
 SCF Done:  E(RB3LYP) =  -423.121321777     A.U. after   12 cycles
 SCF Done:  E(RB3LYP) =  -423.122136817     A.U. after   12 cycles
 SCF Done:  E(RB3LYP) =  -423.122343201     A.U. after   11 cycles
 SCF Done:  E(RB3LYP) =  -423.122374437     A.U. after    9 cycles
 SCF Done:  E(RB3LYP) =  -423.122389794     A.U. after   10 cycles
 SCF Done:  E(RB3LYP) =  -423.122426084     A.U. after   12 cycles
 SCF Done:  E(RB3LYP) =  -423.122444779     A.U. after   11 cycles
 SCF Done:  E(RB3LYP) =  -423.122491367     A.U. after   12 cycles
 SCF Done:  E(RB3LYP) =  -423.122605751     A.U. after   12 cycles
 SCF Done:  E(RB3LYP) =  -423.122643150     A.U. after   14 cycles
 SCF Done:  E(RB3LYP) =  -423.122771300     A.U. after   15 cycles
 SCF Done:  E(RB3LYP) =  -423.122806156     A.U. after   12 cycles
 SCF Done:  E(RB3LYP) =  -423.122832439     A.U. after   11 cycles
 SCF Done:  E(RB3LYP) =  -423.122833865     A.U. after   11 cycles
 SCF Done:  E(RB3LYP) =  -423.122833975     A.U. after    8 cycles
 SCF Done:  E(RB3LYP) =  -423.122833998     A.U. after    7 cycles
 SCF Done:  E(RB3LYP) =  -423.122834000     A.U. after    7 cycles
 Optimization completed.
    -- Stationary point found.
 Normal termination of Gaussian 16 at Tue Mar  9 01:58:14 2021.

 ----------------------------------------------------------------------
 #N Geom=AllCheck Guess=TCheck SCRF=Check GenChk RB3LYP/6-31G(2df,p) Fr
 eq
 ----------------------------------------------------------------------

 Structure from the checkpoint file:  "CCpCtCC1CO1pCO.chk"
 -------------------
 Title Card Required
 -------------------
 Charge =  0 Multiplicity = 1

                         Standard orientation:
 ---------------------------------------------------------------------
 Center     Atomic      Atomic             Coordinates (Angstroms)
 Number     Number       Type             X           Y           Z
 ---------------------------------------------------------------------
      1          6           0       -1.883574    1.975760    0.021035
      2          6           0       -1.640896    0.509973   -0.392095
      3          6           0       -0.250565    0.120289   -0.171296
      4          6           0        0.901380   -0.170923    0.029370
      5          6           0        2.260097   -0.559120    0.291588
      6          6           0        3.362559   -0.220215   -0.630353
      7          8           0        3.207004    0.481771    0.595271
      8          6           0       -2.615314   -0.431654    0.350080
      9          8           0       -2.472153   -1.791463   -0.001371
     10          1           0       -1.220892    2.648565   -0.527830
     11          1           0       -1.691756    2.111611    1.089434
     12          1           0       -2.919112    2.264687   -0.185016
     13          1           0       -1.859584    0.420819   -1.467936
     14          1           0        2.379899   -1.448618    0.909413
     15          1           0        3.138077    0.348812   -1.530607
     16          1           0        4.225557   -0.882447   -0.692014
     17          1           0       -3.642160   -0.071764    0.176564
     18          1           0       -2.421799   -0.377060    1.426101
     19          1           0       -2.669160   -1.881732   -0.939294
 ---------------------------------------------------------------------

 SCF Done:  E(RB3LYP) =  -423.122834000     A.U. after    1 cycles

 The electronic state is 1-A.
 Alpha  occ. eigenvalues --  -19.15417 -19.13937 -10.25662 -10.23857 -10.23435
 Alpha  occ. eigenvalues --  -10.21637 -10.18747 -10.17935 -10.17365  -1.07389
 Alpha  occ. eigenvalues --   -1.02211  -0.81485  -0.75080  -0.68280  -0.67839
 Alpha  occ. eigenvalues --   -0.64928  -0.61368  -0.53442  -0.51704  -0.49199
 Alpha  occ. eigenvalues --   -0.48201  -0.44234  -0.42732  -0.41002  -0.40341
 Alpha  occ. eigenvalues --   -0.39641  -0.38427  -0.36826  -0.33751  -0.32886
 Alpha  occ. eigenvalues --   -0.27921  -0.27679  -0.25788  -0.24562
 Alpha virt. eigenvalues --    0.02662   0.03846   0.07985   0.09745   0.11221
 Alpha virt. eigenvalues --    0.12830   0.13682   0.14520   0.14807   0.16613
 Alpha virt. eigenvalues --    0.16934   0.17533   0.18640   0.19571   0.22607

 Mulliken charges:
               1
     1  C   -0.389468
     2  C   -0.192828
     3  C    0.166247
     4  C    0.042859
     5  C   -0.115620
     6  C   -0.160791
     7  O   -0.216868
     8  C   -0.042871
     9  O   -0.411150
    10  H    0.132694
    11  H    0.133083
    12  H    0.115314
    13  H    0.094211
    14  H    0.117708
    15  H    0.120834
    16  H    0.117492
    17  H    0.086607
    18  H    0.120377
    19  H    0.282171
 Sum of Mulliken charges =  -0.00000

 Dipole moment (field-independent basis, Debye):
    X=             -1.4297    Y=             -0.0029    Z=             -2.1405  Tot=              2.5740
 Quadrupole moment (field-independent basis, Debye-Ang):
   XX=            -49.1259   YY=            -55.1590   ZZ=            -50.7818
   XY=             -7.2149   XZ=             -0.5277   YZ=              0.9428

  Exact polarizability: 116.543  -8.514  69.209  -0.856  -1.318  63.200
 Approx polarizability: 158.670 -11.328  97.340   5.227  -1.109  97.378

                      1                      2                      3
                      A                      A                      A
 Frequencies --      9.7767                64.8516               102.7091
 Red. masses --      3.6739                 5.1803                 2.9282
 Frc consts  --      0.0002                 0.0128                 0.0182
 IR Inten    --      2.8274                 1.3654                 4.4883

                      4                      5                      6
                      A                      A                      A
 Frequencies --    120.2771               167.3280               212.7490
 Red. masses --      3.1981                 3.3794                 1.4694
 Frc consts  --      0.0273                 0.0557                 0.0392
 IR Inten    --      3.9208                 2.5498                 0.7061

                      7                      8                      9
                      A                      A                      A
 Frequencies --    234.0001               264.5624               305.2655
 Red. masses --      1.8152                 2.2260                 1.4174
 Frc consts  --      0.0586                 0.0918                 0.0778
 IR Inten    --     15.3169                 8.4041               101.1944

                     10                     11                     12
                      A                      A                      A
 Frequencies --    398.7799               463.6644               497.3131
 Red. masses --      6.4593                 4.4344                 3.5964
 Frc consts  --      0.6052                 0.5617                 0.5241
 IR Inten    --      7.7729                 3.0691                 9.3529

                     13                     14                     15
                      A                      A                      A
 Frequencies --    550.0596               583.1455               688.9812
 Red. masses --      4.3275                 4.8976                 2.4887
 Frc consts  --      0.7715                 0.9813                 0.6960
 IR Inten    --      4.4749                 3.7981                 5.7089

                     16                     17                     18
                      A                      A                      A
 Frequencies --    826.9548               856.8233               903.9203
 Red. masses --      7.8379                 2.3340                 1.9571
 Frc consts  --      3.1580                 1.0096                 0.9421
 IR Inten    --     17.2465                21.2595                29.4989

                     19                     20                     21
                      A                      A                      A
 Frequencies --    944.6717               976.6383              1034.5798
 Red. masses --      1.5492                 2.1594                 2.1474
 Frc consts  --      0.8145                 1.2135                 1.3542
 IR Inten    --      4.7398                11.6386                26.4365

                     22                     23                     24
                      A                      A                      A
 Frequencies --   1079.6699              1082.4604              1099.9773
 Red. masses --      1.4195                 1.7845                 2.0612
 Frc consts  --      0.9749                 1.2319                 1.4694
 IR Inten    --     36.6605                 2.6025                49.5997

                     25                     26                     27
                      A                      A                      A
 Frequencies --   1112.5128              1152.3337              1162.3257
 Red. masses --      2.2969                 1.4217                 1.3387
 Frc consts  --      1.6750                 1.1123                 1.0656
 IR Inten    --      8.7499                 0.8713                 1.9461

                     28                     29                     30
                      A                      A                      A
 Frequencies --   1193.6293              1215.8593              1282.2762
 Red. masses --      1.8442                 1.5254                 1.6329
 Frc consts  --      1.5481                 1.3286                 1.5819
 IR Inten    --      1.4676                17.2803                 8.4266

                     31                     32                     33
                      A                      A                      A
 Frequencies --   1304.2346              1360.2010              1388.4545
 Red. masses --      1.2332                 1.4320                 1.2872
 Frc consts  --      1.2359                 1.5610                 1.4621
 IR Inten    --      0.6783                11.1258                 4.7372

                     34                     35                     36
                      A                      A                      A
 Frequencies --   1402.8663              1408.4887              1421.7819
 Red. masses --      1.2382                 1.9032                 1.2236
 Frc consts  --      1.4357                 2.2246                 1.4573
 IR Inten    --     11.3872                57.3916                38.8503

                     37                     38                     39
                      A                      A                      A
 Frequencies --   1490.7055              1498.4047              1504.3850
 Red. masses --      1.0492                 1.0616                 1.0752
 Frc consts  --      1.3737                 1.4043                 1.4338
 IR Inten    --      3.9301                 2.2215                 1.7589

                     40                     41                     42
                      A                      A                      A
 Frequencies --   1519.2474              2362.5193              2974.2977
 Red. masses --      1.2389                11.8809                 1.0746
 Frc consts  --      1.6848                39.0706                 5.6009
 IR Inten    --      1.8076                 9.6064                42.4951

                     43                     44                     45
                      A                      A                      A
 Frequencies --   2980.7099              3041.5121              3082.4674
 Red. masses --      1.0757                 1.0352                 1.0790
 Frc consts  --      5.6309                 5.6424                 6.0403
 IR Inten    --     57.0446                28.7093                12.0831

                     46                     47                     48
                      A                      A                      A
 Frequencies --   3082.5806              3112.9811              3113.4090
 Red. masses --      1.0637                 1.0878                 1.1005
 Frc consts  --      5.9552                 6.2109                 6.2850
 IR Inten    --     39.1006                25.0356                21.8635

                     49                     50                     51
                      A                      A                      A
 Frequencies --   3127.5223              3175.4445              3813.0992
 Red. masses --      1.1019                 1.1198                 1.0661
 Frc consts  --      6.3504                 6.6528                 9.1329
 IR Inten    --     17.0988                25.5103                17.3329

 - Thermochemistry -
 -------------------
 Temperature   298.150 Kelvin.  Pressure   1.00000 Atm.
 Atom     1 has atomic number  6 and mass  12.00000

 Molecular mass:   126.06808 amu.
 Principal axes and moments of inertia in atomic units:
                           1         2         3
     Eigenvalues --   574.003672602.236522994.75560
           X            0.99966  -0.02485  -0.00728
           Y            0.02485   0.99969  -0.00086
           Z            0.00729   0.00068   0.99997
 This molecule is an asymmetric top.
 Rotational symmetry number  1.
 Warning -- assumption of classical behavior for rotation
           may cause significant error
 Rotational temperatures (Kelvin)      0.15089     0.03328     0.02892
 Rotational constants (GHZ):           3.14413     0.69353     0.60263
 Zero-point vibrational energy     411236.7 (Joules/Mol)
                                   98.28793 (Kcal/Mol)
 Warning -- explicit consideration of  14 degrees of freedom as
           vibrations may cause significant error
 Vibrational temperatures:     14.07    93.31   147.78   173.05   240.75
          (Kelvin)            306.10   336.67   380.65   439.21   573.76
                              667.11   715.52   791.41   839.02   991.29
                             1189.80  1232.78  1300.54  1359.17  1405.16
                             1488.53  1553.40  1557.42  1582.62  1600.66
                             1657.95  1672.33  1717.37  1749.35  1844.91
                             1876.50  1957.03  1997.68  2018.41  2026.50
                             2045.63  2144.79  2155.87  2164.47  2185.86
                             3399.14  4279.35  4288.58  4376.06  4434.98
                             4435.15  4478.89  4479.50  4499.81  4568.76
                             5486.20

 Zero-point correction=                           0.156632 (Hartree/Particle)
 Thermal correction to Energy=                    0.166987
 Thermal correction to Enthalpy=                  0.167931
 Thermal correction to Gibbs Free Energy=         0.118683
 Sum of electronic and zero-point Energies=           -422.966202
 Sum of electronic and thermal Energies=              -422.955847
 Sum of electronic and thermal Enthalpies=            -422.954903
 Sum of electronic and thermal Free Energies=         -423.004151

                     E (Thermal)             CV                S
                      KCal/Mol        Cal/Mol-Kelvin    Cal/Mol-Kelvin
 Total                  104.786             35.817            103.653
 Electronic               0.000              0.000              0.000
 Translational            0.889              2.981             40.409
 Rotational               0.889              2.981             29.882
 Vibrational            103.009             29.855             33.362
 Vibration     1          0.593              1.987              8.056
 Vibration     2          0.597              1.971              4.304
 Vibration     3          0.605              1.947              3.402
 Vibration     4          0.609              1.932              3.096
 Vibration     5          0.624              1.883              2.465
 Vibration     6          0.644              1.821              2.020
 Vibration     7          0.654              1.789              1.848
 Vibration     8          0.671              1.738              1.631
 Vibration     9          0.696              1.664              1.388
 Vibration    10          0.765              1.473              0.967
 Vibration    11          0.821              1.331              0.756
 Vibration    12          0.853              1.256              0.665
 Vibration    13          0.905              1.140              0.544
 Vibration    14          0.940              1.068              0.480

 Optimization completed.
    -- Stationary point found.
 Normal termination of Gaussian 16 at Tue Mar  9 02:22:44 2021.
