 Gaussian 16, Revision A.03,
 Gaussian 16:  ES64L-G16RevA.03 25-Dec-2016

 -----------------------------
 # opt freq b3lyp/6-31g(2df,p)
 -----------------------------

 -----
 Title
 -----
 Symbolic Z-matrix:
 Charge =  0 Multiplicity = 1

 SCF Done:  E(RB3LYP) =  -311.064216410     A.U. after   13 cycles
 SCF Done:  E(RB3LYP) =  -311.075413343     A.U. after   11 cycles
 SCF Done:  E(RB3LYP) =  -311.076190529     A.U. after   11 cycles
 SCF Done:  E(RB3LYP) =  -311.076309435     A.U. after   10 cycles
 SCF Done:  E(RB3LYP) =  -311.076329986     A.U. after    9 cycles
 SCF Done:  E(RB3LYP) =  -311.076332960     A.U. after    7 cycles
 SCF Done:  E(RB3LYP) =  -311.076333278     A.U. after    6 cycles
 Optimization completed.
    -- Stationary point found.
 Normal termination of Gaussian 16 at Thu Feb 18 11:20:00 2021.

 ----------------------------------------------------------------------
 #N Geom=AllCheck Guess=TCheck SCRF=Check GenChk RB3LYP/6-31G(2df,p) Fr
 eq
 ----------------------------------------------------------------------

 Structure from the checkpoint file:  "CCpCppCpC1CO1.chk"
 -----
 Title
 -----
 Charge =  0 Multiplicity = 1

                         Standard orientation:
 ---------------------------------------------------------------------
 Center     Atomic      Atomic             Coordinates (Angstroms)
 Number     Number       Type             X           Y           Z
 ---------------------------------------------------------------------
      1          6           0        1.449084   -1.145457   -0.693312
      2          6           0        0.654798   -0.024622    0.001449
      3          6           0        0.592957   -0.275739    1.516654
      4          6           0        1.326937    1.337240   -0.265800
      5          6           0       -0.737595    0.023957   -0.621335
      6          6           0       -1.939602   -0.616422   -0.072696
      7          8           0       -1.742962    0.796982    0.037367
      8          1           0        2.471713   -1.191128   -0.304446
      9          1           0        1.512777   -0.979141   -1.774556
     10          1           0        0.983077   -2.123075   -0.530021
     11          1           0        1.585368   -0.151972    1.961376
     12          1           0        0.256340   -1.291786    1.746149
     13          1           0       -0.088668    0.431209    1.997670
     14          1           0        2.348301    1.350930    0.128814
     15          1           0        0.764851    2.146684    0.209749
     16          1           0        1.380002    1.549195   -1.339493
     17          1           0       -0.719427    0.178670   -1.703732
     18          1           0       -1.890930   -1.164695    0.865293
     19          1           0       -2.739180   -0.924487   -0.745502
 ---------------------------------------------------------------------

 SCF Done:  E(RB3LYP) =  -311.076333278     A.U. after    1 cycles

 The electronic state is 1-A.
 Alpha  occ. eigenvalues --  -19.14596 -10.23137 -10.22885 -10.19845 -10.17588
 Alpha  occ. eigenvalues --  -10.17106 -10.17035  -1.06517  -0.81607  -0.68726
 Alpha  occ. eigenvalues --   -0.68520  -0.66594  -0.63221  -0.54081  -0.49610
 Alpha  occ. eigenvalues --   -0.47897  -0.43751  -0.43165  -0.41327  -0.39437
 Alpha  occ. eigenvalues --   -0.38170  -0.37303  -0.36379  -0.34159  -0.33104
 Alpha  occ. eigenvalues --   -0.32631  -0.29301  -0.26147
 Alpha virt. eigenvalues --    0.08113   0.10616   0.11500   0.12029   0.12301
 Alpha virt. eigenvalues --    0.13455   0.15418   0.15979   0.17749   0.18876
 Alpha virt. eigenvalues --    0.19755   0.20228   0.20964   0.21749   0.22592

 Mulliken charges:
               1
     1  C   -0.408326
     2  C    0.235554
     3  C   -0.425493
     4  C   -0.404639
     5  C    0.104160
     6  C   -0.194464
     7  O   -0.247325
     8  H    0.114009
     9  H    0.110713
    10  H    0.112431
    11  H    0.109322
    12  H    0.107762
    13  H    0.132630
    14  H    0.108369
    15  H    0.129023
    16  H    0.107754
    17  H    0.082992
    18  H    0.113784
    19  H    0.111745
 Sum of Mulliken charges =   0.00000

 Dipole moment (field-independent basis, Debye):
    X=              0.8123    Y=             -1.4057    Z=             -0.4193  Tot=              1.6768
 Quadrupole moment (field-independent basis, Debye-Ang):
   XX=            -45.3061   YY=            -45.8204   ZZ=            -43.7058
   XY=              3.4812   XZ=              0.7906   YZ=             -0.4511

  Exact polarizability:  73.220   4.090  62.859  -0.604  -1.221  64.216
 Approx polarizability:  97.994   3.300  93.071  -2.465  -0.995  91.711

                      1                      2                      3
                      A                      A                      A
 Frequencies --     83.5487               203.4651               225.5568
 Red. masses --      3.1661                 1.2430                 2.0290
 Frc consts  --      0.0130                 0.0303                 0.0608
 IR Inten    --      2.4807                 0.8519                 3.5805

                      4                      5                      6
                      A                      A                      A
 Frequencies --    253.1267               256.7437               288.8267
 Red. masses --      1.3589                 1.0764                 1.5687
 Frc consts  --      0.0513                 0.0418                 0.0771
 IR Inten    --      0.0818                 0.0210                 0.0335

                      7                      8                      9
                      A                      A                      A
 Frequencies --    324.1075               355.2711               387.3997
 Red. masses --      2.5781                 2.2580                 2.2442
 Frc consts  --      0.1596                 0.1679                 0.1984
 IR Inten    --      0.6050                 1.2294                 0.2422

                     10                     11                     12
                      A                      A                      A
 Frequencies --    491.2567               520.9814               705.7368
 Red. masses --      2.6323                 3.1329                 2.6568
 Frc consts  --      0.3743                 0.5010                 0.7796
 IR Inten    --      2.3844                 4.2023                 1.9136

                     13                     14                     15
                      A                      A                      A
 Frequencies --    837.2233               869.2550               935.7431
 Red. masses --      2.5985                 4.0578                 1.7797
 Frc consts  --      1.0731                 1.8065                 0.9181
 IR Inten    --      3.5879                24.2338                 3.0947

                     16                     17                     18
                      A                      A                      A
 Frequencies --    939.9864               950.5182               961.4897
 Red. masses --      1.8849                 2.7294                 1.2134
 Frc consts  --      0.9813                 1.4529                 0.6609
 IR Inten    --      2.9973                22.9775                 0.3548

                     19                     20                     21
                      A                      A                      A
 Frequencies --    993.5345              1041.3866              1069.5742
 Red. masses --      1.3160                 1.3610                 1.4726
 Frc consts  --      0.7654                 0.8696                 0.9926
 IR Inten    --      2.6860                 0.2255                 3.8792

                     22                     23                     24
                      A                      A                      A
 Frequencies --   1105.7534              1158.9310              1180.4468
 Red. masses --      1.2208                 1.3755                 1.3618
 Frc consts  --      0.8794                 1.0885                 1.1180
 IR Inten    --      2.1294                 0.1365                 1.2604

                     25                     26                     27
                      A                      A                      A
 Frequencies --   1232.4428              1242.7864              1276.2889
 Red. masses --      2.4046                 2.7444                 2.4628
 Frc consts  --      2.1519                 2.4974                 2.3636
 IR Inten    --      8.2858                 3.2907                 6.1562

                     28                     29                     30
                      A                      A                      A
 Frequencies --   1318.9528              1393.1376              1396.7348
 Red. masses --      1.8083                 1.2483                 1.2246
 Frc consts  --      1.8535                 1.4274                 1.4076
 IR Inten    --      4.0674                 6.4651                 4.9280

                     31                     32                     33
                      A                      A                      A
 Frequencies --   1413.2856              1443.9166              1479.1280
 Red. masses --      1.4335                 1.4068                 1.0503
 Frc consts  --      1.6870                 1.7281                 1.3539
 IR Inten    --      0.8624                 7.8749                 0.0225

                     34                     35                     36
                      A                      A                      A
 Frequencies --   1486.6279              1491.5793              1502.3663
 Red. masses --      1.0460                 1.0490                 1.0593
 Frc consts  --      1.3620                 1.3750                 1.4088
 IR Inten    --      0.1021                 0.0524                 5.4973

                     37                     38                     39
                      A                      A                      A
 Frequencies --   1505.2260              1524.0584              1531.0561
 Red. masses --      1.0679                 1.0962                 1.2990
 Frc consts  --      1.4255                 1.5002                 1.7940
 IR Inten    --      5.6247                13.8596                 2.2426

                     40                     41                     42
                      A                      A                      A
 Frequencies --   3024.2279              3028.1462              3036.8349
 Red. masses --      1.0346                 1.0350                 1.0361
 Frc consts  --      5.5752                 5.5919                 5.6301
 IR Inten    --     23.3820                25.6747                13.9562

                     43                     44                     45
                      A                      A                      A
 Frequencies --   3067.2793              3088.8498              3091.2686
 Red. masses --      1.0841                 1.0561                 1.1002
 Frc consts  --      6.0093                 5.9365                 6.1943
 IR Inten    --     25.8249                21.0122                 1.6259

                     46                     47                     48
                      A                      A                      A
 Frequencies --   3095.7368              3097.0651              3101.9278
 Red. masses --      1.1009                 1.1010                 1.1000
 Frc consts  --      6.2161                 6.2218                 6.2362
 IR Inten    --     49.3988                 2.3042                70.2698

                     49                     50                     51
                      A                      A                      A
 Frequencies --   3108.5454              3118.2979              3175.9835
 Red. masses --      1.1016                 1.1013                 1.1174
 Frc consts  --      6.2720                 6.3093                 6.6407
 IR Inten    --     17.9210                21.5428                25.0424

 - Thermochemistry -
 -------------------
 Temperature   298.150 Kelvin.  Pressure   1.00000 Atm.
 Atom     1 has atomic number  6 and mass  12.00000

 Molecular mass:   100.08882 amu.
 Principal axes and moments of inertia in atomic units:
                           1         2         3
     Eigenvalues --   472.11071 882.47625 929.33071
           X            0.99931   0.03703  -0.00376
           Y           -0.03716   0.99841  -0.04246
           Z            0.00219   0.04257   0.99909
 This molecule is an asymmetric top.
 Rotational symmetry number  1.
 Warning -- assumption of classical behavior for rotation
           may cause significant error
 Rotational temperatures (Kelvin)      0.18346     0.09815     0.09320
 Rotational constants (GHZ):           3.82271     2.04509     1.94198
 Zero-point vibrational energy     445080.3 (Joules/Mol)
                                  106.37674 (Kcal/Mol)
 Warning -- explicit consideration of  11 degrees of freedom as
           vibrations may cause significant error
 Vibrational temperatures:    120.21   292.74   324.53   364.19   369.40
          (Kelvin)            415.56   466.32   511.16   557.38   706.81
                              749.58  1015.40  1204.58  1250.66  1346.33
                             1352.43  1367.58  1383.37  1429.47  1498.32
                             1538.88  1590.93  1667.44  1698.40  1773.21
                             1788.09  1836.29  1897.68  2004.41  2009.59
                             2033.40  2077.47  2128.14  2138.93  2146.05
                             2161.57  2165.68  2192.78  2202.85  4351.19
                             4356.83  4369.33  4413.13  4444.17  4447.65
                             4454.07  4455.99  4462.98  4472.50  4486.54
                             4569.53

 Zero-point correction=                           0.169522 (Hartree/Particle)
 Thermal correction to Energy=                    0.177793
 Thermal correction to Enthalpy=                  0.178738
 Thermal correction to Gibbs Free Energy=         0.137699
 Sum of electronic and zero-point Energies=           -310.906811
 Sum of electronic and thermal Energies=              -310.898540
 Sum of electronic and thermal Enthalpies=            -310.897596
 Sum of electronic and thermal Free Energies=         -310.938634

                     E (Thermal)             CV                S
                      KCal/Mol        Cal/Mol-Kelvin    Cal/Mol-Kelvin
 Total                  111.567             30.977             86.373
 Electronic               0.000              0.000              0.000
 Translational            0.889              2.981             39.721
 Rotational               0.889              2.981             27.451
 Vibrational            109.790             25.016             19.201
 Vibration     1          0.600              1.961              3.806
 Vibration     2          0.639              1.835              2.102
 Vibration     3          0.650              1.802              1.914
 Vibration     4          0.664              1.758              1.709
 Vibration     5          0.666              1.751              1.684
 Vibration     6          0.685              1.694              1.481
 Vibration     7          0.709              1.627              1.289
 Vibration     8          0.731              1.564              1.143
 Vibration     9          0.756              1.497              1.010
 Vibration    10          0.847              1.269              0.680
 Vibration    11          0.876              1.204              0.608

 Optimization completed.
    -- Stationary point found.
 Normal termination of Gaussian 16 at Thu Feb 18 11:39:54 2021.
