 Gaussian 16, Revision A.03,
 Gaussian 16:  ES64L-G16RevA.03 25-Dec-2016

 -----------------------------
 # opt freq b3lyp/6-31g(2df,p)
 -----------------------------

 -------------------
 Title Card Required
 -------------------
 Symbolic Z-matrix:
 Charge =  0 Multiplicity = 1

 SCF Done:  E(RB3LYP) =  -434.242242767     A.U. after   14 cycles
 SCF Done:  E(RB3LYP) =  -434.252324190     A.U. after   14 cycles
 SCF Done:  E(RB3LYP) =  -434.260393306     A.U. after   15 cycles
 SCF Done:  E(RB3LYP) =  -434.263316910     A.U. after   13 cycles
 SCF Done:  E(RB3LYP) =  -434.265028617     A.U. after   13 cycles
 SCF Done:  E(RB3LYP) =  -434.265457029     A.U. after   12 cycles
 SCF Done:  E(RB3LYP) =  -434.265638183     A.U. after   12 cycles
 SCF Done:  E(RB3LYP) =  -434.265726660     A.U. after   11 cycles
 SCF Done:  E(RB3LYP) =  -434.265752749     A.U. after   10 cycles
 SCF Done:  E(RB3LYP) =  -434.265758601     A.U. after    8 cycles
 SCF Done:  E(RB3LYP) =  -434.265761038     A.U. after    8 cycles
 SCF Done:  E(RB3LYP) =  -434.265761730     A.U. after    8 cycles
 SCF Done:  E(RB3LYP) =  -434.265761999     A.U. after    7 cycles
 Optimization completed.
    -- Stationary point found.
 Normal termination of Gaussian 16 at Tue Mar  9 02:03:55 2021.

 ----------------------------------------------------------------------
 #N Geom=AllCheck Guess=TCheck SCRF=Check GenChk RB3LYP/6-31G(2df,p) Fr
 eq
 ----------------------------------------------------------------------

 Structure from the checkpoint file:  "CCpdOpn1ccnc1N.chk"
 -------------------
 Title Card Required
 -------------------
 Charge =  0 Multiplicity = 1

                         Standard orientation:
 ---------------------------------------------------------------------
 Center     Atomic      Atomic             Coordinates (Angstroms)
 Number     Number       Type             X           Y           Z
 ---------------------------------------------------------------------
      1          6           0        2.420577   -0.988624    0.020687
      2          6           0        1.414029    0.139096   -0.006712
      3          8           0        1.743920    1.308607   -0.060644
      4          7           0        0.073306   -0.238685    0.029868
      5          6           0       -0.470300   -1.543840    0.007674
      6          6           0       -1.811780   -1.374803   -0.027094
      7          7           0       -2.166507   -0.032133   -0.025882
      8          6           0       -1.036974    0.623476    0.012947
      9          7           0       -0.897638    1.972508    0.093978
     10          1           0        3.418720   -0.552666    0.015402
     11          1           0        2.300930   -1.637338   -0.852625
     12          1           0        2.292743   -1.606405    0.914598
     13          1           0        0.154703   -2.417551    0.014603
     14          1           0       -2.569729   -2.143136   -0.053785
     15          1           0       -1.719155    2.498614   -0.154931
     16          1           0        0.012992    2.345971   -0.128872
 ---------------------------------------------------------------------

 SCF Done:  E(RB3LYP) =  -434.265761999     A.U. after    1 cycles

 The electronic state is 1-A.
 Alpha  occ. eigenvalues --  -19.14130 -14.39452 -14.34197 -14.29844 -10.31444
 Alpha  occ. eigenvalues --  -10.27865 -10.20813 -10.20577 -10.20050  -1.07227
 Alpha  occ. eigenvalues --   -1.01247  -0.91305  -0.88037  -0.76317  -0.73156
 Alpha  occ. eigenvalues --   -0.64899  -0.60583  -0.56919  -0.52242  -0.49648
 Alpha  occ. eigenvalues --   -0.48400  -0.47514  -0.44666  -0.43452  -0.43003
 Alpha  occ. eigenvalues --   -0.42131  -0.40171  -0.37658  -0.32147  -0.28501
 Alpha  occ. eigenvalues --   -0.27979  -0.26852  -0.19996
 Alpha virt. eigenvalues --   -0.03174   0.06327   0.08088   0.08843   0.10446
 Alpha virt. eigenvalues --    0.13238   0.14439   0.15568   0.15788   0.16583
 Alpha virt. eigenvalues --    0.17531   0.20496   0.23777   0.27374   0.27943

 Mulliken charges:
               1
     1  C   -0.501415
     2  C    0.429416
     3  O   -0.350732
     4  N   -0.135544
     5  C   -0.131854
     6  C   -0.089899
     7  N   -0.354502
     8  C    0.461038
     9  N   -0.586275
    10  H    0.155231
    11  H    0.155507
    12  H    0.155587
    13  H    0.129869
    14  H    0.115252
    15  H    0.265764
    16  H    0.282558
 Sum of Mulliken charges =  -0.00000

 Dipole moment (field-independent basis, Debye):
    X=              1.8851    Y=             -1.3947    Z=             -0.5102  Tot=              2.3998
 Quadrupole moment (field-independent basis, Debye-Ang):
   XX=            -55.1350   YY=            -44.9138   ZZ=            -52.8395
   XY=             -5.7447   XZ=              0.8024   YZ=             -1.5305

  Exact polarizability:  93.219   1.105  87.738   0.417  -0.082  39.553
 Approx polarizability: 144.136   8.175 142.381   0.634   0.469  63.343

                      1                      2                      3
                      A                      A                      A
 Frequencies --     91.7653               139.1055               176.3135
 Red. masses --      3.9573                 5.1593                 1.0941
 Frc consts  --      0.0196                 0.0588                 0.0200
 IR Inten    --      1.4456                 2.4444                 0.4943

                      4                      5                      6
                      A                      A                      A
 Frequencies --    246.6093               299.8391               354.9854
 Red. masses --      3.9832                 4.2339                 2.9329
 Frc consts  --      0.1427                 0.2243                 0.2178
 IR Inten    --      5.9776                 9.7427                 8.0967

                      7                      8                      9
                      A                      A                      A
 Frequencies --    432.8541               438.4990               509.5439
 Red. masses --      2.7860                 1.3265                 1.8099
 Frc consts  --      0.3075                 0.1503                 0.2769
 IR Inten    --      4.9135               189.8661                47.5144

                     10                     11                     12
                      A                      A                      A
 Frequencies --    524.5395               593.3323               612.5843
 Red. masses --      2.4657                 2.4984                 3.8238
 Frc consts  --      0.3997                 0.5182                 0.8454
 IR Inten    --      5.5589                17.4268                 8.3620

                     13                     14                     15
                      A                      A                      A
 Frequencies --    653.6475               655.9952               752.8598
 Red. masses --      1.3400                 2.9356                 6.1729
 Frc consts  --      0.3373                 0.7443                 2.0614
 IR Inten    --     32.8712                23.8968                 3.5908

                     16                     17                     18
                      A                      A                      A
 Frequencies --    760.0966               875.0989               909.4634
 Red. masses --      6.5574                 1.3103                 5.3592
 Frc consts  --      2.2321                 0.5912                 2.6117
 IR Inten    --      7.5410                 5.7187                 4.7888

                     19                     20                     21
                      A                      A                      A
 Frequencies --    963.4479              1057.4383              1064.0006
 Red. masses --      2.6121                 1.7987                 1.7823
 Frc consts  --      1.4286                 1.1850                 1.1888
 IR Inten    --     29.4404                 5.5461                39.5416

                     22                     23                     24
                      A                      A                      A
 Frequencies --   1076.5573              1146.2078              1206.7375
 Red. masses --      1.7494                 1.6310                 2.2770
 Frc consts  --      1.1946                 1.2625                 1.9536
 IR Inten    --      8.0425                 5.6288                48.8554

                     25                     26                     27
                      A                      A                      A
 Frequencies --   1233.3752              1325.0351              1368.0719
 Red. masses --      4.8877                 2.1385                 2.8465
 Frc consts  --      4.3807                 2.2121                 3.1389
 IR Inten    --      6.8585               160.8655                81.1861

                     28                     29                     30
                      A                      A                      A
 Frequencies --   1399.1736              1438.3238              1471.2575
 Red. masses --      1.7903                 2.6355                 1.0666
 Frc consts  --      2.0650                 3.2123                 1.3603
 IR Inten    --     99.9063               202.3395                 5.7659

                     31                     32                     33
                      A                      A                      A
 Frequencies --   1480.0915              1562.5156              1584.3258
 Red. masses --      1.0455                 1.5884                 4.2364
 Frc consts  --      1.3494                 2.2849                 6.2653
 IR Inten    --      8.4403                48.7981                21.9491

                     34                     35                     36
                      A                      A                      A
 Frequencies --   1667.6732              1782.0145              3049.9738
 Red. masses --      4.0539                 9.5297                 1.0373
 Frc consts  --      6.6427                17.8300                 5.6850
 IR Inten    --    295.9766               289.9723                 1.5609

                     37                     38                     39
                      A                      A                      A
 Frequencies --   3115.5364              3166.9501              3249.4418
 Red. masses --      1.0996                 1.1015                 1.0936
 Frc consts  --      6.2883                 6.5092                 6.8035
 IR Inten    --      3.8773                 5.1272                 7.4597

                     40                     41                     42
                      A                      A                      A
 Frequencies --   3308.7597              3568.0511              3708.1143
 Red. masses --      1.1012                 1.0462                 1.1018
 Frc consts  --      7.1030                 7.8475                 8.9257
 IR Inten    --      0.7795                61.0851                85.1225

 - Thermochemistry -
 -------------------
 Temperature   298.150 Kelvin.  Pressure   1.00000 Atm.
 Atom     1 has atomic number  6 and mass  12.00000

 Molecular mass:   125.05891 amu.
 Principal axes and moments of inertia in atomic units:
                           1         2         3
     Eigenvalues --   641.882061104.639301733.39957
           X            0.99784  -0.06569   0.00201
           Y            0.06570   0.99783  -0.00395
           Z           -0.00175   0.00407   0.99999
 This molecule is an asymmetric top.
 Rotational symmetry number  1.
 Warning -- assumption of classical behavior for rotation
           may cause significant error
 Rotational temperatures (Kelvin)      0.13494     0.07841     0.04997
 Rotational constants (GHZ):           2.81164     1.63378     1.04116
 Zero-point vibrational energy     329093.9 (Joules/Mol)
                                   78.65533 (Kcal/Mol)
 Warning -- explicit consideration of  12 degrees of freedom as
           vibrations may cause significant error
 Vibrational temperatures:    132.03   200.14   253.68   354.82   431.40
          (Kelvin)            510.74   622.78   630.90   733.12   754.70
                              853.67   881.37   940.45   943.83  1083.20
                             1093.61  1259.07  1308.52  1386.19  1521.42
                             1530.86  1548.93  1649.14  1736.23  1774.55
                             1906.43  1968.35  2013.10  2069.43  2116.81
                             2129.52  2248.11  2279.49  2399.41  2563.92
                             4388.23  4482.56  4556.53  4675.22  4760.57
                             5133.63  5335.15

 Zero-point correction=                           0.125345 (Hartree/Particle)
 Thermal correction to Energy=                    0.133544
 Thermal correction to Enthalpy=                  0.134488
 Thermal correction to Gibbs Free Energy=         0.092676
 Sum of electronic and zero-point Energies=           -434.140417
 Sum of electronic and thermal Energies=              -434.132218
 Sum of electronic and thermal Enthalpies=            -434.131274
 Sum of electronic and thermal Free Energies=         -434.173086

                     E (Thermal)             CV                S
                      KCal/Mol        Cal/Mol-Kelvin    Cal/Mol-Kelvin
 Total                   83.800             31.058             88.001
 Electronic               0.000              0.000              0.000
 Translational            0.889              2.981             40.385
 Rotational               0.889              2.981             28.599
 Vibrational             82.023             25.096             19.018
 Vibration     1          0.602              1.955              3.622
 Vibration     2          0.615              1.914              2.816
 Vibration     3          0.628              1.872              2.367
 Vibration     4          0.661              1.768              1.755
 Vibration     5          0.692              1.674              1.418
 Vibration     6          0.731              1.565              1.144
 Vibration     7          0.794              1.399              0.849
 Vibration     8          0.799              1.386              0.831
 Vibration     9          0.865              1.229              0.635
 Vibration    10          0.879              1.196              0.600
 Vibration    11          0.951              1.046              0.461
 Vibration    12          0.972              1.005              0.429

                           ! Non-Optimized Parameters !
 Normal termination of Gaussian 16 at Tue Mar  9 02:33:03 2021.
