 Gaussian 16, Revision A.03,
 Gaussian 16:  ES64L-G16RevA.03 25-Dec-2016

 -----------------------------------------------
 # opt freq b3lyp/6-31g(2df,p) geom=connectivity
 -----------------------------------------------

 -------------------
 Title Card Required
 -------------------
 Symbolic Z-matrix:
 Charge =  0 Multiplicity = 1

 SCF Done:  E(RB3LYP) =  -494.713818782     A.U. after   25 cycles
 SCF Done:  E(RB3LYP) =  -494.814539961     A.U. after   16 cycles
 SCF Done:  E(RB3LYP) =  -494.912230876     A.U. after   16 cycles
 SCF Done:  E(RB3LYP) =  -494.979554989     A.U. after   14 cycles
 SCF Done:  E(RB3LYP) =  -495.006380069     A.U. after   16 cycles
 SCF Done:  E(RB3LYP) =  -495.010086231     A.U. after   14 cycles
 SCF Done:  E(RB3LYP) =  -495.015700735     A.U. after   14 cycles
 SCF Done:  E(RB3LYP) =  -495.015984574     A.U. after   14 cycles
 SCF Done:  E(RB3LYP) =  -495.021392738     A.U. after   13 cycles
 SCF Done:  E(RB3LYP) =  -495.024336886     A.U. after   14 cycles
 SCF Done:  E(RB3LYP) =  -495.034125521     A.U. after   12 cycles
 SCF Done:  E(RB3LYP) =  -495.034535271     A.U. after   12 cycles
 SCF Done:  E(RB3LYP) =  -495.034610182     A.U. after   13 cycles
 SCF Done:  E(RB3LYP) =  -495.034851990     A.U. after   12 cycles
 SCF Done:  E(RB3LYP) =  -495.034916025     A.U. after   11 cycles
 SCF Done:  E(RB3LYP) =  -495.034922631     A.U. after   11 cycles
 SCF Done:  E(RB3LYP) =  -495.034928560     A.U. after    9 cycles
 SCF Done:  E(RB3LYP) =  -495.034929582     A.U. after    9 cycles
 SCF Done:  E(RB3LYP) =  -495.034929786     A.U. after    8 cycles
 Optimization completed.
    -- Stationary point found.
 Normal termination of Gaussian 16 at Thu Feb 18 00:17:42 2021.

 ----------------------------------------------------------------------
 #N Geom=AllCheck Guess=TCheck SCRF=Check GenChk RB3LYP/6-31G(2df,p) Fr
 eq
 ----------------------------------------------------------------------

 Structure from the checkpoint file:  "CCpdOpCpOppCdOpCdO.chk"
 -------------------
 Title Card Required
 -------------------
 Charge =  0 Multiplicity = 1

                         Standard orientation:
 ---------------------------------------------------------------------
 Center     Atomic      Atomic             Coordinates (Angstroms)
 Number     Number       Type             X           Y           Z
 ---------------------------------------------------------------------
      1          6           0        2.280408   -0.123550    0.883741
      2          1           0        3.298275   -0.038125    0.502706
      3          1           0        2.100685    0.612055    1.674210
      4          1           0        2.119482   -1.104392    1.341990
      5          6           0        1.304628    0.083844   -0.242749
      6          8           0        1.610960    0.321225   -1.388997
      7          6           0       -0.199092   -0.005849    0.105346
      8          6           0       -0.847429    1.325967   -0.394394
      9          1           0       -0.443811    1.682940   -1.361764
     10          6           0       -0.786002   -1.138026   -0.743932
     11          1           0       -0.536483   -1.122900   -1.818271
     12          8           0       -0.447923   -0.226063    1.448949
     13          1           0       -1.086066   -0.957384    1.490924
     14          8           0       -1.471631   -1.983839   -0.228705
     15          8           0       -1.687300    1.897863    0.234019
 ---------------------------------------------------------------------

 SCF Done:  E(RB3LYP) =  -495.034929786     A.U. after    1 cycles

 The electronic state is 1-A.
 Alpha  occ. eigenvalues --  -19.18424 -19.16885 -19.16568 -19.16335 -10.30835
 Alpha  occ. eigenvalues --  -10.30277 -10.29598 -10.27740 -10.20709  -1.10099
 Alpha  occ. eigenvalues --   -1.07930  -1.07335  -1.04713  -0.79671  -0.75863
 Alpha  occ. eigenvalues --   -0.64131  -0.61474  -0.56685  -0.55168  -0.51143
 Alpha  occ. eigenvalues --   -0.50355  -0.47456  -0.46292  -0.45227  -0.44502
 Alpha  occ. eigenvalues --   -0.43019  -0.40862  -0.40281  -0.38762  -0.37641
 Alpha  occ. eigenvalues --   -0.33074  -0.31029  -0.28276  -0.25788
 Alpha virt. eigenvalues --   -0.07512  -0.05402  -0.00658   0.07937   0.10763
 Alpha virt. eigenvalues --    0.11578   0.13390   0.14488   0.15418   0.15843
 Alpha virt. eigenvalues --    0.21721   0.22817   0.23899   0.25205   0.28065

 Mulliken charges:
               1
     1  C   -0.474715
     2  H    0.146856
     3  H    0.167010
     4  H    0.158206
     5  C    0.328066
     6  O   -0.309501
     7  C    0.091524
     8  C    0.124343
     9  H    0.126862
    10  C    0.124360
    11  H    0.137748
    12  O   -0.447495
    13  H    0.303077
    14  O   -0.258066
    15  O   -0.218274
 Sum of Mulliken charges =  -0.00000

 Dipole moment (field-independent basis, Debye):
    X=              1.7700    Y=             -0.9117    Z=             -0.1543  Tot=              1.9970
 Quadrupole moment (field-independent basis, Debye-Ang):
   XX=            -53.3869   YY=            -54.7437   ZZ=            -51.5664
   XY=              0.6175   XZ=              5.6715   YZ=             -1.4918

  Exact polarizability:  70.513   0.765  63.661  -1.946  -1.855  62.783
 Approx polarizability: 104.478   3.001 103.173 -14.145  -2.896 103.703

                      1                      2                      3
                      A                      A                      A
 Frequencies --     64.9743                81.8324               137.0580
 Red. masses --      4.5272                 7.8692                 1.3455
 Frc consts  --      0.0113                 0.0310                 0.0149
 IR Inten    --      1.3071                 4.4723                 2.5386

                      4                      5                      6
                      A                      A                      A
 Frequencies --    153.1137               209.6896               229.8522
 Red. masses --      2.6961                 4.9397                 2.9112
 Frc consts  --      0.0372                 0.1280                 0.0906
 IR Inten    --      2.7010                13.1022                 1.1238

                      7                      8                      9
                      A                      A                      A
 Frequencies --    281.9279               322.3401               343.0931
 Red. masses --      3.5574                 3.1043                 5.2785
 Frc consts  --      0.1666                 0.1900                 0.3661
 IR Inten    --      6.3001                12.7086                 7.6441

                     10                     11                     12
                      A                      A                      A
 Frequencies --    386.6065               443.3660               506.5661
 Red. masses --      5.2621                 1.5784                 2.5673
 Frc consts  --      0.4634                 0.1828                 0.3882
 IR Inten    --      4.4992                61.2393                 9.9070

                     13                     14                     15
                      A                      A                      A
 Frequencies --    577.8047               591.6768               713.1286
 Red. masses --      2.7067                 3.6164                 5.1621
 Frc consts  --      0.5324                 0.7459                 1.5467
 IR Inten    --      0.3051                15.3990                74.8463

                     16                     17                     18
                      A                      A                      A
 Frequencies --    842.8801               851.5328               866.6292
 Red. masses --      3.7656                 5.6581                 3.1624
 Frc consts  --      1.5762                 2.4173                 1.3994
 IR Inten    --     40.2926                26.8314                74.8037

                     19                     20                     21
                      A                      A                      A
 Frequencies --    980.5345               986.2161              1076.0104
 Red. masses --      1.8942                 1.6448                 2.0589
 Frc consts  --      1.0730                 0.9426                 1.4045
 IR Inten    --     30.9410                 2.6301                 0.3759

                     22                     23                     24
                      A                      A                      A
 Frequencies --   1078.5217              1192.8459              1262.9445
 Red. masses --      2.2352                 3.4738                 5.6765
 Frc consts  --      1.5319                 2.9123                 5.3346
 IR Inten    --     23.6931               165.1000                61.0058

                     25                     26                     27
                      A                      A                      A
 Frequencies --   1357.2785              1373.1591              1385.8773
 Red. masses --      1.1745                 1.1861                 1.3069
 Frc consts  --      1.2748                 1.3176                 1.4789
 IR Inten    --     22.9955                82.7623                25.2116

                     28                     29                     30
                      A                      A                      A
 Frequencies --   1403.0721              1450.0621              1459.8945
 Red. masses --      1.3598                 1.0577                 1.0510
 Frc consts  --      1.5771                 1.3103                 1.3197
 IR Inten    --     42.2068                14.5222                 8.5105

                     31                     32                     33
                      A                      A                      A
 Frequencies --   1783.3253              1800.8991              1858.5445
 Red. masses --     10.5422                10.4748                10.4768
 Frc consts  --     19.7534                20.0158                21.3219
 IR Inten    --    232.8072               174.6914               136.9456

                     34                     35                     36
                      A                      A                      A
 Frequencies --   2950.5081              3002.4353              3049.4904
 Red. masses --      1.0884                 1.0899                 1.0350
 Frc consts  --      5.5826                 5.7886                 5.6709
 IR Inten    --     38.0151                31.2916                 0.1391

                     37                     38                     39
                      A                      A                      A
 Frequencies --   3112.2631              3162.5180              3676.6123
 Red. masses --      1.0972                 1.1048                 1.0645
 Frc consts  --      6.2615                 6.5106                 8.4782
 IR Inten    --      1.1515                 6.5377                74.8032

 - Thermochemistry -
 -------------------
 Temperature   298.150 Kelvin.  Pressure   1.00000 Atm.
 Atom     1 has atomic number  6 and mass  12.00000

 Molecular mass:   130.02661 amu.
 Principal axes and moments of inertia in atomic units:
                           1         2         3
     Eigenvalues --   940.412891223.943391473.79579
           X            0.99857  -0.00091   0.05353
           Y            0.00257   0.99952  -0.03093
           Z           -0.05348   0.03103   0.99809
 This molecule is an asymmetric top.
 Rotational symmetry number  1.
 Warning -- assumption of classical behavior for rotation
           may cause significant error
 Rotational temperatures (Kelvin)      0.09210     0.07077     0.05877
 Rotational constants (GHZ):           1.91909     1.47453     1.22455
 Zero-point vibrational energy     281164.8 (Joules/Mol)
                                   67.20000 (Kcal/Mol)
 Warning -- explicit consideration of  14 degrees of freedom as
           vibrations may cause significant error
 Vibrational temperatures:     93.48   117.74   197.20   220.30   301.70
          (Kelvin)            330.71   405.63   463.78   493.63   556.24
                              637.90   728.84   831.33   851.29  1026.03
                             1212.72  1225.17  1246.89  1410.77  1418.94
                             1548.14  1551.75  1716.24  1817.10  1952.82
                             1975.67  1993.97  2018.71  2086.32  2100.46
                             2565.81  2591.09  2674.03  4245.12  4319.83
                             4387.54  4477.85  4550.16  5289.83

 Zero-point correction=                           0.107090 (Hartree/Particle)
 Thermal correction to Energy=                    0.116727
 Thermal correction to Enthalpy=                  0.117672
 Thermal correction to Gibbs Free Energy=         0.072185
 Sum of electronic and zero-point Energies=           -494.927840
 Sum of electronic and thermal Energies=              -494.918202
 Sum of electronic and thermal Enthalpies=            -494.917258
 Sum of electronic and thermal Free Energies=         -494.962745

                     E (Thermal)             CV                S
                      KCal/Mol        Cal/Mol-Kelvin    Cal/Mol-Kelvin
 Total                   73.248             33.471             95.735
 Electronic               0.000              0.000              0.000
 Translational            0.889              2.981             40.501
 Rotational               0.889              2.981             28.919
 Vibrational             71.470             27.510             26.316
 Vibration     1          0.597              1.971              4.300
 Vibration     2          0.600              1.962              3.846
 Vibration     3          0.614              1.916              2.845
 Vibration     4          0.619              1.899              2.633
 Vibration     5          0.642              1.826              2.046
 Vibration     6          0.652              1.795              1.880
 Vibration     7          0.681              1.707              1.522
 Vibration     8          0.707              1.631              1.298
 Vibration     9          0.722              1.589              1.198
 Vibration    10          0.755              1.499              1.013
 Vibration    11          0.803              1.376              0.816
 Vibration    12          0.862              1.235              0.642
 Vibration    13          0.934              1.079              0.489
 Vibration    14          0.949              1.050              0.464

 Optimization completed.
    -- Stationary point found.
 Normal termination of Gaussian 16 at Thu Feb 18 00:46:33 2021.
