 Gaussian 16, Revision A.03,
 Gaussian 16:  ES64L-G16RevA.03 25-Dec-2016

 -----------------------------
 # opt freq b3lyp/6-31g(2df,p)
 -----------------------------

 -------------------
 Title Card Required
 -------------------
 Symbolic Z-matrix:
 Charge =  0 Multiplicity = 1

 SCF Done:  E(RB3LYP) =  -461.497061501     A.U. after   12 cycles
 SCF Done:  E(RB3LYP) =  -461.507524405     A.U. after   11 cycles
 SCF Done:  E(RB3LYP) =  -461.508532838     A.U. after   10 cycles
 SCF Done:  E(RB3LYP) =  -461.508868916     A.U. after   10 cycles
 SCF Done:  E(RB3LYP) =  -461.509230895     A.U. after   10 cycles
 SCF Done:  E(RB3LYP) =  -461.510281584     A.U. after   11 cycles
 SCF Done:  E(RB3LYP) =  -461.512354695     A.U. after   11 cycles
 SCF Done:  E(RB3LYP) =  -461.512893471     A.U. after   10 cycles
 SCF Done:  E(RB3LYP) =  -461.513142550     A.U. after   10 cycles
 SCF Done:  E(RB3LYP) =  -461.513383343     A.U. after   10 cycles
 SCF Done:  E(RB3LYP) =  -461.513495254     A.U. after   10 cycles
 SCF Done:  E(RB3LYP) =  -461.513664194     A.U. after   10 cycles
 SCF Done:  E(RB3LYP) =  -461.513694367     A.U. after    9 cycles
 SCF Done:  E(RB3LYP) =  -461.513702636     A.U. after    9 cycles
 SCF Done:  E(RB3LYP) =  -461.513704173     A.U. after    9 cycles
 SCF Done:  E(RB3LYP) =  -461.513705179     A.U. after    7 cycles
 SCF Done:  E(RB3LYP) =  -461.513705652     A.U. after    7 cycles
 SCF Done:  E(RB3LYP) =  -461.513705702     A.U. after    7 cycles
 Optimization completed.
    -- Stationary point found.
 Normal termination of Gaussian 16 at Tue Mar  9 01:57:06 2021.

 ----------------------------------------------------------------------
 #N Geom=AllCheck Guess=TCheck SCRF=Check GenChk RB3LYP/6-31G(2df,p) Fr
 eq
 ----------------------------------------------------------------------

 Structure from the checkpoint file:  "CCpOpCC1pOpCOC1.chk"
 -------------------
 Title Card Required
 -------------------
 Charge =  0 Multiplicity = 1

                         Standard orientation:
 ---------------------------------------------------------------------
 Center     Atomic      Atomic             Coordinates (Angstroms)
 Number     Number       Type             X           Y           Z
 ---------------------------------------------------------------------
      1          6           0       -2.858719    0.436341    0.646709
      2          6           0       -1.533712   -0.165825    0.175414
      3          8           0       -1.737258   -1.005657   -0.961015
      4          6           0       -0.480456    0.923316   -0.106852
      5          6           0        0.990750    0.494525   -0.106888
      6          8           0        1.809690    1.531646   -0.608695
      7          6           0        1.481510   -0.187966    1.198408
      8          8           0        1.526968   -1.470875    0.547700
      9          6           0        1.347628   -0.861542   -0.753261
     10          1           0       -3.604445   -0.352828    0.772778
     11          1           0       -3.242386    1.157716   -0.086268
     12          1           0       -2.741768    0.961620    1.599993
     13          1           0       -1.158156   -0.849967    0.943735
     14          1           0       -2.124461   -0.464011   -1.658264
     15          1           0       -0.589320    1.721966    0.642472
     16          1           0       -0.705407    1.379649   -1.080702
     17          1           0        1.540471    2.360084   -0.196944
     18          1           0        0.809987   -0.187045    2.066470
     19          1           0        2.476586    0.164515    1.501377
     20          1           0        0.572570   -1.361124   -1.336086
     21          1           0        2.289122   -0.804582   -1.313659
 ---------------------------------------------------------------------

 SCF Done:  E(RB3LYP) =  -461.513705702     A.U. after    1 cycles

 The electronic state is 1-A.
 Alpha  occ. eigenvalues --  -19.14344 -19.14029 -19.12707 -10.24159 -10.23977
 Alpha  occ. eigenvalues --  -10.22112 -10.21454 -10.19205 -10.18319  -1.04286
 Alpha  occ. eigenvalues --   -1.02188  -1.01460  -0.78974  -0.73537  -0.68572
 Alpha  occ. eigenvalues --   -0.67632  -0.61335  -0.55287  -0.52140  -0.49714
 Alpha  occ. eigenvalues --   -0.47916  -0.47140  -0.44301  -0.43360  -0.41872
 Alpha  occ. eigenvalues --   -0.40509  -0.39412  -0.38440  -0.37148  -0.35984
 Alpha  occ. eigenvalues --   -0.33458  -0.32293  -0.30166  -0.27808  -0.26238
 Alpha  occ. eigenvalues --   -0.24068
 Alpha virt. eigenvalues --    0.06044   0.06986   0.09498   0.10804   0.12306
 Alpha virt. eigenvalues --    0.12846   0.12949   0.14594   0.16444   0.16494
 Alpha virt. eigenvalues --    0.17701   0.18292   0.18801   0.20983   0.22103

 Mulliken charges:
               1
     1  C   -0.405140
     2  C    0.121943
     3  O   -0.419304
     4  C   -0.281494
     5  C    0.339665
     6  O   -0.468986
     7  C   -0.117913
     8  O   -0.276684
     9  C   -0.110981
    10  H    0.128423
    11  H    0.107036
    12  H    0.116929
    13  H    0.112491
    14  H    0.276002
    15  H    0.088486
    16  H    0.095534
    17  H    0.276114
    18  H    0.090380
    19  H    0.097345
    20  H    0.129325
    21  H    0.100829
 Sum of Mulliken charges =   0.00000

 Dipole moment (field-independent basis, Debye):
    X=             -2.0002    Y=              3.2067    Z=              0.3211  Tot=              3.7930
 Quadrupole moment (field-independent basis, Debye-Ang):
   XX=            -56.2401   YY=            -56.8254   ZZ=            -51.8480
   XY=             -0.2829   XZ=              2.1575   YZ=              2.1321

  Exact polarizability:  81.156  -0.381  70.026  -0.523   2.488  71.993
 Approx polarizability: 100.663   0.703 105.763   0.354   2.447 107.982

                      1                      2                      3
                      A                      A                      A
 Frequencies --     54.5603                89.3713               124.4420
 Red. masses --      3.8333                 5.8095                 2.9809
 Frc consts  --      0.0067                 0.0273                 0.0272
 IR Inten    --      0.7095                 1.6221                 0.6808

                      4                      5                      6
                      A                      A                      A
 Frequencies --    199.4149               248.7200               266.5240
 Red. masses --      2.5742                 1.1476                 1.2965
 Frc consts  --      0.0603                 0.0418                 0.0543
 IR Inten    --      1.9561                 0.8828                63.0469

                      7                      8                      9
                      A                      A                      A
 Frequencies --    291.2377               314.6290               326.5246
 Red. masses --      1.5540                 1.7181                 1.7085
 Frc consts  --      0.0777                 0.1002                 0.1073
 IR Inten    --     87.1643                13.4827                40.7007

                     10                     11                     12
                      A                      A                      A
 Frequencies --    352.6550               424.1197               439.6943
 Red. masses --      2.8708                 3.0570                 2.4588
 Frc consts  --      0.2104                 0.3240                 0.2801
 IR Inten    --      8.4309                10.6406                10.3388

                     13                     14                     15
                      A                      A                      A
 Frequencies --    478.6434               519.4795               658.9951
 Red. masses --      2.5202                 2.8078                 4.0909
 Frc consts  --      0.3402                 0.4464                 1.0467
 IR Inten    --      3.5891                16.7296                 1.0694

                     16                     17                     18
                      A                      A                      A
 Frequencies --    840.3211               849.8194               876.1079
 Red. masses --      3.0999                 2.3840                 1.8947
 Frc consts  --      1.2897                 1.0144                 0.8569
 IR Inten    --      6.8613                 6.0041                 5.1695

                     19                     20                     21
                      A                      A                      A
 Frequencies --    927.7623               958.9487               964.8881
 Red. masses --      2.1093                 1.6567                 1.6090
 Frc consts  --      1.0697                 0.8976                 0.8826
 IR Inten    --     14.2925                 9.4022                14.9067

                     22                     23                     24
                      A                      A                      A
 Frequencies --    994.8460              1003.4851              1028.7883
 Red. masses --      4.1407                 2.2523                 9.4678
 Frc consts  --      2.4146                 1.3363                 5.9040
 IR Inten    --      5.9452                13.1133                67.2873

                     25                     26                     27
                      A                      A                      A
 Frequencies --   1065.0046              1110.5288              1140.6881
 Red. masses --      1.7052                 2.5396                 2.2156
 Frc consts  --      1.1395                 1.8453                 1.6985
 IR Inten    --     44.7833                46.8428                28.3396

                     28                     29                     30
                      A                      A                      A
 Frequencies --   1157.0819              1163.6804              1171.1381
 Red. masses --      1.1123                 1.8501                 1.4087
 Frc consts  --      0.8774                 1.4761                 1.1384
 IR Inten    --      5.1563                95.1820                 1.1496

                     31                     32                     33
                      A                      A                      A
 Frequencies --   1231.7934              1244.1364              1303.6632
 Red. masses --      1.7240                 1.6242                 1.3153
 Frc consts  --      1.5412                 1.4812                 1.3171
 IR Inten    --      9.9087                26.0302                 1.5229

                     34                     35                     36
                      A                      A                      A
 Frequencies --   1318.9197              1324.6643              1354.4191
 Red. masses --      1.5137                 1.4209                 1.4255
 Frc consts  --      1.5514                 1.4690                 1.5407
 IR Inten    --     22.0298                13.5644                18.2344

                     37                     38                     39
                      A                      A                      A
 Frequencies --   1384.1216              1402.9610              1420.9354
 Red. masses --      1.6191                 1.2624                 1.5669
 Frc consts  --      1.8275                 1.4640                 1.8640
 IR Inten    --     23.0236                 2.1296                15.4296

                     40                     41                     42
                      A                      A                      A
 Frequencies --   1423.2350              1471.9163              1492.4865
 Red. masses --      1.2574                 1.0952                 1.0613
 Frc consts  --      1.5006                 1.3980                 1.3929
 IR Inten    --     37.1097                 0.4667                 6.3378

                     43                     44                     45
                      A                      A                      A
 Frequencies --   1496.2513              1498.6306              1525.9420
 Red. masses --      1.0566                 1.0732                 1.1138
 Frc consts  --      1.3937                 1.4201                 1.5281
 IR Inten    --      2.1203                 2.4690                 6.6241

                     46                     47                     48
                      A                      A                      A
 Frequencies --   2992.0668              3000.8956              3023.0507
 Red. masses --      1.0606                 1.0540                 1.0405
 Frc consts  --      5.5942                 5.5925                 5.6027
 IR Inten    --     22.3087                73.7016                23.5634

                     49                     50                     51
                      A                      A                      A
 Frequencies --   3028.0648              3036.2854              3050.8131
 Red. masses --      1.0650                 1.0981                 1.1102
 Frc consts  --      5.7533                 5.9643                 6.0884
 IR Inten    --     36.2158                18.0794                49.7846

                     52                     53                     54
                      A                      A                      A
 Frequencies --   3064.2014              3095.2008              3120.9096
 Red. masses --      1.0858                 1.0967                 1.1016
 Frc consts  --      6.0066                 6.1901                 6.3216
 IR Inten    --     10.4125                39.1587                19.8432

                     55                     56                     57
                      A                      A                      A
 Frequencies --   3127.5829              3792.1064              3799.9834
 Red. masses --      1.1014                 1.0658                 1.0659
 Frc consts  --      6.3479                 9.0304                 9.0684
 IR Inten    --      9.3063                13.6436                12.0791

 - Thermochemistry -
 -------------------
 Temperature   298.150 Kelvin.  Pressure   1.00000 Atm.
 Atom     1 has atomic number  6 and mass  12.00000

 Molecular mass:   132.07864 amu.
 Principal axes and moments of inertia in atomic units:
                           1         2         3
     Eigenvalues --   726.561971618.234211819.24083
           X            0.99983  -0.01539  -0.00993
           Y            0.01591   0.99837   0.05480
           Z            0.00907  -0.05495   0.99845
 This molecule is an asymmetric top.
 Rotational symmetry number  1.
 Warning -- assumption of classical behavior for rotation
           may cause significant error
 Rotational temperatures (Kelvin)      0.11921     0.05352     0.04761
 Rotational constants (GHZ):           2.48395     1.11525     0.99203
 Zero-point vibrational energy     472927.7 (Joules/Mol)
                                  113.03243 (Kcal/Mol)
 Warning -- explicit consideration of  14 degrees of freedom as
           vibrations may cause significant error
 Vibrational temperatures:     78.50   128.59   179.04   286.91   357.85
          (Kelvin)            383.47   419.03   452.68   469.80   507.39
                              610.21   632.62   688.66   747.42   948.15
                             1209.03  1222.70  1260.52  1334.84  1379.71
                             1388.26  1431.36  1443.79  1480.20  1532.30
                             1597.80  1641.20  1664.78  1674.28  1685.01
                             1772.28  1790.03  1875.68  1897.63  1905.90
                             1948.71  1991.44  2018.55  2044.41  2047.72
                             2117.76  2147.36  2152.77  2156.20  2195.49
                             4304.92  4317.62  4349.50  4356.71  4368.54
                             4389.44  4408.70  4453.30  4490.29  4499.89
                             5456.00  5467.33

 Zero-point correction=                           0.180129 (Hartree/Particle)
 Thermal correction to Energy=                    0.190152
 Thermal correction to Enthalpy=                  0.191096
 Thermal correction to Gibbs Free Energy=         0.145051
 Sum of electronic and zero-point Energies=           -461.333577
 Sum of electronic and thermal Energies=              -461.323554
 Sum of electronic and thermal Enthalpies=            -461.322610
 Sum of electronic and thermal Free Energies=         -461.368655

                     E (Thermal)             CV                S
                      KCal/Mol        Cal/Mol-Kelvin    Cal/Mol-Kelvin
 Total                  119.322             37.226             96.909
 Electronic               0.000              0.000              0.000
 Translational            0.889              2.981             40.547
 Rotational               0.889              2.981             29.149
 Vibrational            117.544             31.264             27.213
 Vibration     1          0.596              1.976              4.645
 Vibration     2          0.602              1.957              3.674
 Vibration     3          0.610              1.929              3.030
 Vibration     4          0.638              1.841              2.138
 Vibration     5          0.662              1.765              1.740
 Vibration     6          0.672              1.735              1.619
 Vibration     7          0.687              1.690              1.467
 Vibration     8          0.702              1.646              1.338
 Vibration     9          0.710              1.622              1.277
 Vibration    10          0.729              1.570              1.154
 Vibration    11          0.786              1.418              0.878
 Vibration    12          0.800              1.384              0.828
 Vibration    13          0.835              1.297              0.714
 Vibration    14          0.874              1.207              0.611

 Optimization completed.
    -- Stationary point found.
 Normal termination of Gaussian 16 at Tue Mar  9 02:33:19 2021.
