 Gaussian 16, Revision A.03,
 Gaussian 16:  ES64L-G16RevA.03 25-Dec-2016

 -----------------------------
 # opt freq b3lyp/6-31g(2df,p)
 -----------------------------

 -----
 Title
 -----
 Symbolic Z-matrix:
 Charge =  0 Multiplicity = 1

 SCF Done:  E(RB3LYP) =  -460.268348163     A.U. after   13 cycles
 SCF Done:  E(RB3LYP) =  -460.290261116     A.U. after   13 cycles
 SCF Done:  E(RB3LYP) =  -460.297312497     A.U. after   13 cycles
 SCF Done:  E(RB3LYP) =  -460.295714705     A.U. after   13 cycles
 SCF Done:  E(RB3LYP) =  -460.298033232     A.U. after   12 cycles
 SCF Done:  E(RB3LYP) =  -460.298503235     A.U. after   12 cycles
 SCF Done:  E(RB3LYP) =  -460.298844395     A.U. after   14 cycles
 SCF Done:  E(RB3LYP) =  -460.298861946     A.U. after   12 cycles
 SCF Done:  E(RB3LYP) =  -460.299276978     A.U. after   11 cycles
 SCF Done:  E(RB3LYP) =  -460.299558988     A.U. after   13 cycles
 SCF Done:  E(RB3LYP) =  -460.301322540     A.U. after   13 cycles
 SCF Done:  E(RB3LYP) =  -460.301483744     A.U. after   11 cycles
 SCF Done:  E(RB3LYP) =  -460.301522731     A.U. after   11 cycles
 SCF Done:  E(RB3LYP) =  -460.301526712     A.U. after   11 cycles
 SCF Done:  E(RB3LYP) =  -460.301545291     A.U. after   10 cycles
 SCF Done:  E(RB3LYP) =  -460.301550201     A.U. after    8 cycles
 SCF Done:  E(RB3LYP) =  -460.301554692     A.U. after    9 cycles
 SCF Done:  E(RB3LYP) =  -460.301556749     A.U. after    8 cycles
 SCF Done:  E(RB3LYP) =  -460.301557458     A.U. after    8 cycles
 Optimization completed.
    -- Stationary point found.
 Normal termination of Gaussian 16 at Thu Feb 18 13:47:13 2021.

 ----------------------------------------------------------------------
 #N Geom=AllCheck Guess=TCheck SCRF=Check GenChk RB3LYP/6-31G(2df,p) Fr
 eq
 ----------------------------------------------------------------------

 Structure from the checkpoint file:  "CCpOppCdOpC1pOpCC1.chk"
 -----
 Title
 -----
 Charge =  0 Multiplicity = 1

                         Standard orientation:
 ---------------------------------------------------------------------
 Center     Atomic      Atomic             Coordinates (Angstroms)
 Number     Number       Type             X           Y           Z
 ---------------------------------------------------------------------
      1          6           0       -0.604062    1.705221   -0.834800
      2          6           0       -0.546619    0.495743    0.104599
      3          8           0       -0.819657    0.899232    1.452145
      4          6           0       -1.693725   -0.452978   -0.276751
      5          8           0       -1.586927   -1.593110   -0.650655
      6          6           0        0.785958   -0.249783    0.131991
      7          8           0        0.748074   -1.428416    0.883057
      8          6           0        1.741503   -0.225527   -1.039628
      9          6           0        2.079929    0.492152    0.250542
     10          1           0       -1.596909    2.168763   -0.780986
     11          1           0       -0.429081    1.428021   -1.877048
     12          1           0        0.130996    2.455924   -0.533901
     13          1           0       -1.543014    1.536040    1.439448
     14          1           0       -2.699390    0.013405   -0.146904
     15          1           0        0.168085   -2.034688    0.403213
     16          1           0        1.521033    0.368093   -1.918919
     17          1           0        2.251896   -1.160188   -1.240569
     18          1           0        2.070702    1.575628    0.260294
     19          1           0        2.815859    0.038378    0.903286
 ---------------------------------------------------------------------

 SCF Done:  E(RB3LYP) =  -460.301557458     A.U. after    1 cycles

 The electronic state is 1-A.
 Alpha  occ. eigenvalues --  -19.16058 -19.15396 -19.12828 -10.28412 -10.25845
 Alpha  occ. eigenvalues --  -10.24058 -10.20214 -10.18458 -10.18325  -1.06990
 Alpha  occ. eigenvalues --   -1.03770  -1.01530  -0.84720  -0.77771  -0.68109
 Alpha  occ. eigenvalues --   -0.62496  -0.60548  -0.56006  -0.52197  -0.50297
 Alpha  occ. eigenvalues --   -0.49073  -0.46608  -0.45437  -0.43449  -0.42710
 Alpha  occ. eigenvalues --   -0.40971  -0.39431  -0.37608  -0.36265  -0.34796
 Alpha  occ. eigenvalues --   -0.32395  -0.31714  -0.28676  -0.25457  -0.24974
 Alpha virt. eigenvalues --   -0.03916   0.05554   0.10050   0.10302   0.10894
 Alpha virt. eigenvalues --    0.12441   0.13432   0.15087   0.16014   0.17357
 Alpha virt. eigenvalues --    0.18397   0.18736   0.21542   0.22771   0.23863

 Mulliken charges:
               1
     1  C   -0.470772
     2  C    0.175652
     3  O   -0.452191
     4  C    0.158086
     5  O   -0.268059
     6  C    0.458703
     7  O   -0.480296
     8  C   -0.333859
     9  C   -0.310490
    10  H    0.114073
    11  H    0.141779
    12  H    0.143296
    13  H    0.283767
    14  H    0.077810
    15  H    0.292630
    16  H    0.107107
    17  H    0.120550
    18  H    0.112062
    19  H    0.130152
 Sum of Mulliken charges =  -0.00000

 Dipole moment (field-independent basis, Debye):
    X=             -1.2009    Y=              3.0294    Z=             -1.5403  Tot=              3.6044
 Quadrupole moment (field-independent basis, Debye-Ang):
   XX=            -50.4238   YY=            -52.0736   ZZ=            -56.6687
   XY=             -4.3907   XZ=             -2.4733   YZ=              0.1622

  Exact polarizability:  77.681  -1.802  73.851  -0.556   2.202  63.296
 Approx polarizability: 102.464  -1.493 113.468   0.096   7.135  99.915

                      1                      2                      3
                      A                      A                      A
 Frequencies --     51.3772                91.4844               203.3114
 Red. masses --      3.6338                 5.1174                 1.1549
 Frc consts  --      0.0057                 0.0252                 0.0281
 IR Inten    --      0.9260                 6.6786                80.7137

                      4                      5                      6
                      A                      A                      A
 Frequencies --    204.5420               233.6764               264.8382
 Red. masses --      3.2309                 1.4415                 2.6730
 Frc consts  --      0.0796                 0.0464                 0.1105
 IR Inten    --     14.4925                 0.5214                 3.0027

                      7                      8                      9
                      A                      A                      A
 Frequencies --    294.1087               328.0588               357.6878
 Red. masses --      3.2313                 2.0851                 2.7532
 Frc consts  --      0.1647                 0.1322                 0.2075
 IR Inten    --      2.9437                 2.4931                 1.9973

                     10                     11                     12
                      A                      A                      A
 Frequencies --    366.9247               422.2319               435.2691
 Red. masses --      3.1460                 3.9485                 2.8262
 Frc consts  --      0.2496                 0.4147                 0.3155
 IR Inten    --      2.8207                 8.6890                13.7791

                     13                     14                     15
                      A                      A                      A
 Frequencies --    506.1645               561.6699               622.4858
 Red. masses --      2.2278                 1.3572                 3.5837
 Frc consts  --      0.3363                 0.2523                 0.8182
 IR Inten    --     16.4662               127.9200                 3.2353

                     16                     17                     18
                      A                      A                      A
 Frequencies --    650.4534               769.2117               882.5622
 Red. masses --      4.4126                 1.0431                 1.9294
 Frc consts  --      1.1000                 0.3636                 0.8855
 IR Inten    --     16.8310                 1.3428                19.0850

                     19                     20                     21
                      A                      A                      A
 Frequencies --    887.5425               919.0068               944.0355
 Red. masses --      2.3194                 1.5851                 1.7975
 Frc consts  --      1.0765                 0.7888                 0.9438
 IR Inten    --     11.3490                10.6829                28.4811

                     22                     23                     24
                      A                      A                      A
 Frequencies --    950.9242               985.4975               997.8798
 Red. masses --      2.6275                 2.1105                 2.2440
 Frc consts  --      1.3999                 1.2076                 1.3165
 IR Inten    --     15.7496                 1.9334                 7.4584

                     25                     26                     27
                      A                      A                      A
 Frequencies --   1056.9095              1077.3642              1101.2460
 Red. masses --      1.4874                 1.4230                 1.9450
 Frc consts  --      0.9790                 0.9731                 1.3898
 IR Inten    --     15.0866                 0.7887                31.6814

                     28                     29                     30
                      A                      A                      A
 Frequencies --   1139.5452              1185.6534              1195.2734
 Red. masses --      3.5084                 1.4750                 2.1984
 Frc consts  --      2.6843                 1.2216                 1.8505
 IR Inten    --     55.7649                 2.2987                 4.8967

                     31                     32                     33
                      A                      A                      A
 Frequencies --   1261.2447              1282.6117              1361.5401
 Red. masses --      2.1207                 2.0901                 1.6046
 Frc consts  --      1.9876                 2.0259                 1.7526
 IR Inten    --     59.3883                75.2118                25.5238

                     34                     35                     36
                      A                      A                      A
 Frequencies --   1396.7557              1406.4578              1432.3019
 Red. masses --      1.3607                 1.3496                 1.3230
 Frc consts  --      1.5640                 1.5730                 1.5991
 IR Inten    --      1.6563                47.2933                 6.9555

                     37                     38                     39
                      A                      A                      A
 Frequencies --   1452.6464              1494.6921              1500.0171
 Red. masses --      1.0928                 1.1726                 1.1000
 Frc consts  --      1.3586                 1.5435                 1.4582
 IR Inten    --      3.0279                10.9051                 9.5645

                     40                     41                     42
                      A                      A                      A
 Frequencies --   1503.3206              1824.7229              2851.2839
 Red. masses --      1.3571                10.9837                 1.0831
 Frc consts  --      1.8071                21.5474                 5.1879
 IR Inten    --      5.2376               138.1456               128.5918

                     43                     44                     45
                      A                      A                      A
 Frequencies --   3031.1058              3099.7850              3133.3087
 Red. masses --      1.0416                 1.0926                 1.0963
 Frc consts  --      5.6384                 6.1856                 6.3416
 IR Inten    --     17.5746                18.2770                 2.5650

                     46                     47                     48
                      A                      A                      A
 Frequencies --   3143.1658              3146.8182              3225.1063
 Red. masses --      1.0577                 1.0569                 1.1180
 Frc consts  --      6.1568                 6.1662                 6.8515
 IR Inten    --     17.0475                 7.6020                 1.0352

                     49                     50                     51
                      A                      A                      A
 Frequencies --   3239.1231              3757.3130              3800.9449
 Red. masses --      1.1156                 1.0650                 1.0662
 Frc consts  --      6.8962                 8.8582                 9.0754
 IR Inten    --     11.2142                64.2937                16.0588

 - Thermochemistry -
 -------------------
 Temperature   298.150 Kelvin.  Pressure   1.00000 Atm.
 Atom     1 has atomic number  6 and mass  12.00000

 Molecular mass:   130.06299 amu.
 Principal axes and moments of inertia in atomic units:
                           1         2         3
     Eigenvalues --   866.258721141.370301372.63574
           X            0.99765  -0.06667  -0.01559
           Y            0.06584   0.99663  -0.04889
           Z            0.01880   0.04775   0.99868
 This molecule is an asymmetric top.
 Rotational symmetry number  1.
 Warning -- assumption of classical behavior for rotation
           may cause significant error
 Rotational temperatures (Kelvin)      0.09999     0.07589     0.06310
 Rotational constants (GHZ):           2.08337     1.58121     1.31480
 Zero-point vibrational energy     406916.9 (Joules/Mol)
                                   97.25548 (Kcal/Mol)
 Warning -- explicit consideration of  14 degrees of freedom as
           vibrations may cause significant error
 Vibrational temperatures:     73.92   131.63   292.52   294.29   336.21
          (Kelvin)            381.04   423.16   472.00   514.63   527.92
                              607.50   626.26   728.26   808.12   895.62
                              935.86  1106.72  1269.81  1276.98  1322.25
                             1358.26  1368.17  1417.91  1435.73  1520.66
                             1550.09  1584.45  1639.55  1705.89  1719.73
                             1814.65  1845.39  1958.95  2009.62  2023.58
                             2060.76  2090.03  2150.53  2158.19  2162.94
                             2625.37  4102.36  4361.09  4459.90  4508.13
                             4522.31  4527.57  4640.21  4660.38  5405.94
                             5468.71

 Zero-point correction=                           0.154986 (Hartree/Particle)
 Thermal correction to Energy=                    0.164879
 Thermal correction to Enthalpy=                  0.165823
 Thermal correction to Gibbs Free Energy=         0.120450
 Sum of electronic and zero-point Energies=           -460.146571
 Sum of electronic and thermal Energies=              -460.136678
 Sum of electronic and thermal Enthalpies=            -460.135734
 Sum of electronic and thermal Free Energies=         -460.181108

                     E (Thermal)             CV                S
                      KCal/Mol        Cal/Mol-Kelvin    Cal/Mol-Kelvin
 Total                  103.463             37.096             95.497
 Electronic               0.000              0.000              0.000
 Translational            0.889              2.981             40.502
 Rotational               0.889              2.981             28.697
 Vibrational            101.686             31.134             26.299
 Vibration     1          0.596              1.977              4.764
 Vibration     2          0.602              1.955              3.628
 Vibration     3          0.639              1.835              2.103
 Vibration     4          0.640              1.833              2.092
 Vibration     5          0.654              1.789              1.851
 Vibration     6          0.671              1.737              1.630
 Vibration     7          0.689              1.685              1.450
 Vibration     8          0.711              1.619              1.270
 Vibration     9          0.733              1.559              1.132
 Vibration    10          0.740              1.540              1.093
 Vibration    11          0.785              1.422              0.884
 Vibration    12          0.796              1.393              0.842
 Vibration    13          0.861              1.236              0.643
 Vibration    14          0.917              1.114              0.521

                           ! Non-Optimized Parameters !
 Normal termination of Gaussian 16 at Thu Feb 18 14:20:24 2021.
