 Gaussian 16, Revision A.03,
 Gaussian 16:  ES64L-G16RevA.03 25-Dec-2016

 -----------------------------
 # opt freq b3lyp/6-31g(2df,p)
 -----------------------------

 -----
 Title
 -----
 Symbolic Z-matrix:
 Charge =  0 Multiplicity = 1

 SCF Done:  E(RB3LYP) =  -426.850505921     A.U. after   12 cycles
 SCF Done:  E(RB3LYP) =  -426.857289892     A.U. after   10 cycles
 SCF Done:  E(RB3LYP) =  -426.857652410     A.U. after   11 cycles
 SCF Done:  E(RB3LYP) =  -426.857850331     A.U. after   10 cycles
 SCF Done:  E(RB3LYP) =  -426.858258430     A.U. after   10 cycles
 SCF Done:  E(RB3LYP) =  -426.858361679     A.U. after   10 cycles
 SCF Done:  E(RB3LYP) =  -426.858385674     A.U. after    9 cycles
 SCF Done:  E(RB3LYP) =  -426.858397311     A.U. after    9 cycles
 SCF Done:  E(RB3LYP) =  -426.858405700     A.U. after    9 cycles
 SCF Done:  E(RB3LYP) =  -426.858406619     A.U. after    7 cycles
 SCF Done:  E(RB3LYP) =  -426.858406823     A.U. after    7 cycles
 SCF Done:  E(RB3LYP) =  -426.858406854     A.U. after    6 cycles
 Optimization completed.
    -- Stationary point found.
 Normal termination of Gaussian 16 at Sun Feb 28 01:57:49 2021.

 ----------------------------------------------------------------------
 #N Geom=AllCheck Guess=TCheck SCRF=Check GenChk RB3LYP/6-31G(2df,p) Fr
 eq
 ----------------------------------------------------------------------

 Structure from the checkpoint file:  "CCpOpCpCpCpCppCpO.chk"
 -----
 Title
 -----
 Charge =  0 Multiplicity = 1

                         Standard orientation:
 ---------------------------------------------------------------------
 Center     Atomic      Atomic             Coordinates (Angstroms)
 Number     Number       Type             X           Y           Z
 ---------------------------------------------------------------------
      1          6           0        2.781452    0.332697   -0.127242
      2          6           0        1.423048   -0.235749    0.298369
      3          8           0        1.420905   -1.650109    0.093504
      4          6           0        0.225592    0.490308   -0.364284
      5          6           0        0.293655    1.996956   -0.044844
      6          6           0       -1.190345   -0.099150   -0.021658
      7          6           0       -1.435428   -1.469224   -0.670337
      8          6           0       -1.444619   -0.171916    1.486230
      9          8           0       -2.198291    0.800183   -0.519394
     10          1           0        3.576444   -0.284270    0.300149
     11          1           0        2.927208    1.361950    0.207897
     12          1           0        2.886356    0.317284   -1.220058
     13          1           0        1.328514   -0.126414    1.385250
     14          1           0        1.568717   -1.809713   -0.845450
     15          1           0        0.343026    0.374985   -1.455598
     16          1           0        1.116393    2.479695   -0.577486
     17          1           0        0.447477    2.171275    1.026319
     18          1           0       -0.637811    2.485138   -0.331240
     19          1           0       -0.783477   -2.236335   -0.254342
     20          1           0       -1.255147   -1.421783   -1.752849
     21          1           0       -2.480704   -1.754483   -0.517685
     22          1           0       -0.781287   -0.898582    1.961208
     23          1           0       -2.478261   -0.480276    1.664545
     24          1           0       -1.300270    0.802394    1.960725
     25          1           0       -2.178218    0.755007   -1.481677
 ---------------------------------------------------------------------

 SCF Done:  E(RB3LYP) =  -426.858406854     A.U. after    1 cycles

 The electronic state is 1-A.
 Alpha  occ. eigenvalues --  -19.13569 -19.12664 -10.23290 -10.23156 -10.18528
 Alpha  occ. eigenvalues --  -10.17576 -10.16686 -10.16447 -10.16402  -1.01770
 Alpha  occ. eigenvalues --   -1.00948  -0.80017  -0.75313  -0.71328  -0.68352
 Alpha  occ. eigenvalues --   -0.64149  -0.59963  -0.55690  -0.49503  -0.47740
 Alpha  occ. eigenvalues --   -0.45909  -0.43915  -0.43686  -0.41857  -0.40398
 Alpha  occ. eigenvalues --   -0.38547  -0.37870  -0.37572  -0.37046  -0.36201
 Alpha  occ. eigenvalues --   -0.35375  -0.34716  -0.32825  -0.31289  -0.30434
 Alpha  occ. eigenvalues --   -0.26554  -0.25717
 Alpha virt. eigenvalues --    0.06543   0.08432   0.10150   0.11465   0.12265
 Alpha virt. eigenvalues --    0.13906   0.15199   0.16065   0.16522   0.16858
 Alpha virt. eigenvalues --    0.17285   0.18628   0.19035   0.19804   0.21052

 Mulliken charges:
               1
     1  C   -0.411519
     2  C    0.135521
     3  O   -0.428685
     4  C   -0.041483
     5  C   -0.410287
     6  C    0.368350
     7  C   -0.439981
     8  C   -0.408967
     9  O   -0.457057
    10  H    0.123375
    11  H    0.124303
    12  H    0.104255
    13  H    0.093598
    14  H    0.274414
    15  H    0.043970
    16  H    0.109266
    17  H    0.113410
    18  H    0.132556
    19  H    0.141551
    20  H    0.085858
    21  H    0.113013
    22  H    0.127566
    23  H    0.119133
    24  H    0.117214
    25  H    0.270627
 Sum of Mulliken charges =  -0.00000

 Dipole moment (field-independent basis, Debye):
    X=              1.0940    Y=              0.1198    Z=             -1.6785  Tot=              2.0071
 Quadrupole moment (field-independent basis, Debye-Ang):
   XX=            -60.3176   YY=            -60.7721   ZZ=            -53.2733
   XY=              2.5909   XZ=              0.0277   YZ=              1.7465

  Exact polarizability:  91.374   2.740  83.807  -0.438   1.452  79.096
 Approx polarizability: 118.048  -0.517 118.262   0.298   1.124 121.175

                      1                      2                      3
                      A                      A                      A
 Frequencies --     39.5583                82.1267               188.2707
 Red. masses --      3.5004                 2.6892                 1.3695
 Frc consts  --      0.0032                 0.0107                 0.0286
 IR Inten    --      1.0721                 0.1003                 1.9097

                      4                      5                      6
                      A                      A                      A
 Frequencies --    205.5045               231.6501               239.1359
 Red. masses --      1.6064                 1.1819                 1.2062
 Frc consts  --      0.0400                 0.0374                 0.0406
 IR Inten    --      0.4951                 1.5606                 3.8520

                      7                      8                      9
                      A                      A                      A
 Frequencies --    257.1636               278.2860               307.6327
 Red. masses --      1.5190                 1.9332                 1.2891
 Frc consts  --      0.0592                 0.0882                 0.0719
 IR Inten    --      3.1801                17.7752                 7.8380

                     10                     11                     12
                      A                      A                      A
 Frequencies --    312.8300               327.9599               343.6286
 Red. masses --      1.1595                 1.4900                 2.8278
 Frc consts  --      0.0669                 0.0944                 0.1967
 IR Inten    --    100.0768                75.6622                 2.0852

                     13                     14                     15
                      A                      A                      A
 Frequencies --    355.6912               393.3780               411.6499
 Red. masses --      2.1470                 2.6126                 3.1787
 Frc consts  --      0.1600                 0.2382                 0.3174
 IR Inten    --      0.7086                12.2177                 5.0621

                     16                     17                     18
                      A                      A                      A
 Frequencies --    469.8150               476.4642               518.4161
 Red. masses --      2.6352                 2.7804                 3.4479
 Frc consts  --      0.3427                 0.3719                 0.5460
 IR Inten    --      6.1556                 8.0624                22.5093

                     19                     20                     21
                      A                      A                      A
 Frequencies --    562.5989               730.3436               837.0015
 Red. masses --      2.7843                 2.6895                 2.2116
 Frc consts  --      0.5192                 0.8452                 0.9129
 IR Inten    --      2.7500                 1.2066                 7.2514

                     22                     23                     24
                      A                      A                      A
 Frequencies --    879.4746               931.2183               933.8205
 Red. masses --      2.3063                 1.7648                 1.5979
 Frc consts  --      1.0510                 0.9017                 0.8210
 IR Inten    --      8.6910                15.3370                 4.5327

                     25                     26                     27
                      A                      A                      A
 Frequencies --    961.1372               975.9736              1004.1525
 Red. masses --      2.1804                 1.3246                 1.2917
 Frc consts  --      1.1867                 0.7434                 0.7674
 IR Inten    --     18.4448                11.5674                 3.9471

                     28                     29                     30
                      A                      A                      A
 Frequencies --   1046.5700              1059.8092              1071.0002
 Red. masses --      2.7554                 1.8567                 1.5688
 Frc consts  --      1.7781                 1.2287                 1.0602
 IR Inten    --     30.5830                 3.0033                40.4537

                     31                     32                     33
                      A                      A                      A
 Frequencies --   1118.6396              1149.5186              1162.0775
 Red. masses --      2.1552                 1.7545                 2.1045
 Frc consts  --      1.5890                 1.3660                 1.6744
 IR Inten    --     32.7525                42.0948                16.4669

                     34                     35                     36
                      A                      A                      A
 Frequencies --   1202.8948              1229.9745              1259.8472
 Red. masses --      2.1138                 2.1862                 1.6298
 Frc consts  --      1.8021                 1.9486                 1.5241
 IR Inten    --     29.3445                47.2395                11.0477

                     37                     38                     39
                      A                      A                      A
 Frequencies --   1309.7993              1330.6964              1364.2341
 Red. masses --      1.3827                 1.4341                 1.4002
 Frc consts  --      1.3976                 1.4962                 1.5354
 IR Inten    --      8.1175                10.7512                13.8949

                     40                     41                     42
                      A                      A                      A
 Frequencies --   1383.6697              1399.2655              1400.7546
 Red. masses --      1.2701                 1.2529                 1.3093
 Frc consts  --      1.4326                 1.4453                 1.5136
 IR Inten    --      2.9685                 5.9884                12.3648

                     43                     44                     45
                      A                      A                      A
 Frequencies --   1407.3078              1421.1614              1422.4540
 Red. masses --      1.2482                 1.3205                 1.2732
 Frc consts  --      1.4565                 1.5713                 1.5178
 IR Inten    --      4.2602                28.5070                38.3677

                     46                     47                     48
                      A                      A                      A
 Frequencies --   1482.8559              1488.4924              1491.6853
 Red. masses --      1.0492                 1.0643                 1.0491
 Frc consts  --      1.3593                 1.3894                 1.3753
 IR Inten    --      0.6950                 0.3213                 8.8804

                     49                     50                     51
                      A                      A                      A
 Frequencies --   1493.3384              1501.3585              1508.5495
 Red. masses --      1.0585                 1.0545                 1.0571
 Frc consts  --      1.3908                 1.4005                 1.4174
 IR Inten    --      0.9406                 7.4750                 0.9245

                     52                     53                     54
                      A                      A                      A
 Frequencies --   1514.3389              1515.9531              2952.3033
 Red. masses --      1.0550                 1.0453                 1.0814
 Frc consts  --      1.4254                 1.4153                 5.5536
 IR Inten    --      2.9629                 5.1261                29.1607

                     55                     56                     57
                      A                      A                      A
 Frequencies --   3016.8610              3023.1044              3040.1785
 Red. masses --      1.0470                 1.0459                 1.0455
 Frc consts  --      5.6144                 5.6316                 5.6936
 IR Inten    --     32.9172                13.9133                16.0210

                     58                     59                     60
                      A                      A                      A
 Frequencies --   3044.9734              3051.3088              3089.9836
 Red. masses --      1.0699                 1.0425                 1.0920
 Frc consts  --      5.8449                 5.7185                 6.1432
 IR Inten    --     14.0341                27.2617                29.1832

                     61                     62                     63
                      A                      A                      A
 Frequencies --   3101.2454              3106.6587              3120.0678
 Red. masses --      1.0932                 1.0960                 1.1013
 Frc consts  --      6.1948                 6.2321                 6.3167
 IR Inten    --     35.4241                32.8141                22.5147

                     64                     65                     66
                      A                      A                      A
 Frequencies --   3129.2908              3130.6020              3148.5787
 Red. masses --      1.1006                 1.1018                 1.0984
 Frc consts  --      6.3498                 6.3620                 6.4156
 IR Inten    --     23.2728                15.2280                 6.9475

                     67                     68                     69
                      A                      A                      A
 Frequencies --   3159.2199              3796.4400              3798.7141
 Red. masses --      1.0969                 1.0659                 1.0659
 Frc consts  --      6.4504                 9.0512                 9.0625
 IR Inten    --      6.1224                12.1808                11.0879

 - Thermochemistry -
 -------------------
 Temperature   298.150 Kelvin.  Pressure   1.00000 Atm.
 Atom     1 has atomic number  6 and mass  12.00000

 Molecular mass:   132.11503 amu.
 Principal axes and moments of inertia in atomic units:
                           1         2         3
     Eigenvalues --   824.124141488.564441860.77575
           X            0.99843   0.05517  -0.00979
           Y           -0.05494   0.99824   0.02228
           Z            0.01100  -0.02171   0.99970
 This molecule is an asymmetric top.
 Rotational symmetry number  1.
 Warning -- assumption of classical behavior for rotation
           may cause significant error
 Rotational temperatures (Kelvin)      0.10510     0.05819     0.04655
 Rotational constants (GHZ):           2.18989     1.21240     0.96989
 Zero-point vibrational energy     590361.0 (Joules/Mol)
                                  141.09968 (Kcal/Mol)
 Warning -- explicit consideration of  19 degrees of freedom as
           vibrations may cause significant error
 Vibrational temperatures:     56.92   118.16   270.88   295.68   333.29
          (Kelvin)            344.06   370.00   400.39   442.61   450.09
                              471.86   494.40   511.76   565.98   592.27
                              675.96   685.53   745.89   809.45  1050.80
                             1204.26  1265.37  1339.82  1343.56  1382.86
                             1404.21  1444.75  1505.78  1524.83  1540.93
                             1609.47  1653.90  1671.97  1730.70  1769.66
                             1812.64  1884.51  1914.58  1962.83  1990.79
                             2013.23  2015.37  2024.80  2044.73  2046.59
                             2133.50  2141.61  2146.20  2148.58  2160.12
                             2170.47  2178.80  2181.12  4247.71  4340.59
                             4349.57  4374.14  4381.04  4390.15  4445.80
                             4462.00  4469.79  4489.08  4502.35  4504.24
                             4530.10  4545.41  5462.23  5465.50

 Zero-point correction=                           0.224857 (Hartree/Particle)
 Thermal correction to Energy=                    0.236558
 Thermal correction to Enthalpy=                  0.237502
 Thermal correction to Gibbs Free Energy=         0.188635
 Sum of electronic and zero-point Energies=           -426.633550
 Sum of electronic and thermal Energies=              -426.621849
 Sum of electronic and thermal Enthalpies=            -426.620905
 Sum of electronic and thermal Free Energies=         -426.669772

                     E (Thermal)             CV                S
                      KCal/Mol        Cal/Mol-Kelvin    Cal/Mol-Kelvin
 Total                  148.442             44.452            102.849
 Electronic               0.000              0.000              0.000
 Translational            0.889              2.981             40.548
 Rotational               0.889              2.981             29.214
 Vibrational            146.665             38.490             33.087
 Vibration     1          0.594              1.981              5.281
 Vibration     2          0.600              1.961              3.839
 Vibration     3          0.633              1.856              2.245
 Vibration     4          0.640              1.832              2.083
 Vibration     5          0.653              1.793              1.866
 Vibration     6          0.657              1.781              1.809
 Vibration     7          0.667              1.751              1.681
 Vibration     8          0.679              1.714              1.544
 Vibration     9          0.697              1.659              1.375
 Vibration    10          0.701              1.649              1.347
 Vibration    11          0.711              1.620              1.270
 Vibration    12          0.722              1.588              1.195
 Vibration    13          0.731              1.564              1.141
 Vibration    14          0.761              1.484              0.987
 Vibration    15          0.776              1.445              0.921
 Vibration    16          0.827              1.317              0.738
 Vibration    17          0.833              1.302              0.720
 Vibration    18          0.873              1.209              0.614
 Vibration    19          0.918              1.112              0.519

                           ! Non-Optimized Parameters !
 Normal termination of Gaussian 16 at Sun Feb 28 02:51:37 2021.
