 Gaussian 16, Revision A.03,
 Gaussian 16:  ES64L-G16RevA.03 25-Dec-2016

 -----------------------------
 # opt freq b3lyp/6-31g(2df,p)
 -----------------------------

 -------------------
 Title Card Required
 -------------------
 Symbolic Z-matrix:
 Charge =  0 Multiplicity = 1

 SCF Done:  E(RB3LYP) =  -388.443511222     A.U. after   14 cycles
 SCF Done:  E(RB3LYP) =  -388.465453775     A.U. after   12 cycles
 SCF Done:  E(RB3LYP) =  -388.467117586     A.U. after   11 cycles
 SCF Done:  E(RB3LYP) =  -388.464393036     A.U. after   13 cycles
 SCF Done:  E(RB3LYP) =  -388.467274929     A.U. after   10 cycles
 SCF Done:  E(RB3LYP) =  -388.467294503     A.U. after   10 cycles
 SCF Done:  E(RB3LYP) =  -388.467373497     A.U. after   10 cycles
 SCF Done:  E(RB3LYP) =  -388.467398011     A.U. after    9 cycles
 SCF Done:  E(RB3LYP) =  -388.467401342     A.U. after    8 cycles
 SCF Done:  E(RB3LYP) =  -388.467403617     A.U. after    8 cycles
 SCF Done:  E(RB3LYP) =  -388.467406488     A.U. after    9 cycles
 SCF Done:  E(RB3LYP) =  -388.467407539     A.U. after    9 cycles
 SCF Done:  E(RB3LYP) =  -388.467409325     A.U. after   10 cycles
 SCF Done:  E(RB3LYP) =  -388.467411789     A.U. after    8 cycles
 SCF Done:  E(RB3LYP) =  -388.467413627     A.U. after    8 cycles
 SCF Done:  E(RB3LYP) =  -388.467413969     A.U. after    8 cycles
 SCF Done:  E(RB3LYP) =  -388.467414393     A.U. after    9 cycles
 SCF Done:  E(RB3LYP) =  -388.467414426     A.U. after    8 cycles
 SCF Done:  E(RB3LYP) =  -388.467414425     A.U. after    5 cycles
 Optimization completed on the basis of negligible forces.
    -- Stationary point found.
 Normal termination of Gaussian 16 at Tue Mar  9 02:28:41 2021.

 ----------------------------------------------------------------------
 #N Geom=AllCheck Guess=TCheck SCRF=Check GenChk RB3LYP/6-31G(2df,p) Fr
 eq
 ----------------------------------------------------------------------

 Structure from the checkpoint file:  "CCtCCCCpCpOC.chk"
 -------------------
 Title Card Required
 -------------------
 Charge =  0 Multiplicity = 1

                         Standard orientation:
 ---------------------------------------------------------------------
 Center     Atomic      Atomic             Coordinates (Angstroms)
 Number     Number       Type             X           Y           Z
 ---------------------------------------------------------------------
      1          6           0        4.737672   -0.565427   -0.224662
      2          6           0        3.380276   -0.104069    0.030840
      3          6           0        2.261093    0.283903    0.247031
      4          6           0        0.893220    0.729707    0.491387
      5          6           0       -0.157703   -0.199690   -0.148172
      6          6           0       -1.605374    0.176096    0.180543
      7          6           0       -2.027489    1.530402   -0.397499
      8          8           0       -2.401208   -0.883588   -0.338669
      9          6           0       -3.697737   -0.974143    0.200464
     10          1           0        5.275973   -0.761025    0.709579
     11          1           0        5.313572    0.177629   -0.787708
     12          1           0        4.740116   -1.493940   -0.806581
     13          1           0        0.773182    1.751800    0.110935
     14          1           0        0.714905    0.789062    1.574344
     15          1           0        0.009576   -1.224093    0.197442
     16          1           0       -0.027997   -0.209438   -1.236171
     17          1           0       -1.723200    0.204045    1.279012
     18          1           0       -1.898431    1.533683   -1.484718
     19          1           0       -1.431442    2.344214    0.026152
     20          1           0       -3.075816    1.749656   -0.176406
     21          1           0       -4.151412   -1.882031   -0.205644
     22          1           0       -4.335930   -0.119927   -0.069931
     23          1           0       -3.677176   -1.051602    1.299461
 ---------------------------------------------------------------------

 SCF Done:  E(RB3LYP) =  -388.467414425     A.U. after    1 cycles

 The electronic state is 1-A.
 Alpha  occ. eigenvalues --  -19.13315 -10.23053 -10.22065 -10.20119 -10.19764
 Alpha  occ. eigenvalues --  -10.17836 -10.17396 -10.16456 -10.16099  -1.02603
 Alpha  occ. eigenvalues --   -0.80556  -0.76745  -0.73982  -0.68932  -0.67515
 Alpha  occ. eigenvalues --   -0.63052  -0.57108  -0.49699  -0.48033  -0.45976
 Alpha  occ. eigenvalues --   -0.45489  -0.44431  -0.42643  -0.41961  -0.41925
 Alpha  occ. eigenvalues --   -0.40679  -0.38818  -0.37515  -0.37201  -0.34221
 Alpha  occ. eigenvalues --   -0.33446  -0.30456  -0.25152  -0.24111  -0.24013
 Alpha virt. eigenvalues --    0.06293   0.06694   0.08902   0.11249   0.11552
 Alpha virt. eigenvalues --    0.12746   0.12918   0.14149   0.15702   0.16453
 Alpha virt. eigenvalues --    0.16948   0.17809   0.18705   0.18792   0.19152

 Mulliken charges:
               1
     1  C   -0.497348
     2  C    0.122126
     3  C    0.017470
     4  C   -0.370528
     5  C   -0.180837
     6  C    0.140540
     7  C   -0.402770
     8  O   -0.249018
     9  C   -0.237225
    10  H    0.144777
    11  H    0.144684
    12  H    0.146013
    13  H    0.126541
    14  H    0.122158
    15  H    0.113378
    16  H    0.111437
    17  H    0.058851
    18  H    0.123446
    19  H    0.118948
    20  H    0.115846
    21  H    0.126165
    22  H    0.104427
    23  H    0.100918
 Sum of Mulliken charges =  -0.00000

 Dipole moment (field-independent basis, Debye):
    X=             -0.3297    Y=              0.5903    Z=              0.6309  Tot=              0.9248
 Quadrupole moment (field-independent basis, Debye-Ang):
   XX=            -47.2590   YY=            -56.2961   ZZ=            -56.3286
   XY=             -2.4322   XZ=             -2.8498   YZ=             -0.5295

  Exact polarizability: 130.594  -6.221  77.568  -4.649   0.839  70.122
 Approx polarizability: 159.445 -13.762 111.563  -9.282   4.101 106.733

                      1                      2                      3
                      A                      A                      A
 Frequencies --     17.1955                42.6793                69.8005
 Red. masses --      1.0250                 2.7955                 3.3719
 Frc consts  --      0.0002                 0.0030                 0.0097
 IR Inten    --      0.0120                 1.0177                 1.1070

                      4                      5                      6
                      A                      A                      A
 Frequencies --     73.5995                87.5925               188.1515
 Red. masses --      2.4505                 1.7233                 3.3847
 Frc consts  --      0.0078                 0.0078                 0.0706
 IR Inten    --      0.6723                 0.4055                 0.5925

                      7                      8                      9
                      A                      A                      A
 Frequencies --    195.5517               211.4554               240.9830
 Red. masses --      1.1684                 2.2263                 1.3686
 Frc consts  --      0.0263                 0.0587                 0.0468
 IR Inten    --      0.2801                 6.4573                 4.0189

                     10                     11                     12
                      A                      A                      A
 Frequencies --    274.3861               319.5258               372.5422
 Red. masses --      3.9925                 2.7952                 3.6750
 Frc consts  --      0.1771                 0.1681                 0.3005
 IR Inten    --      2.9790                 4.2906                 2.6027

                     13                     14                     15
                      A                      A                      A
 Frequencies --    386.8524               447.9008               461.1854
 Red. masses --      3.9869                 3.4790                 2.6340
 Frc consts  --      0.3515                 0.4112                 0.3301
 IR Inten    --      0.2143                 2.6493                 3.4020

                     16                     17                     18
                      A                      A                      A
 Frequencies --    553.9592               756.6566               775.7470
 Red. masses --      3.1218                 1.9306                 1.7840
 Frc consts  --      0.5644                 0.6512                 0.6325
 IR Inten    --      2.4365                 0.9584                 1.0960

                     19                     20                     21
                      A                      A                      A
 Frequencies --    846.0496               918.5310               950.3984
 Red. masses --      2.2674                 2.2788                 1.3969
 Frc consts  --      0.9562                 1.1328                 0.7434
 IR Inten    --      2.6343                 9.8039                 1.8385

                     22                     23                     24
                      A                      A                      A
 Frequencies --   1019.9940              1053.2174              1053.4621
 Red. masses --      3.0282                 1.3957                 1.4095
 Frc consts  --      1.8562                 0.9122                 0.9216
 IR Inten    --      0.3707                 1.1090                 1.5241

                     25                     26                     27
                      A                      A                      A
 Frequencies --   1079.8149              1123.0012              1125.4609
 Red. masses --      2.6145                 1.7232                 2.7283
 Frc consts  --      1.7961                 1.2804                 2.0361
 IR Inten    --     10.2601                 3.3421                49.1459

                     28                     29                     30
                      A                      A                      A
 Frequencies --   1159.5580              1171.4733              1182.1680
 Red. masses --      2.6145                 3.2558                 1.2839
 Frc consts  --      2.0712                 2.6325                 1.0571
 IR Inten    --    113.2660                 9.4458                 2.7995

                     31                     32                     33
                      A                      A                      A
 Frequencies --   1212.1812              1239.9343              1282.7296
 Red. masses --      1.5438                 1.4952                 1.3714
 Frc consts  --      1.3365                 1.3544                 1.3295
 IR Inten    --     59.5544                 2.2442                 8.2172

                     34                     35                     36
                      A                      A                      A
 Frequencies --   1307.7446              1363.5874              1377.4328
 Red. masses --      1.1203                 1.3840                 1.2604
 Frc consts  --      1.1289                 1.5162                 1.4090
 IR Inten    --      0.5115                 1.9587                 9.2500

                     37                     38                     39
                      A                      A                      A
 Frequencies --   1392.6051              1407.1737              1415.6808
 Red. masses --      1.5306                 1.2874                 1.2486
 Frc consts  --      1.7489                 1.5020                 1.4744
 IR Inten    --     29.1508                19.9910                 7.1617

                     40                     41                     42
                      A                      A                      A
 Frequencies --   1474.1826              1477.7511              1479.5980
 Red. masses --      1.0758                 1.1124                 1.0398
 Frc consts  --      1.3775                 1.4312                 1.3412
 IR Inten    --      0.7713                 2.2869                 4.7938

                     43                     44                     45
                      A                      A                      A
 Frequencies --   1479.7775              1484.1463              1489.6793
 Red. masses --      1.0399                 1.0677                 1.0704
 Frc consts  --      1.3416                 1.3856                 1.3995
 IR Inten    --      5.1618                 2.9107                 1.4778

                     46                     47                     48
                      A                      A                      A
 Frequencies --   1498.9433              1506.5026              1513.3632
 Red. masses --      1.0802                 1.0549                 1.0712
 Frc consts  --      1.4300                 1.4106                 1.4455
 IR Inten    --      2.9198                 5.9039                 7.9471

                     49                     50                     51
                      A                      A                      A
 Frequencies --   2374.6308              2936.7261              2972.1061
 Red. masses --     11.8140                 1.0810                 1.0395
 Frc consts  --     39.2500                 5.4931                 5.4100
 IR Inten    --      0.0607                39.1327                69.2245

                     52                     53                     54
                      A                      A                      A
 Frequencies --   3007.1481              3019.5180              3024.1447
 Red. masses --      1.0619                 1.0989                 1.0348
 Frc consts  --      5.6580                 5.9031                 5.5760
 IR Inten    --     25.2412                51.2411                38.5292

                     55                     56                     57
                      A                      A                      A
 Frequencies --   3038.9255              3042.9113              3049.3278
 Red. masses --      1.0622                 1.0688                 1.0605
 Frc consts  --      5.7797                 5.8305                 5.8101
 IR Inten    --      1.8080                31.3503                17.9798

                     58                     59                     60
                      A                      A                      A
 Frequencies --   3083.4111              3083.9058              3097.2530
 Red. masses --      1.1001                 1.1000                 1.1033
 Frc consts  --      6.1625                 6.1640                 6.2358
 IR Inten    --     12.2681                11.9292                26.2038

                     61                     62                     63
                      A                      A                      A
 Frequencies --   3107.0391              3112.0007              3114.1732
 Red. masses --      1.0958                 1.1001                 1.1017
 Frc consts  --      6.2324                 6.2769                 6.2953
 IR Inten    --     36.3295                28.0920                27.8754

 - Thermochemistry -
 -------------------
 Temperature   298.150 Kelvin.  Pressure   1.00000 Atm.
 Atom     1 has atomic number  6 and mass  12.00000

 Molecular mass:   126.10447 amu.
 Principal axes and moments of inertia in atomic units:
                           1         2         3
     Eigenvalues --   387.606813511.364083751.91562
           X            0.99994  -0.00927  -0.00567
           Y            0.00917   0.99980  -0.01769
           Z            0.00583   0.01764   0.99983
 This molecule is an asymmetric top.
 Rotational symmetry number  1.
 Rotational temperatures (Kelvin)      0.22346     0.02467     0.02309
 Rotational constants (GHZ):           4.65611     0.51397     0.48102
 Zero-point vibrational energy     530096.0 (Joules/Mol)
                                  126.69598 (Kcal/Mol)
 Warning -- explicit consideration of  16 degrees of freedom as
           vibrations may cause significant error
 Vibrational temperatures:     24.74    61.41   100.43   105.89   126.03
          (Kelvin)            270.71   281.36   304.24   346.72   394.78
                              459.73   536.01   556.59   644.43   663.54
                              797.02  1088.66  1116.13  1217.28  1321.56
                             1367.41  1467.54  1515.34  1515.70  1553.61
                             1615.75  1619.29  1668.35  1685.49  1700.88
                             1744.06  1783.99  1845.56  1881.55  1961.90
                             1981.82  2003.65  2024.61  2036.85  2121.02
                             2126.15  2128.81  2129.07  2135.36  2143.32
                             2156.65  2167.52  2177.39  3416.56  4225.29
                             4276.20  4326.62  4344.41  4351.07  4372.34
                             4378.07  4387.30  4436.34  4437.05  4456.26
                             4470.34  4477.47  4480.60

 Zero-point correction=                           0.201903 (Hartree/Particle)
 Thermal correction to Energy=                    0.213936
 Thermal correction to Enthalpy=                  0.214880
 Thermal correction to Gibbs Free Energy=         0.161899
 Sum of electronic and zero-point Energies=           -388.265512
 Sum of electronic and thermal Energies=              -388.253479
 Sum of electronic and thermal Enthalpies=            -388.252535
 Sum of electronic and thermal Free Energies=         -388.305516

                     E (Thermal)             CV                S
                      KCal/Mol        Cal/Mol-Kelvin    Cal/Mol-Kelvin
 Total                  134.247             40.666            111.508
 Electronic               0.000              0.000              0.000
 Translational            0.889              2.981             40.409
 Rotational               0.889              2.981             30.014
 Vibrational            132.469             34.705             41.085
 Vibration     1          0.593              1.986              6.934
 Vibration     2          0.595              1.980              5.131
 Vibration     3          0.598              1.969              4.159
 Vibration     4          0.599              1.966              4.055
 Vibration     5          0.601              1.958              3.713
 Vibration     6          0.633              1.856              2.246
 Vibration     7          0.636              1.846              2.175
 Vibration     8          0.643              1.823              2.031
 Vibration     9          0.658              1.778              1.796
 Vibration    10          0.677              1.721              1.568
 Vibration    11          0.705              1.636              1.313
 Vibration    12          0.744              1.529              1.069
 Vibration    13          0.755              1.498              1.012
 Vibration    14          0.807              1.366              0.802
 Vibration    15          0.819              1.336              0.763
 Vibration    16          0.909              1.131              0.536

 Optimization completed.
    -- Stationary point found.
 Normal termination of Gaussian 16 at Tue Mar  9 03:00:52 2021.
