 Gaussian 16, Revision A.03,
 Gaussian 16:  ES64L-G16RevA.03 25-Dec-2016

 -----------------------------
 # opt freq b3lyp/6-31g(2df,p)
 -----------------------------

 -----
 Title
 -----
 Symbolic Z-matrix:
 Charge =  0 Multiplicity = 1

 SCF Done:  E(RB3LYP) =  -352.570100039     A.U. after   13 cycles
 SCF Done:  E(RB3LYP) =  -352.573740478     A.U. after   11 cycles
 SCF Done:  E(RB3LYP) =  -352.571865702     A.U. after   11 cycles
 SCF Done:  E(RB3LYP) =  -352.573918624     A.U. after   10 cycles
 SCF Done:  E(RB3LYP) =  -352.573724154     A.U. after   10 cycles
 SCF Done:  E(RB3LYP) =  -352.573935262     A.U. after   10 cycles
 SCF Done:  E(RB3LYP) =  -352.573936023     A.U. after    7 cycles
 SCF Done:  E(RB3LYP) =  -352.573936202     A.U. after    6 cycles
 SCF Done:  E(RB3LYP) =  -352.573936458     A.U. after    6 cycles
 SCF Done:  E(RB3LYP) =  -352.573936873     A.U. after    8 cycles
 SCF Done:  E(RB3LYP) =  -352.573937672     A.U. after    8 cycles
 SCF Done:  E(RB3LYP) =  -352.573940143     A.U. after    9 cycles
 SCF Done:  E(RB3LYP) =  -352.573943874     A.U. after    9 cycles
 SCF Done:  E(RB3LYP) =  -352.573946551     A.U. after    9 cycles
 SCF Done:  E(RB3LYP) =  -352.573947904     A.U. after    8 cycles
 SCF Done:  E(RB3LYP) =  -352.573947947     A.U. after    6 cycles
 SCF Done:  E(RB3LYP) =  -352.573947934     A.U. after    6 cycles
 Optimization completed on the basis of negligible forces.
    -- Stationary point found.
 Normal termination of Gaussian 16 at Sun Feb 28 01:46:02 2021.

 ----------------------------------------------------------------------
 #N Geom=AllCheck Guess=TCheck SCRF=Check GenChk RB3LYP/6-31G(2df,p) Fr
 eq
 ----------------------------------------------------------------------

 Structure from the checkpoint file:  "CCtCCpCppCCpCC.chk"
 -----
 Title
 -----
 Charge =  0 Multiplicity = 1

                         Standard orientation:
 ---------------------------------------------------------------------
 Center     Atomic      Atomic             Coordinates (Angstroms)
 Number     Number       Type             X           Y           Z
 ---------------------------------------------------------------------
      1          6           0       -3.681605   -0.184565   -0.420613
      2          6           0       -2.248829   -0.206863   -0.157126
      3          6           0       -1.064171   -0.227512    0.063562
      4          6           0        0.381056   -0.267111    0.328783
      5          6           0        0.647219   -1.329359    1.421767
      6          6           0        1.097799   -0.660060   -0.998685
      7          6           0        2.628514   -0.714879   -0.948516
      8          6           0        0.845934    1.118182    0.864294
      9          6           0        0.647697    2.296850   -0.091442
     10          1           0       -4.176821    0.622954    0.130265
     11          1           0       -4.156900   -1.125907   -0.122529
     12          1           0       -3.890128   -0.032960   -1.485684
     13          1           0        0.342268   -2.323540    1.081976
     14          1           0        0.082041   -1.095146    2.328290
     15          1           0        1.708713   -1.364323    1.685218
     16          1           0        0.709333   -1.638489   -1.304032
     17          1           0        0.786060    0.040550   -1.780131
     18          1           0        2.992598   -1.435138   -0.209684
     19          1           0        3.068411    0.258621   -0.710790
     20          1           0        3.023244   -1.020820   -1.922623
     21          1           0        1.903093    1.041049    1.144884
     22          1           0        0.297418    1.312225    1.793300
     23          1           0        1.268760    2.207205   -0.988344
     24          1           0        0.916281    3.237531    0.399371
     25          1           0       -0.396063    2.368092   -0.411636
 ---------------------------------------------------------------------

 SCF Done:  E(RB3LYP) =  -352.573947934     A.U. after    1 cycles

 The electronic state is 1-A.
 Alpha  occ. eigenvalues --  -10.20637 -10.19795 -10.17686 -10.17652 -10.17129
 Alpha  occ. eigenvalues --  -10.17032 -10.16623 -10.16363 -10.15674  -0.82793
 Alpha  occ. eigenvalues --   -0.76257  -0.74182  -0.72127  -0.68368  -0.63859
 Alpha  occ. eigenvalues --   -0.61505  -0.55589  -0.48075  -0.45626  -0.44953
 Alpha  occ. eigenvalues --   -0.42939  -0.42228  -0.41823  -0.41503  -0.40062
 Alpha  occ. eigenvalues --   -0.38484  -0.38017  -0.36163  -0.34887  -0.33994
 Alpha  occ. eigenvalues --   -0.33062  -0.31736  -0.31268  -0.24043  -0.23951
 Alpha virt. eigenvalues --    0.06521   0.06659   0.08502   0.11372   0.12311
 Alpha virt. eigenvalues --    0.13040   0.14128   0.15528   0.15822   0.16240
 Alpha virt. eigenvalues --    0.16601   0.17775   0.18508   0.18878   0.19748

 Mulliken charges:
               1
     1  C   -0.499007
     2  C    0.027043
     3  C    0.109192
     4  C    0.062436
     5  C   -0.411960
     6  C   -0.176437
     7  C   -0.407930
     8  C   -0.180028
     9  C   -0.397763
    10  H    0.144990
    11  H    0.145030
    12  H    0.144895
    13  H    0.115391
    14  H    0.118092
    15  H    0.110631
    16  H    0.099432
    17  H    0.104186
    18  H    0.117957
    19  H    0.119764
    20  H    0.113157
    21  H    0.092102
    22  H    0.097921
    23  H    0.114738
    24  H    0.108765
    25  H    0.127404
 Sum of Mulliken charges =  -0.00000

 Dipole moment (field-independent basis, Debye):
    X=             -0.1952    Y=             -0.0317    Z=             -0.0709  Tot=              0.2101
 Quadrupole moment (field-independent basis, Debye-Ang):
   XX=            -52.4718   YY=            -58.1027   ZZ=            -57.7674
   XY=             -0.0711   XZ=              0.8087   YZ=              0.3601

  Exact polarizability: 124.404  -0.610  87.218   3.405  -0.398  82.402
 Approx polarizability: 172.113  -0.717 119.344   8.900   0.132 119.550

                      1                      2                      3
                      A                      A                      A
 Frequencies --     18.2779                83.5113                88.9862
 Red. masses --      1.0167                 2.6190                 2.5833
 Frc consts  --      0.0002                 0.0108                 0.0121
 IR Inten    --      0.0002                 0.4771                 0.4895

                      4                      5                      6
                      A                      A                      A
 Frequencies --     92.7672               135.5754               225.0156
 Red. masses --      2.5953                 1.5954                 1.1746
 Frc consts  --      0.0132                 0.0173                 0.0350
 IR Inten    --      0.5399                 0.6429                 0.3029

                      7                      8                      9
                      A                      A                      A
 Frequencies --    227.2166               235.1563               264.4470
 Red. masses --      1.3751                 1.9509                 1.4244
 Frc consts  --      0.0418                 0.0636                 0.0587
 IR Inten    --      1.2939                 1.5717                 1.4098

                     10                     11                     12
                      A                      A                      A
 Frequencies --    292.1905               295.3355               313.0806
 Red. masses --      1.9592                 2.8336                 2.6706
 Frc consts  --      0.0986                 0.1456                 0.1542
 IR Inten    --      1.3104                 2.7644                 1.8004

                     13                     14                     15
                      A                      A                      A
 Frequencies --    356.9167               395.4502               428.3387
 Red. masses --      2.3504                 2.9014                 3.1753
 Frc consts  --      0.1764                 0.2673                 0.3432
 IR Inten    --      0.3501                 0.1369                 0.1345

                     16                     17                     18
                      A                      A                      A
 Frequencies --    535.8146               572.9779               635.1777
 Red. masses --      5.4417                 3.9892                 2.8151
 Frc consts  --      0.9205                 0.7716                 0.6692
 IR Inten    --      0.6972                 0.5662                 0.4964

                     19                     20                     21
                      A                      A                      A
 Frequencies --    759.9064               781.9646               839.2180
 Red. masses --      1.4348                 1.3074                 1.6105
 Frc consts  --      0.4882                 0.4710                 0.6683
 IR Inten    --      3.2985                 2.3158                 1.9307

                     22                     23                     24
                      A                      A                      A
 Frequencies --    885.5701               972.3567              1013.5938
 Red. masses --      1.7912                 2.0165                 1.4083
 Frc consts  --      0.8276                 1.1233                 0.8525
 IR Inten    --      2.4902                 1.2672                 5.2234

                     25                     26                     27
                      A                      A                      A
 Frequencies --   1014.6153              1044.6059              1052.9212
 Red. masses --      1.7455                 2.2550                 1.4124
 Frc consts  --      1.0587                 1.4498                 0.9226
 IR Inten    --      3.9849                 0.9221                 0.6009

                     28                     29                     30
                      A                      A                      A
 Frequencies --   1053.7669              1069.4842              1087.4373
 Red. masses --      1.3955                 1.7894                 1.9718
 Frc consts  --      0.9130                 1.2059                 1.3738
 IR Inten    --      0.5674                 2.3575                 1.7907

                     31                     32                     33
                      A                      A                      A
 Frequencies --   1092.1928              1187.5095              1212.1552
 Red. masses --      2.1021                 2.3553                 2.3780
 Frc consts  --      1.4774                 1.9569                 2.0586
 IR Inten    --      0.6533                 2.9444                 2.3107

                     34                     35                     36
                      A                      A                      A
 Frequencies --   1246.1969              1311.9819              1317.0531
 Red. masses --      2.8154                 1.2130                 1.2210
 Frc consts  --      2.5761                 1.2301                 1.2479
 IR Inten    --      8.8788                 2.4055                 7.7066

                     37                     38                     39
                      A                      A                      A
 Frequencies --   1365.9741              1372.3648              1405.2888
 Red. masses --      1.4506                 1.4459                 1.2535
 Frc consts  --      1.5947                 1.6045                 1.4585
 IR Inten    --      3.2669                 0.1637                 4.2697

                     40                     41                     42
                      A                      A                      A
 Frequencies --   1409.2675              1413.2031              1415.4202
 Red. masses --      1.2414                 1.2287                 1.2343
 Frc consts  --      1.4526                 1.4458                 1.4570
 IR Inten    --      4.6566                 1.7164                 8.9671

                     43                     44                     45
                      A                      A                      A
 Frequencies --   1478.4549              1479.6709              1479.8799
 Red. masses --      1.0611                 1.0411                 1.0420
 Frc consts  --      1.3665                 1.3430                 1.3445
 IR Inten    --      0.7581                 5.8897                 4.7550

                     46                     47                     48
                      A                      A                      A
 Frequencies --   1481.5673              1494.1763              1499.2522
 Red. masses --      1.0602                 1.0527                 1.0510
 Frc consts  --      1.3711                 1.3847                 1.3919
 IR Inten    --      0.7203                 3.9738                 4.3827

                     49                     50                     51
                      A                      A                      A
 Frequencies --   1502.2054              1503.9074              1507.9167
 Red. masses --      1.0578                 1.0447                 1.0438
 Frc consts  --      1.4064                 1.3921                 1.3984
 IR Inten    --      6.9875                 2.3017                 1.7250

                     52                     53                     54
                      A                      A                      A
 Frequencies --   1514.1098              2361.5316              3023.7942
 Red. masses --      1.0661                11.8705                 1.0348
 Frc consts  --      1.4400                39.0039                 5.5744
 IR Inten    --      0.6563                 0.3179                43.5872

                     55                     56                     57
                      A                      A                      A
 Frequencies --   3028.5115              3035.4697              3036.8339
 Red. masses --      1.0576                 1.0433                 1.0381
 Frc consts  --      5.7154                 5.6641                 5.6409
 IR Inten    --     17.4070                12.5268                31.8749

                     58                     59                     60
                      A                      A                      A
 Frequencies --   3039.4465              3041.7108              3062.7119
 Red. masses --      1.0451                 1.0425                 1.1018
 Frc consts  --      5.6886                 5.6830                 6.0895
 IR Inten    --     26.5821                18.6763                18.4997

                     61                     62                     63
                      A                      A                      A
 Frequencies --   3072.2899              3083.1214              3083.4018
 Red. masses --      1.1001                 1.1001                 1.1001
 Frc consts  --      6.1182                 6.1612                 6.1622
 IR Inten    --     13.6994                11.6842                11.5123

                     64                     65                     66
                      A                      A                      A
 Frequencies --   3101.7559              3102.2276              3108.2827
 Red. masses --      1.1006                 1.1005                 1.1016
 Frc consts  --      6.2390                 6.2402                 6.2708
 IR Inten    --     13.0779                55.7690                27.1112

                     67                     68                     69
                      A                      A                      A
 Frequencies --   3112.8961              3113.6589              3114.3005
 Red. masses --      1.1019                 1.1017                 1.1013
 Frc consts  --      6.2908                 6.2931                 6.2933
 IR Inten    --     31.3976                41.4376                30.8207

 - Thermochemistry -
 -------------------
 Temperature   298.150 Kelvin.  Pressure   1.00000 Atm.
 Atom     1 has atomic number  6 and mass  12.00000

 Molecular mass:   124.12520 amu.
 Principal axes and moments of inertia in atomic units:
                           1         2         3
     Eigenvalues --   857.006121891.691132129.81442
           X            0.99999  -0.00509   0.00067
           Y            0.00510   0.99981  -0.01894
           Z           -0.00058   0.01895   0.99982
 This molecule is an asymmetric top.
 Rotational symmetry number  1.
 Warning -- assumption of classical behavior for rotation
           may cause significant error
 Rotational temperatures (Kelvin)      0.10107     0.04579     0.04067
 Rotational constants (GHZ):           2.10587     0.95404     0.84737
 Zero-point vibrational energy     592052.0 (Joules/Mol)
                                  141.50383 (Kcal/Mol)
 Warning -- explicit consideration of  17 degrees of freedom as
           vibrations may cause significant error
 Vibrational temperatures:     26.30   120.15   128.03   133.47   195.06
          (Kelvin)            323.75   326.91   338.34   380.48   420.40
                              424.92   450.45   513.52   568.96   616.28
                              770.92   824.39   913.88  1093.34  1125.07
                             1207.45  1274.14  1399.00  1458.34  1459.81
                             1502.95  1514.92  1516.14  1538.75  1564.58
                             1571.42  1708.56  1744.02  1793.00  1887.65
                             1894.95  1965.33  1974.53  2021.90  2027.62
                             2033.28  2036.47  2127.17  2128.92  2129.22
                             2131.64  2149.79  2157.09  2161.34  2163.79
                             2169.56  2178.47  3397.72  4350.57  4357.35
                             4367.36  4369.33  4373.09  4376.34  4406.56
                             4420.34  4435.92  4436.33  4462.73  4463.41
                             4472.13  4478.76  4479.86  4480.78

 Zero-point correction=                           0.225501 (Hartree/Particle)
 Thermal correction to Energy=                    0.237664
 Thermal correction to Enthalpy=                  0.238609
 Thermal correction to Gibbs Free Energy=         0.186989
 Sum of electronic and zero-point Energies=           -352.348447
 Sum of electronic and thermal Energies=              -352.336284
 Sum of electronic and thermal Enthalpies=            -352.335339
 Sum of electronic and thermal Free Energies=         -352.386959

                     E (Thermal)             CV                S
                      KCal/Mol        Cal/Mol-Kelvin    Cal/Mol-Kelvin
 Total                  149.137             43.336            108.642
 Electronic               0.000              0.000              0.000
 Translational            0.889              2.981             40.362
 Rotational               0.889              2.981             29.625
 Vibrational            147.359             37.375             38.655
 Vibration     1          0.593              1.986              6.813
 Vibration     2          0.600              1.961              3.807
 Vibration     3          0.602              1.957              3.682
 Vibration     4          0.602              1.954              3.601
 Vibration     5          0.613              1.918              2.865
 Vibration     6          0.650              1.803              1.918
 Vibration     7          0.651              1.800              1.901
 Vibration     8          0.655              1.787              1.839
 Vibration     9          0.671              1.738              1.632
 Vibration    10          0.688              1.688              1.461
 Vibration    11          0.690              1.682              1.443
 Vibration    12          0.701              1.649              1.346
 Vibration    13          0.732              1.561              1.136
 Vibration    14          0.762              1.480              0.980
 Vibration    15          0.790              1.409              0.864
 Vibration    16          0.891              1.171              0.574
 Vibration    17          0.929              1.090              0.499

 Optimization completed on the basis of negligible forces.
    -- Stationary point found.
 Normal termination of Gaussian 16 at Sun Feb 28 02:24:42 2021.
