 Gaussian 16, Revision A.03,
 Gaussian 16:  ES64L-G16RevA.03 25-Dec-2016

 -----------------------------
 # opt freq b3lyp/6-31g(2df,p)
 -----------------------------

 -------------------
 Title Card Required
 -------------------
 Symbolic Z-matrix:
 Charge =  0 Multiplicity = 1

 SCF Done:  E(RB3LYP) =  -363.967800897     A.U. after   14 cycles
 SCF Done:  E(RB3LYP) =  -363.982640597     A.U. after   13 cycles
 SCF Done:  E(RB3LYP) =  -363.984028038     A.U. after   11 cycles
 SCF Done:  E(RB3LYP) =  -363.983869300     A.U. after   11 cycles
 SCF Done:  E(RB3LYP) =  -363.984450658     A.U. after   11 cycles
 SCF Done:  E(RB3LYP) =  -363.984562567     A.U. after   10 cycles
 SCF Done:  E(RB3LYP) =  -363.984592746     A.U. after   10 cycles
 SCF Done:  E(RB3LYP) =  -363.984594845     A.U. after    7 cycles
 SCF Done:  E(RB3LYP) =  -363.984595442     A.U. after    7 cycles
 Optimization completed.
    -- Stationary point found.
 Normal termination of Gaussian 16 at Tue Mar  9 00:58:50 2021.

 ----------------------------------------------------------------------
 #N Geom=AllCheck Guess=TCheck SCRF=Check GenChk RB3LYP/6-31G(2df,p) Fr
 eq
 ----------------------------------------------------------------------

 Structure from the checkpoint file:  "CN1C2CCpdOpC1C2.chk"
 -------------------
 Title Card Required
 -------------------
 Charge =  0 Multiplicity = 1

                         Standard orientation:
 ---------------------------------------------------------------------
 Center     Atomic      Atomic             Coordinates (Angstroms)
 Number     Number       Type             X           Y           Z
 ---------------------------------------------------------------------
      1          6           0       -2.311052   -0.629009   -0.404306
      2          7           0       -0.902293   -0.299696   -0.574866
      3          6           0       -0.488062    1.092348   -0.148955
      4          6           0        0.969322    1.080243   -0.644441
      5          6           0        1.335590   -0.311184   -0.074418
      6          8           0        2.376107   -0.904219   -0.117180
      7          6           0        0.004199   -0.712690    0.572263
      8          6           0       -0.363119    0.603437    1.320595
      9          1           0       -2.887249   -0.096642   -1.168295
     10          1           0       -2.748072   -0.386329    0.578512
     11          1           0       -2.445538   -1.701726   -0.575193
     12          1           0       -1.128655    1.923598   -0.443960
     13          1           0        1.600390    1.868501   -0.224405
     14          1           0        1.049608    1.092863   -1.733470
     15          1           0       -0.083350   -1.713775    0.989977
     16          1           0        0.385134    1.068887    1.969885
     17          1           0       -1.316336    0.537382    1.844022
 ---------------------------------------------------------------------

 SCF Done:  E(RB3LYP) =  -363.984595442     A.U. after    1 cycles

 The electronic state is 1-A.
 Alpha  occ. eigenvalues --  -19.13086 -14.33046 -10.26715 -10.22893 -10.22352
 Alpha  occ. eigenvalues --  -10.20788 -10.20059 -10.19057  -1.04280  -0.96540
 Alpha  occ. eigenvalues --   -0.79672  -0.72069  -0.68566  -0.66107  -0.55874
 Alpha  occ. eigenvalues --   -0.53821  -0.49673  -0.47473  -0.46134  -0.44261
 Alpha  occ. eigenvalues --   -0.41177  -0.40605  -0.39311  -0.38602  -0.37689
 Alpha  occ. eigenvalues --   -0.36530  -0.33388  -0.32743  -0.24552  -0.21714
 Alpha virt. eigenvalues --   -0.00789   0.08198   0.11079   0.11479   0.12460
 Alpha virt. eigenvalues --    0.13238   0.14267   0.14535   0.15525   0.16803
 Alpha virt. eigenvalues --    0.17746   0.19443   0.20403   0.22255   0.23100

 Mulliken charges:
               1
     1  C   -0.329975
     2  N   -0.111010
     3  C    0.002341
     4  C   -0.327945
     5  C    0.466616
     6  O   -0.331777
     7  C   -0.111491
     8  C   -0.252268
     9  H    0.124687
    10  H    0.097239
    11  H    0.128100
    12  H    0.077445
    13  H    0.121396
    14  H    0.134688
    15  H    0.086302
    16  H    0.107326
    17  H    0.118326
 Sum of Mulliken charges =  -0.00000

 Dipole moment (field-independent basis, Debye):
    X=             -2.7964    Y=              1.7544    Z=              1.0350  Tot=              3.4596
 Quadrupole moment (field-independent basis, Debye-Ang):
   XX=            -52.7913   YY=            -46.3728   ZZ=            -47.0961
   XY=              4.0503   XZ=              0.1568   YZ=             -1.1704

  Exact polarizability:  79.230   0.834  65.944  -0.213  -1.814  60.139
 Approx polarizability: 111.689  -4.969 100.098   0.280  -1.924  91.442

                      1                      2                      3
                      A                      A                      A
 Frequencies --    132.0958               210.3726               271.5097
 Red. masses --      4.6959                 1.0493                 2.5951
 Frc consts  --      0.0483                 0.0274                 0.1127
 IR Inten    --      2.2364                 0.2347                 2.5110

                      4                      5                      6
                      A                      A                      A
 Frequencies --    287.5474               415.3776               444.7853
 Red. masses --      2.7512                 1.8888                 4.0207
 Frc consts  --      0.1340                 0.1920                 0.4687
 IR Inten    --      1.9680                 0.3349                 3.1654

                      7                      8                      9
                      A                      A                      A
 Frequencies --    522.0391               595.3137               615.6386
 Red. masses --      3.0873                 2.7969                 3.9303
 Frc consts  --      0.4957                 0.5840                 0.8777
 IR Inten    --      6.8402                 2.7443                 2.6064

                     10                     11                     12
                      A                      A                      A
 Frequencies --    760.0195               762.8261               808.2091
 Red. masses --      3.3065                 3.2621                 2.9774
 Frc consts  --      1.1253                 1.1184                 1.1459
 IR Inten    --      5.5407                12.1027                 7.9222

                     13                     14                     15
                      A                      A                      A
 Frequencies --    819.0099               893.9287               937.9897
 Red. masses --      2.9478                 2.2195                 2.3199
 Frc consts  --      1.1650                 1.0450                 1.2026
 IR Inten    --      2.3330                 0.6002                 3.8475

                     16                     17                     18
                      A                      A                      A
 Frequencies --    968.0647               971.9713              1004.2711
 Red. masses --      2.0750                 2.1278                 1.8389
 Frc consts  --      1.1457                 1.1844                 1.0927
 IR Inten    --     17.6740                18.0549                 0.5899

                     19                     20                     21
                      A                      A                      A
 Frequencies --   1065.1442              1098.5496              1133.4425
 Red. masses --      1.3157                 1.5373                 1.5168
 Frc consts  --      0.8795                 1.0931                 1.1481
 IR Inten    --      2.6574                11.9116                 3.7230

                     22                     23                     24
                      A                      A                      A
 Frequencies --   1142.1146              1171.0459              1178.7051
 Red. masses --      2.0804                 1.5330                 1.6072
 Frc consts  --      1.5989                 1.2387                 1.3156
 IR Inten    --     12.9902                 6.9721                 5.5431

                     25                     26                     27
                      A                      A                      A
 Frequencies --   1196.6825              1225.5955              1241.8235
 Red. masses --      1.8795                 1.4714                 1.9358
 Frc consts  --      1.5858                 1.3022                 1.7589
 IR Inten    --     13.4163                 0.7622                 5.7601

                     28                     29                     30
                      A                      A                      A
 Frequencies --   1281.8092              1294.3168              1307.5017
 Red. masses --      1.7825                 1.8491                 1.6855
 Frc consts  --      1.7255                 1.8252                 1.6977
 IR Inten    --      2.0008                13.4809                14.2842

                     31                     32                     33
                      A                      A                      A
 Frequencies --   1446.5381              1449.5836              1482.1528
 Red. masses --      1.1204                 1.1435                 1.0707
 Frc consts  --      1.3813                 1.4157                 1.3859
 IR Inten    --      6.6405                 1.9200                 3.9568

                     34                     35                     36
                      A                      A                      A
 Frequencies --   1501.3483              1514.8896              1885.1657
 Red. masses --      1.0439                 1.0958                12.5092
 Frc consts  --      1.3863                 1.4817                26.1926
 IR Inten    --      1.8881                10.9193               272.4222

                     37                     38                     39
                      A                      A                      A
 Frequencies --   2964.0631              3057.0967              3062.3723
 Red. masses --      1.0541                 1.0646                 1.0773
 Frc consts  --      5.4564                 5.8619                 5.9526
 IR Inten    --     70.7511                21.3917                48.7275

                     40                     41                     42
                      A                      A                      A
 Frequencies --   3069.5896              3100.6197              3115.5630
 Red. masses --      1.0596                 1.1027                 1.0915
 Frc consts  --      5.8823                 6.2462                 6.2425
 IR Inten    --     13.2583                16.1161                35.2589

                     43                     44                     45
                      A                      A                      A
 Frequencies --   3125.9010              3139.2902              3146.9809
 Red. masses --      1.1041                 1.0990                 1.0926
 Frc consts  --      6.3566                 6.3815                 6.3755
 IR Inten    --      7.6228                20.4510                20.5129

 - Thermochemistry -
 -------------------
 Temperature   298.150 Kelvin.  Pressure   1.00000 Atm.
 Atom     1 has atomic number  6 and mass  12.00000

 Molecular mass:   111.06841 amu.
 Principal axes and moments of inertia in atomic units:
                           1         2         3
     Eigenvalues --   447.110991007.884501093.70235
           X            0.99898   0.04498  -0.00321
           Y           -0.04507   0.99832  -0.03644
           Z            0.00157   0.03655   0.99933
 This molecule is an asymmetric top.
 Rotational symmetry number  1.
 Warning -- assumption of classical behavior for rotation
           may cause significant error
 Rotational temperatures (Kelvin)      0.19372     0.08594     0.07919
 Rotational constants (GHZ):           4.03645     1.79062     1.65012
 Zero-point vibrational energy     375740.2 (Joules/Mol)
                                   89.80406 (Kcal/Mol)
 Warning -- explicit consideration of   9 degrees of freedom as
           vibrations may cause significant error
 Vibrational temperatures:    190.06   302.68   390.64   413.72   597.64
          (Kelvin)            639.95   751.10   856.52   885.77  1093.50
                             1097.54  1162.83  1178.37  1286.16  1349.56
                             1392.83  1398.45  1444.92  1532.50  1580.57
                             1630.77  1643.25  1684.87  1695.89  1721.76
                             1763.36  1786.71  1844.24  1862.23  1881.20
                             2081.25  2085.63  2132.49  2160.11  2179.59
                             2712.33  4264.63  4398.48  4406.07  4416.45
                             4461.10  4482.60  4497.47  4516.74  4527.80

 Zero-point correction=                           0.143112 (Hartree/Particle)
 Thermal correction to Energy=                    0.149935
 Thermal correction to Enthalpy=                  0.150880
 Thermal correction to Gibbs Free Energy=         0.112395
 Sum of electronic and zero-point Energies=           -363.841484
 Sum of electronic and thermal Energies=              -363.834660
 Sum of electronic and thermal Enthalpies=            -363.833716
 Sum of electronic and thermal Free Energies=         -363.872200

                     E (Thermal)             CV                S
                      KCal/Mol        Cal/Mol-Kelvin    Cal/Mol-Kelvin
 Total                   94.086             27.012             80.998
 Electronic               0.000              0.000              0.000
 Translational            0.889              2.981             40.031
 Rotational               0.889              2.981             27.691
 Vibrational             92.308             21.050             13.276
 Vibration     1          0.612              1.921              2.915
 Vibration     2          0.643              1.825              2.040
 Vibration     3          0.675              1.726              1.587
 Vibration     4          0.685              1.697              1.488
 Vibration     5          0.779              1.437              0.908
 Vibration     6          0.804              1.372              0.812
 Vibration     7          0.877              1.201              0.605
 Vibration     8          0.953              1.042              0.458
 Vibration     9          0.975              0.999              0.424

 Optimization completed.
    -- Stationary point found.
 Normal termination of Gaussian 16 at Tue Mar  9 01:23:31 2021.
