 Gaussian 16, Revision A.03,
 Gaussian 16:  ES64L-G16RevA.03 25-Dec-2016

 -----------------------------
 # opt freq b3lyp/6-31g(2df,p)
 -----------------------------

 -------------------
 Title Card Required
 -------------------
 Symbolic Z-matrix:
 Charge =  0 Multiplicity = 1

 SCF Done:  E(RB3LYP) =  -469.683857753     A.U. after   23 cycles
 SCF Done:  E(RB3LYP) =  -469.784448532     A.U. after   17 cycles
 SCF Done:  E(RB3LYP) =  -469.895007759     A.U. after   16 cycles
 SCF Done:  E(RB3LYP) =  -469.986226242     A.U. after   16 cycles
 SCF Done:  E(RB3LYP) =  -470.045276237     A.U. after   15 cycles
 SCF Done:  E(RB3LYP) =  -470.083399478     A.U. after   14 cycles
 SCF Done:  E(RB3LYP) =  -470.099834998     A.U. after   14 cycles
 SCF Done:  E(RB3LYP) =  -470.109598420     A.U. after   15 cycles
 SCF Done:  E(RB3LYP) =  -470.113090268     A.U. after   15 cycles
 SCF Done:  E(RB3LYP) =  -470.114744165     A.U. after   13 cycles
 SCF Done:  E(RB3LYP) =  -470.117975597     A.U. after   15 cycles
 SCF Done:  E(RB3LYP) =  -470.118364245     A.U. after   11 cycles
 SCF Done:  E(RB3LYP) =  -470.118427978     A.U. after   13 cycles
 SCF Done:  E(RB3LYP) =  -470.118513162     A.U. after   12 cycles
 SCF Done:  E(RB3LYP) =  -470.118556834     A.U. after   10 cycles
 SCF Done:  E(RB3LYP) =  -470.118662900     A.U. after   12 cycles
 SCF Done:  E(RB3LYP) =  -470.118678515     A.U. after   10 cycles
 SCF Done:  E(RB3LYP) =  -470.118680682     A.U. after    9 cycles
 SCF Done:  E(RB3LYP) =  -470.118680940     A.U. after    7 cycles
 Optimization completed.
    -- Stationary point found.
 Normal termination of Gaussian 16 at Thu Feb 18 13:36:15 2021.

 ----------------------------------------------------------------------
 #N Geom=AllCheck Guess=TCheck SCRF=Check GenChk RB3LYP/6-31G(2df,p) Fr
 eq
 ----------------------------------------------------------------------

 Structure from the checkpoint file:  "Cn1ccpOCdOpnn1_2.chk"
 -------------------
 Title Card Required
 -------------------
 Charge =  0 Multiplicity = 1

                         Standard orientation:
 ---------------------------------------------------------------------
 Center     Atomic      Atomic             Coordinates (Angstroms)
 Number     Number       Type             X           Y           Z
 ---------------------------------------------------------------------
      1          6           0        3.298932    0.318739    0.151086
      2          1           0        3.522433    0.845834    1.082148
      3          1           0        3.658961    0.908291   -0.695990
      4          1           0        3.787952   -0.654999    0.154247
      5          7           0        1.873570    0.078278    0.033359
      6          7           0        1.413532   -1.178584   -0.062810
      7          7           0        0.110865   -1.117536   -0.176697
      8          6           0        0.858785    0.976698   -0.006110
      9          1           0        0.998022    2.041310    0.056904
     10          6           0       -0.255598    0.182389   -0.140002
     11          8           0       -1.540705    0.609711   -0.267666
     12          6           0       -2.538564   -0.185694    0.240272
     13          8           0       -3.682915    0.102414    0.093232
     14          1           0       -2.145507   -1.065345    0.769727
 ---------------------------------------------------------------------

 SCF Done:  E(RB3LYP) =  -470.118680940     A.U. after    1 cycles

 The electronic state is 1-A.
 Alpha  occ. eigenvalues --  -19.21184 -19.14412 -14.44011 -14.39808 -14.36165
 Alpha  occ. eigenvalues --  -10.31845 -10.27977 -10.25499 -10.24163  -1.13187
 Alpha  occ. eigenvalues --   -1.10772  -1.04548  -0.93191  -0.81944  -0.75781
 Alpha  occ. eigenvalues --   -0.68568  -0.63502  -0.59636  -0.57370  -0.52468
 Alpha  occ. eigenvalues --   -0.51377  -0.48459  -0.47021  -0.44456  -0.43851
 Alpha  occ. eigenvalues --   -0.43052  -0.40588  -0.35710  -0.34726  -0.30443
 Alpha  occ. eigenvalues --   -0.29910  -0.27838  -0.25688
 Alpha virt. eigenvalues --   -0.01972  -0.00827   0.05204   0.08052   0.10859
 Alpha virt. eigenvalues --    0.11543   0.12650   0.14120   0.14537   0.16358
 Alpha virt. eigenvalues --    0.20692   0.24606   0.25445   0.28469   0.30954

 Mulliken charges:
               1
     1  C   -0.331527
     2  H    0.154493
     3  H    0.155710
     4  H    0.177207
     5  N    0.086056
     6  N   -0.138241
     7  N   -0.265011
     8  C   -0.208977
     9  H    0.160297
    10  C    0.396966
    11  O   -0.223965
    12  C    0.160082
    13  O   -0.254689
    14  H    0.131598
 Sum of Mulliken charges =   0.00000

 Dipole moment (field-independent basis, Debye):
    X=              5.3264    Y=              2.4405    Z=              1.0607  Tot=              5.9541
 Quadrupole moment (field-independent basis, Debye-Ang):
   XX=            -52.2674   YY=            -52.0304   ZZ=            -49.6164
   XY=              7.0196   XZ=             -0.7305   YZ=             -0.2821

  Exact polarizability: 102.107   3.210  61.235   0.967  -0.640  38.869
 Approx polarizability: 143.677   2.616 111.265   3.204  -0.342  60.817

                      1                      2                      3
                      A                      A                      A
 Frequencies --     60.0627                97.1905               120.4298
 Red. masses --      5.3107                 1.0965                 3.4459
 Frc consts  --      0.0113                 0.0061                 0.0294
 IR Inten    --      4.4321                 0.4014                13.4480

                      4                      5                      6
                      A                      A                      A
 Frequencies --    152.0221               212.4882               320.1959
 Red. masses --      3.6454                 3.8624                 3.8253
 Frc consts  --      0.0496                 0.1027                 0.2311
 IR Inten    --      8.0183                 5.5815                 3.4579

                      7                      8                      9
                      A                      A                      A
 Frequencies --    400.1179               451.0067               518.8301
 Red. masses --      8.0898                 5.8554                 6.6454
 Frc consts  --      0.7631                 0.7017                 1.0540
 IR Inten    --      0.8816                 3.7617                 4.8839

                     10                     11                     12
                      A                      A                      A
 Frequencies --    670.0338               706.1601               720.7573
 Red. masses --      4.1064                 5.2695                 3.3048
 Frc consts  --      1.0862                 1.5482                 1.0115
 IR Inten    --      2.0090                 7.5642                 8.0529

                     13                     14                     15
                      A                      A                      A
 Frequencies --    776.7244               852.6567              1035.6278
 Red. masses --      1.8891                 9.5366                 1.9877
 Frc consts  --      0.6715                 4.0850                 1.2560
 IR Inten    --     19.4939                 9.0416                 9.5615

                     16                     17                     18
                      A                      A                      A
 Frequencies --   1043.2862              1055.6720              1067.8670
 Red. masses --      2.6208                 4.1856                 2.2793
 Frc consts  --      1.6807                 2.7483                 1.5314
 IR Inten    --     15.9214                 9.0555                 0.0979

                     19                     20                     21
                      A                      A                      A
 Frequencies --   1095.0469              1152.5134              1182.1229
 Red. masses --      4.1118                 1.3183                 2.7139
 Frc consts  --      2.9050                 1.0317                 2.2345
 IR Inten    --    358.0099                 0.0289                67.8493

                     22                     23                     24
                      A                      A                      A
 Frequencies --   1282.1992              1310.2982              1392.9696
 Red. masses --     11.4428                 3.1827                 5.5529
 Frc consts  --     11.0840                 3.2195                 6.3482
 IR Inten    --     30.4095                13.6008               127.5069

                     25                     26                     27
                      A                      A                      A
 Frequencies --   1413.9660              1443.4889              1484.1076
 Red. masses --      1.2029                 1.3615                 1.0404
 Frc consts  --      1.4170                 1.6714                 1.3502
 IR Inten    --     12.3179                 8.1269                 9.0631

                     28                     29                     30
                      A                      A                      A
 Frequencies --   1490.5406              1516.4142              1598.8980
 Red. masses --      1.8648                 1.5729                 6.9480
 Frc consts  --      2.4410                 2.1310                10.4653
 IR Inten    --     37.6297                11.3103               265.0887

                     31                     32                     33
                      A                      A                      A
 Frequencies --   1878.7776              3051.4394              3054.9239
 Red. masses --      9.2421                 1.0955                 1.0339
 Frc consts  --     19.2208                 6.0098                 5.6851
 IR Inten    --    392.1089                18.6515                30.5302

                     34                     35                     36
                      A                      A                      A
 Frequencies --   3123.5829              3168.6992              3295.7865
 Red. masses --      1.1051                 1.1017                 1.1005
 Frc consts  --      6.3527                 6.5176                 7.0430
 IR Inten    --      9.8432                 0.4926                 3.9236

 - Thermochemistry -
 -------------------
 Temperature   298.150 Kelvin.  Pressure   1.00000 Atm.
 Atom     1 has atomic number  6 and mass  12.00000

 Molecular mass:   127.03818 amu.
 Principal axes and moments of inertia in atomic units:
                           1         2         3
     Eigenvalues --   246.612962144.584392353.56341
           X            0.99988   0.01551   0.00049
           Y           -0.01550   0.99984  -0.00841
           Z           -0.00062   0.00840   0.99996
 This molecule is an asymmetric top.
 Rotational symmetry number  1.
 Rotational temperatures (Kelvin)      0.35121     0.04039     0.03680
 Rotational constants (GHZ):           7.31811     0.84153     0.76681
 Zero-point vibrational energy     264356.2 (Joules/Mol)
                                   63.18265 (Kcal/Mol)
 Warning -- explicit consideration of   9 degrees of freedom as
           vibrations may cause significant error
 Vibrational temperatures:     86.42   139.84   173.27   218.73   305.72
          (Kelvin)            460.69   575.68   648.90   746.48   964.03
                             1016.01  1037.01  1117.53  1226.78  1490.04
                             1501.06  1518.88  1536.42  1575.53  1658.21
                             1700.81  1844.80  1885.23  2004.17  2034.38
                             2076.86  2135.30  2144.56  2181.78  2300.46
                             2703.14  4390.34  4395.35  4494.14  4559.05
                             4741.90

 Zero-point correction=                           0.100688 (Hartree/Particle)
 Thermal correction to Energy=                    0.108868
 Thermal correction to Enthalpy=                  0.109812
 Thermal correction to Gibbs Free Energy=         0.066868
 Sum of electronic and zero-point Energies=           -470.017993
 Sum of electronic and thermal Energies=              -470.009813
 Sum of electronic and thermal Enthalpies=            -470.008869
 Sum of electronic and thermal Free Energies=         -470.051813

                     E (Thermal)             CV                S
                      KCal/Mol        Cal/Mol-Kelvin    Cal/Mol-Kelvin
 Total                   68.316             27.905             90.383
 Electronic               0.000              0.000              0.000
 Translational            0.889              2.981             40.431
 Rotational               0.889              2.981             28.611
 Vibrational             66.538             21.944             21.340
 Vibration     1          0.597              1.973              4.455
 Vibration     2          0.603              1.951              3.510
 Vibration     3          0.609              1.932              3.093
 Vibration     4          0.619              1.900              2.647
 Vibration     5          0.644              1.822              2.022
 Vibration     6          0.706              1.635              1.309
 Vibration     7          0.766              1.470              0.962
 Vibration     8          0.810              1.359              0.793
 Vibration     9          0.874              1.208              0.613

 Optimization completed.
    -- Stationary point found.
 Normal termination of Gaussian 16 at Thu Feb 18 14:04:04 2021.
