 Gaussian 16, Revision A.03,
 Gaussian 16:  ES64L-G16RevA.03 25-Dec-2016

 -----------------------------
 # opt freq b3lyp/6-31g(2df,p)
 -----------------------------

 -----
 Title
 -----
 Symbolic Z-matrix:
 Charge =  0 Multiplicity = 1

 SCF Done:  E(RB3LYP) =  -472.535557640     A.U. after   15 cycles
 SCF Done:  E(RB3LYP) =  -472.555017335     A.U. after   13 cycles
 SCF Done:  E(RB3LYP) =  -472.556872977     A.U. after   11 cycles
 SCF Done:  E(RB3LYP) =  -472.557243119     A.U. after   11 cycles
 SCF Done:  E(RB3LYP) =  -472.557371383     A.U. after   11 cycles
 SCF Done:  E(RB3LYP) =  -472.557647403     A.U. after   12 cycles
 SCF Done:  E(RB3LYP) =  -472.558076049     A.U. after   12 cycles
 SCF Done:  E(RB3LYP) =  -472.558968848     A.U. after   12 cycles
 SCF Done:  E(RB3LYP) =  -472.560192709     A.U. after   12 cycles
 SCF Done:  E(RB3LYP) =  -472.561513138     A.U. after   12 cycles
 SCF Done:  E(RB3LYP) =  -472.574144397     A.U. after   12 cycles
 SCF Done:  E(RB3LYP) =  -472.574276541     A.U. after   12 cycles
 SCF Done:  E(RB3LYP) =  -472.574386580     A.U. after   12 cycles
 SCF Done:  E(RB3LYP) =  -472.574440658     A.U. after   10 cycles
 SCF Done:  E(RB3LYP) =  -472.574462865     A.U. after   10 cycles
 SCF Done:  E(RB3LYP) =  -472.574474904     A.U. after    9 cycles
 SCF Done:  E(RB3LYP) =  -472.574478250     A.U. after    9 cycles
 SCF Done:  E(RB3LYP) =  -472.574479014     A.U. after    8 cycles
 SCF Done:  E(RB3LYP) =  -472.574479112     A.U. after    7 cycles
 Optimization completed.
    -- Stationary point found.
 Normal termination of Gaussian 16 at Thu Feb 18 17:27:26 2021.

 ----------------------------------------------------------------------
 #N Geom=AllCheck Guess=TCheck SCRF=Check GenChk RB3LYP/6-31G(2df,p) Fr
 eq
 ----------------------------------------------------------------------

 Structure from the checkpoint file:  "CNCpdNpNCpdOpCO_2.chk"
 -----
 Title
 -----
 Charge =  0 Multiplicity = 1

                         Standard orientation:
 ---------------------------------------------------------------------
 Center     Atomic      Atomic             Coordinates (Angstroms)
 Number     Number       Type             X           Y           Z
 ---------------------------------------------------------------------
      1          6           0        3.613583   -0.336919    0.259529
      2          7           0        2.228986   -0.759962    0.159432
      3          6           0        1.249147    0.157310   -0.200401
      4          7           0        1.381513    1.370137   -0.549337
      5          7           0       -0.020345   -0.470891   -0.230200
      6          6           0       -1.240613    0.100202    0.042421
      7          8           0       -1.415871    1.202110    0.514749
      8          6           0       -2.446740   -0.791408   -0.282543
      9          8           0       -3.618820   -0.181299    0.160890
     10          1           0        4.229666   -1.204773    0.503421
     11          1           0        3.779500    0.435452    1.024662
     12          1           0        3.950523    0.056037   -0.704525
     13          1           0        1.934809   -1.430233    0.855065
     14          1           0        2.333111    1.698238   -0.398884
     15          1           0       -0.024068   -1.428713   -0.548377
     16          1           0       -2.313995   -1.776788    0.192799
     17          1           0       -2.462717   -0.961477   -1.372753
     18          1           0       -3.332637    0.695669    0.470179
 ---------------------------------------------------------------------

 SCF Done:  E(RB3LYP) =  -472.574479112     A.U. after    1 cycles

 The electronic state is 1-A.
 Alpha  occ. eigenvalues --  -19.12523 -19.12520 -14.37611 -14.36456 -14.29679
 Alpha  occ. eigenvalues --  -10.29462 -10.29163 -10.23936 -10.23424  -1.06006
 Alpha  occ. eigenvalues --   -1.00981  -0.99101  -0.91699  -0.86666  -0.74010
 Alpha  occ. eigenvalues --   -0.70194  -0.62305  -0.58416  -0.56567  -0.52608
 Alpha  occ. eigenvalues --   -0.50218  -0.47333  -0.46829  -0.45636  -0.44405
 Alpha  occ. eigenvalues --   -0.41820  -0.41281  -0.40211  -0.35922  -0.33987
 Alpha  occ. eigenvalues --   -0.28887  -0.28073  -0.26294  -0.25928  -0.24673
 Alpha virt. eigenvalues --   -0.00296   0.04950   0.05494   0.08429   0.10212
 Alpha virt. eigenvalues --    0.11358   0.13710   0.14012   0.15415   0.15766
 Alpha virt. eigenvalues --    0.17735   0.18399   0.20972   0.23818   0.26504

 Mulliken charges:
               1
     1  C   -0.339520
     2  N   -0.336361
     3  C    0.419960
     4  N   -0.490450
     5  N   -0.389985
     6  C    0.401404
     7  O   -0.343298
     8  C   -0.147907
     9  O   -0.418310
    10  H    0.134533
    11  H    0.130272
    12  H    0.148414
    13  H    0.242011
    14  H    0.219342
    15  H    0.255470
    16  H    0.102961
    17  H    0.114938
    18  H    0.296526
 Sum of Mulliken charges =  -0.00000

 Dipole moment (field-independent basis, Debye):
    X=              4.6073    Y=             -4.1470    Z=              0.4450  Tot=              6.2147
 Quadrupole moment (field-independent basis, Debye-Ang):
   XX=            -52.7233   YY=            -53.1822   ZZ=            -52.8793
   XY=             -0.7893   XZ=              3.8116   YZ=              0.0905

  Exact polarizability:  95.615  -0.497  72.186   0.300  -0.420  50.126
 Approx polarizability: 111.418  -4.547 125.092  -2.187   0.170  77.494

                      1                      2                      3
                      A                      A                      A
 Frequencies --     42.0132                63.2549                97.2619
 Red. masses --      4.1529                 6.4901                 2.7949
 Frc consts  --      0.0043                 0.0153                 0.0156
 IR Inten    --      1.0875                 0.8884                 2.6775

                      4                      5                      6
                      A                      A                      A
 Frequencies --    129.9611               182.7041               197.2330
 Red. masses --      4.2480                 3.6192                 1.1012
 Frc consts  --      0.0423                 0.0712                 0.0252
 IR Inten    --      1.3287                 1.3429                 0.1518

                      7                      8                      9
                      A                      A                      A
 Frequencies --    285.4489               306.9294               362.2951
 Red. masses --      3.1044                 6.3447                 4.5820
 Frc consts  --      0.1490                 0.3522                 0.3543
 IR Inten    --     17.6072                 7.1574                11.2642

                     10                     11                     12
                      A                      A                      A
 Frequencies --    418.3671               454.5071               479.0315
 Red. masses --      2.6963                 1.4655                 1.3566
 Frc consts  --      0.2781                 0.1784                 0.1834
 IR Inten    --     23.6178                21.0857               111.1783

                     13                     14                     15
                      A                      A                      A
 Frequencies --    529.2101               592.6597               664.6417
 Red. masses --      1.4382                 1.7350                 3.0007
 Frc consts  --      0.2373                 0.3591                 0.7810
 IR Inten    --    128.0975                 7.9278                25.0335

                     16                     17                     18
                      A                      A                      A
 Frequencies --    684.3657               759.4607               823.2220
 Red. masses --      4.2124                 4.1281                 1.2454
 Frc consts  --      1.1624                 1.4028                 0.4973
 IR Inten    --      0.6625                 8.2429                63.7834

                     19                     20                     21
                      A                      A                      A
 Frequencies --    914.4318               974.5539              1033.3869
 Red. masses --      3.5555                 5.6072                 2.1406
 Frc consts  --      1.7517                 3.1377                 1.3468
 IR Inten    --     23.0367                13.9865                 3.0169

                     22                     23                     24
                      A                      A                      A
 Frequencies --   1053.5354              1141.9738              1144.2660
 Red. masses --      2.2820                 3.7264                 1.3607
 Frc consts  --      1.4923                 2.8632                 1.0497
 IR Inten    --     27.1494               195.9359                13.0612

                     25                     26                     27
                      A                      A                      A
 Frequencies --   1165.3872              1178.4651              1221.1024
 Red. masses --      2.2943                 1.6912                 1.9096
 Frc consts  --      1.8359                 1.3838                 1.6776
 IR Inten    --     87.3576                10.4074                82.3805

                     28                     29                     30
                      A                      A                      A
 Frequencies --   1247.9213              1305.5235              1324.2355
 Red. masses --      1.0979                 1.4511                 1.7429
 Frc consts  --      1.0074                 1.4572                 1.8008
 IR Inten    --     10.3353               118.8414                40.9351

                     31                     32                     33
                      A                      A                      A
 Frequencies --   1452.7152              1459.4127              1483.5635
 Red. masses --      1.1797                 1.3077                 1.1826
 Frc consts  --      1.4668                 1.6410                 1.5335
 IR Inten    --     27.6046               222.6292                38.3269

                     34                     35                     36
                      A                      A                      A
 Frequencies --   1498.2118              1507.2458              1525.5687
 Red. masses --      1.2723                 1.0877                 1.1373
 Frc consts  --      1.6826                 1.4559                 1.5596
 IR Inten    --     12.5204                34.0241                21.8674

                     37                     38                     39
                      A                      A                      A
 Frequencies --   1542.3993              1735.8432              1816.1781
 Red. masses --      2.0782                 6.5821                 9.9718
 Frc consts  --      2.9129                11.6852                19.3794
 IR Inten    --    436.4124               109.2723               228.2669

                     40                     41                     42
                      A                      A                      A
 Frequencies --   2962.3347              2986.2828              2999.0015
 Red. masses --      1.0608                 1.0980                 1.0500
 Frc consts  --      5.4846                 5.7692                 5.5641
 IR Inten    --     44.0121                40.4116                44.8398

                     43                     44                     45
                      A                      A                      A
 Frequencies --   3082.2189              3129.2808              3517.5958
 Red. masses --      1.0862                 1.1010                 1.0743
 Frc consts  --      6.0797                 6.3522                 7.8322
 IR Inten    --     21.3435                13.2210                 2.6544

                     46                     47                     48
                      A                      A                      A
 Frequencies --   3595.5806              3613.6323              3648.0612
 Red. masses --      1.0757                 1.0756                 1.0645
 Frc consts  --      8.1935                 8.2752                 8.3465
 IR Inten    --     11.8421                20.9646                98.8194

 - Thermochemistry -
 -------------------
 Temperature   298.150 Kelvin.  Pressure   1.00000 Atm.
 Atom     1 has atomic number  6 and mass  12.00000

 Molecular mass:   131.06948 amu.
 Principal axes and moments of inertia in atomic units:
                           1         2         3
     Eigenvalues --   360.516632501.955772738.36134
           X            0.99996   0.00317   0.00793
           Y           -0.00317   0.99999   0.00011
           Z           -0.00793  -0.00014   0.99997
 This molecule is an asymmetric top.
 Rotational symmetry number  1.
 Rotational temperatures (Kelvin)      0.24025     0.03462     0.03163
 Rotational constants (GHZ):           5.00599     0.72133     0.65906
 Zero-point vibrational energy     384793.7 (Joules/Mol)
                                   91.96789 (Kcal/Mol)
 Warning -- explicit consideration of  14 degrees of freedom as
           vibrations may cause significant error
 Vibrational temperatures:     60.45    91.01   139.94   186.99   262.87
          (Kelvin)            283.77   410.70   441.60   521.26   601.94
                              653.93   689.22   761.42   852.71   956.27
                              984.65  1092.69  1184.43  1315.66  1402.17
                             1486.81  1515.80  1643.05  1646.34  1676.73
                             1695.55  1756.89  1795.48  1878.36  1905.28
                             2090.13  2099.77  2134.52  2155.59  2168.59
                             2194.95  2219.17  2497.49  2613.08  4262.14
                             4296.59  4314.89  4434.63  4502.34  5061.04
                             5173.24  5199.21  5248.75

 Zero-point correction=                           0.146560 (Hartree/Particle)
 Thermal correction to Energy=                    0.156714
 Thermal correction to Enthalpy=                  0.157658
 Thermal correction to Gibbs Free Energy=         0.110337
 Sum of electronic and zero-point Energies=           -472.427919
 Sum of electronic and thermal Energies=              -472.417766
 Sum of electronic and thermal Enthalpies=            -472.416821
 Sum of electronic and thermal Free Energies=         -472.464142

                     E (Thermal)             CV                S
                      KCal/Mol        Cal/Mol-Kelvin    Cal/Mol-Kelvin
 Total                   98.339             35.538             99.595
 Electronic               0.000              0.000              0.000
 Translational            0.889              2.981             40.524
 Rotational               0.889              2.981             29.292
 Vibrational             96.562             29.577             29.778
 Vibration     1          0.595              1.980              5.162
 Vibration     2          0.597              1.972              4.353
 Vibration     3          0.603              1.951              3.508
 Vibration     4          0.612              1.923              2.947
 Vibration     5          0.630              1.863              2.301
 Vibration     6          0.637              1.844              2.159
 Vibration     7          0.683              1.701              1.501
 Vibration     8          0.697              1.661              1.379
 Vibration     9          0.736              1.550              1.112
 Vibration    10          0.781              1.430              0.898
 Vibration    11          0.813              1.351              0.782
 Vibration    12          0.835              1.297              0.713
 Vibration    13          0.884              1.185              0.589
 Vibration    14          0.950              1.047              0.462

 Optimization completed.
    -- Stationary point found.
 Normal termination of Gaussian 16 at Thu Feb 18 17:48:55 2021.
