 Gaussian 16, Revision A.03,
 Gaussian 16:  ES64L-G16RevA.03 25-Dec-2016

 -----------------------------
 # opt freq b3lyp/6-31g(2df,p)
 -----------------------------

 -------------------
 Title Card Required
 -------------------
 Symbolic Z-matrix:
 Charge =  0 Multiplicity = 1

 SCF Done:  E(RB3LYP) =  -424.338597591     A.U. after   13 cycles
 SCF Done:  E(RB3LYP) =  -424.351265228     A.U. after   11 cycles
 SCF Done:  E(RB3LYP) =  -424.352660705     A.U. after   10 cycles
 SCF Done:  E(RB3LYP) =  -424.354425073     A.U. after   11 cycles
 SCF Done:  E(RB3LYP) =  -424.350306934     A.U. after   13 cycles
 SCF Done:  E(RB3LYP) =  -424.356102486     A.U. after   11 cycles
 SCF Done:  E(RB3LYP) =  -424.356823024     A.U. after   10 cycles
 SCF Done:  E(RB3LYP) =  -424.357495714     A.U. after   10 cycles
 SCF Done:  E(RB3LYP) =  -424.357984977     A.U. after   10 cycles
 SCF Done:  E(RB3LYP) =  -424.358498316     A.U. after   10 cycles
 SCF Done:  E(RB3LYP) =  -424.362046582     A.U. after   10 cycles
 SCF Done:  E(RB3LYP) =  -424.362314922     A.U. after   10 cycles
 SCF Done:  E(RB3LYP) =  -424.362443544     A.U. after   10 cycles
 SCF Done:  E(RB3LYP) =  -424.362525978     A.U. after   10 cycles
 SCF Done:  E(RB3LYP) =  -424.362551770     A.U. after    9 cycles
 SCF Done:  E(RB3LYP) =  -424.362565797     A.U. after    9 cycles
 SCF Done:  E(RB3LYP) =  -424.362568412     A.U. after    7 cycles
 SCF Done:  E(RB3LYP) =  -424.362568869     A.U. after    7 cycles
 SCF Done:  E(RB3LYP) =  -424.362569006     A.U. after    6 cycles
 Optimization completed.
    -- Stationary point found.
 Normal termination of Gaussian 16 at Tue Mar  9 02:07:59 2021.

 ----------------------------------------------------------------------
 #N Geom=AllCheck Guess=TCheck SCRF=Check GenChk RB3LYP/6-31G(2df,p) Fr
 eq
 ----------------------------------------------------------------------

 Structure from the checkpoint file:  "COC1CpOpCC12CC2.chk"
 -------------------
 Title Card Required
 -------------------
 Charge =  0 Multiplicity = 1

                         Standard orientation:
 ---------------------------------------------------------------------
 Center     Atomic      Atomic             Coordinates (Angstroms)
 Number     Number       Type             X           Y           Z
 ---------------------------------------------------------------------
      1          6           0       -0.865972    2.234853    0.478214
      2          8           0       -0.465439    1.575033   -0.706314
      3          6           0       -0.312698    0.180665   -0.638682
      4          6           0       -1.129897   -0.731456    0.323220
      5          8           0       -2.354454   -1.277829   -0.088177
      6          6           0        0.138078   -1.627329    0.478994
      7          6           0        0.962693   -0.451411   -0.052776
      8          6           0        2.348586   -0.431765   -0.615001
      9          6           0        2.043247    0.293765    0.676302
     10          1           0       -0.784537    3.306099    0.277080
     11          1           0       -0.226556    1.991073    1.337127
     12          1           0       -1.908167    2.007576    0.740980
     13          1           0       -0.453313   -0.172371   -1.670595
     14          1           0       -1.334691   -0.219524    1.266336
     15          1           0       -2.221558   -1.699028   -0.944089
     16          1           0        0.118846   -2.473902   -0.217433
     17          1           0        0.358490   -2.000783    1.481489
     18          1           0        2.529520    0.168641   -1.501476
     19          1           0        2.935036   -1.343682   -0.563021
     20          1           0        2.020540    1.377943    0.643515
     21          1           0        2.421325   -0.123605    1.604392
 ---------------------------------------------------------------------

 SCF Done:  E(RB3LYP) =  -424.362569006     A.U. after    1 cycles

 The electronic state is 1-A.
 Alpha  occ. eigenvalues --  -19.14010 -19.13889 -10.23146 -10.22835 -10.22240
 Alpha  occ. eigenvalues --  -10.19273 -10.18509 -10.18293 -10.18202  -1.03315
 Alpha  occ. eigenvalues --   -1.01931  -0.86950  -0.79277  -0.70748  -0.63619
 Alpha  occ. eigenvalues --   -0.61663  -0.60002  -0.53688  -0.51301  -0.49388
 Alpha  occ. eigenvalues --   -0.48394  -0.45423  -0.43986  -0.43018  -0.40758
 Alpha  occ. eigenvalues --   -0.38324  -0.37970  -0.36118  -0.35941  -0.34514
 Alpha  occ. eigenvalues --   -0.31589  -0.28855  -0.27152  -0.26044  -0.23948
 Alpha virt. eigenvalues --    0.07547   0.08141   0.10087   0.10639   0.11743
 Alpha virt. eigenvalues --    0.12255   0.14199   0.15356   0.15712   0.17559
 Alpha virt. eigenvalues --    0.17958   0.18245   0.19296   0.21296   0.22181

 Mulliken charges:
               1
     1  C   -0.246844
     2  O   -0.251320
     3  C    0.035127
     4  C    0.121298
     5  O   -0.436109
     6  C   -0.368263
     7  C    0.333394
     8  C   -0.338388
     9  C   -0.316023
    10  H    0.125109
    11  H    0.111867
    12  H    0.120404
    13  H    0.073201
    14  H    0.097514
    15  H    0.278371
    16  H    0.094748
    17  H    0.107501
    18  H    0.116051
    19  H    0.110354
    20  H    0.121424
    21  H    0.110585
 Sum of Mulliken charges =   0.00000

 Dipole moment (field-independent basis, Debye):
    X=              0.9273    Y=             -0.5411    Z=              0.2508  Tot=              1.1026
 Quadrupole moment (field-independent basis, Debye-Ang):
   XX=            -59.4732   YY=            -52.4635   ZZ=            -52.5259
   XY=             -1.5756   XZ=              1.6776   YZ=              4.5480

  Exact polarizability:  84.261  -0.451  81.889   0.121   3.180  70.388
 Approx polarizability: 112.102   1.113 111.622   0.438   4.389 109.479

                      1                      2                      3
                      A                      A                      A
 Frequencies --     71.0001               118.6139               171.1558
 Red. masses --      3.1518                 2.9749                 2.2530
 Frc consts  --      0.0094                 0.0247                 0.0389
 IR Inten    --      2.8464                 2.6823                 2.0632

                      4                      5                      6
                      A                      A                      A
 Frequencies --    200.3347               224.3365               235.7878
 Red. masses --      2.4460                 1.7288                 1.9028
 Frc consts  --      0.0578                 0.0513                 0.0623
 IR Inten    --      0.8566                 3.6949                 3.0298

                      7                      8                      9
                      A                      A                      A
 Frequencies --    279.7292               325.3046               352.4571
 Red. masses --      1.6391                 1.6280                 3.0685
 Frc consts  --      0.0756                 0.1015                 0.2246
 IR Inten    --     28.4729                48.4155                13.3528

                     10                     11                     12
                      A                      A                      A
 Frequencies --    417.0131               488.4189               501.2867
 Red. masses --      2.5149                 2.9531                 3.8382
 Frc consts  --      0.2577                 0.4151                 0.5683
 IR Inten    --      5.5260                 4.1682                 3.8454

                     13                     14                     15
                      A                      A                      A
 Frequencies --    599.5596               755.5736               785.4872
 Red. masses --      3.5075                 3.3327                 1.0677
 Frc consts  --      0.7429                 1.1210                 0.3881
 IR Inten    --     16.3723                 2.0242                 0.1522

                     16                     17                     18
                      A                      A                      A
 Frequencies --    814.0915               872.5778               901.4153
 Red. masses --      1.7743                 2.3675                 1.8477
 Frc consts  --      0.6928                 1.0621                 0.8846
 IR Inten    --      1.3597                 4.2012                11.3938

                     19                     20                     21
                      A                      A                      A
 Frequencies --    931.7976               978.9382              1005.3012
 Red. masses --      2.0299                 3.0599                 2.8773
 Frc consts  --      1.0384                 1.7277                 1.7133
 IR Inten    --      7.8821                20.4618                 6.4454

                     22                     23                     24
                      A                      A                      A
 Frequencies --   1011.2644              1047.9700              1054.7294
 Red. masses --      2.8332                 1.7881                 1.6938
 Frc consts  --      1.7071                 1.1570                 1.1102
 IR Inten    --     16.1772                 9.6276                13.0752

                     25                     26                     27
                      A                      A                      A
 Frequencies --   1082.2251              1103.4822              1145.7466
 Red. masses --      1.3978                 1.6614                 2.2412
 Frc consts  --      0.9646                 1.1919                 1.7334
 IR Inten    --      0.2879                68.9847                73.2028

                     28                     29                     30
                      A                      A                      A
 Frequencies --   1158.2347              1180.2684              1191.9304
 Red. masses --      1.9970                 1.3367                 1.2819
 Frc consts  --      1.5785                 1.0971                 1.0730
 IR Inten    --     87.3592                13.3516                 0.5823

                     31                     32                     33
                      A                      A                      A
 Frequencies --   1207.1721              1217.1579              1231.8679
 Red. masses --      1.4535                 1.8696                 1.5886
 Frc consts  --      1.2480                 1.6319                 1.4204
 IR Inten    --     18.6131                43.4350                24.3689

                     34                     35                     36
                      A                      A                      A
 Frequencies --   1240.9056              1284.5405              1328.3675
 Red. masses --      1.7513                 1.6600                 1.5416
 Frc consts  --      1.5889                 1.6138                 1.6027
 IR Inten    --      3.7097                28.3305                 3.9484

                     37                     38                     39
                      A                      A                      A
 Frequencies --   1385.2286              1399.0234              1437.4934
 Red. masses --      2.2702                 1.2581                 1.2644
 Frc consts  --      2.5665                 1.4509                 1.5394
 IR Inten    --      2.6810                 9.5597                69.8123

                     40                     41                     42
                      A                      A                      A
 Frequencies --   1458.7894              1478.6159              1487.3051
 Red. masses --      1.0909                 1.1422                 1.1467
 Frc consts  --      1.3678                 1.4712                 1.4946
 IR Inten    --      1.0721                 1.5004                 8.4528

                     43                     44                     45
                      A                      A                      A
 Frequencies --   1493.4678              1503.8642              1511.9806
 Red. masses --      1.0568                 1.6076                 1.0530
 Frc consts  --      1.3887                 2.1421                 1.4184
 IR Inten    --      4.4770                 1.4709                 6.8420

                     46                     47                     48
                      A                      A                      A
 Frequencies --   2994.7667              3002.3904              3036.8894
 Red. masses --      1.0415                 1.0763                 1.0633
 Frc consts  --      5.5034                 5.7165                 5.7777
 IR Inten    --     58.4843                18.8323                35.9849

                     49                     50                     51
                      A                      A                      A
 Frequencies --   3050.9531              3089.7716              3106.8865
 Red. masses --      1.1038                 1.0880                 1.0996
 Frc consts  --      6.0534                 6.1200                 6.2538
 IR Inten    --     42.3479                16.0546                30.1270

                     52                     53                     54
                      A                      A                      A
 Frequencies --   3111.4330              3119.7005              3124.7311
 Red. masses --      1.0983                 1.0514                 1.0563
 Frc consts  --      6.2644                 6.0292                 6.0767
 IR Inten    --     30.3380                19.2095                13.2026

                     55                     56                     57
                      A                      A                      A
 Frequencies --   3199.3271              3215.2761              3806.1107
 Red. masses --      1.1176                 1.1156                 1.0658
 Frc consts  --      6.7397                 6.7951                 9.0969
 IR Inten    --      0.7163                15.1538                16.0371

 - Thermochemistry -
 -------------------
 Temperature   298.150 Kelvin.  Pressure   1.00000 Atm.
 Atom     1 has atomic number  6 and mass  12.00000

 Molecular mass:   128.08373 amu.
 Principal axes and moments of inertia in atomic units:
                           1         2         3
     Eigenvalues --   896.948001168.745011742.84451
           X            0.99809  -0.06167  -0.00261
           Y            0.06172   0.99752   0.03371
           Z            0.00052  -0.03380   0.99943
 This molecule is an asymmetric top.
 Rotational symmetry number  1.
 Warning -- assumption of classical behavior for rotation
           may cause significant error
 Rotational temperatures (Kelvin)      0.09657     0.07411     0.04970
 Rotational constants (GHZ):           2.01209     1.54417     1.03551
 Zero-point vibrational energy     475695.3 (Joules/Mol)
                                  113.69391 (Kcal/Mol)
 Warning -- explicit consideration of  13 degrees of freedom as
           vibrations may cause significant error
 Vibrational temperatures:    102.15   170.66   246.26   288.24   322.77
          (Kelvin)            339.25   402.47   468.04   507.11   599.99
                              702.73   721.24   862.63  1087.10  1130.14
                             1171.30  1255.44  1296.94  1340.65  1408.47
                             1446.40  1454.98  1507.80  1517.52  1557.08
                             1587.66  1648.47  1666.44  1698.14  1714.92
                             1736.85  1751.22  1772.38  1785.39  1848.17
                             1911.22  1993.04  2012.88  2068.23  2098.87
                             2127.40  2139.90  2148.77  2163.73  2175.40
                             4308.80  4319.77  4369.41  4389.64  4445.49
                             4470.12  4476.66  4488.55  4495.79  4603.12
                             4626.07  5476.14

 Zero-point correction=                           0.181183 (Hartree/Particle)
 Thermal correction to Energy=                    0.190653
 Thermal correction to Enthalpy=                  0.191597
 Thermal correction to Gibbs Free Energy=         0.147012
 Sum of electronic and zero-point Energies=           -424.181386
 Sum of electronic and thermal Energies=              -424.171916
 Sum of electronic and thermal Enthalpies=            -424.170972
 Sum of electronic and thermal Free Energies=         -424.215557

                     E (Thermal)             CV                S
                      KCal/Mol        Cal/Mol-Kelvin    Cal/Mol-Kelvin
 Total                  119.637             35.683             93.838
 Electronic               0.000              0.000              0.000
 Translational            0.889              2.981             40.456
 Rotational               0.889              2.981             28.992
 Vibrational            117.859             29.721             24.390
 Vibration     1          0.598              1.968              4.125
 Vibration     2          0.609              1.934              3.123
 Vibration     3          0.626              1.878              2.423
 Vibration     4          0.638              1.839              2.130
 Vibration     5          0.649              1.804              1.924
 Vibration     6          0.655              1.786              1.834
 Vibration     7          0.680              1.711              1.535
 Vibration     8          0.709              1.625              1.283
 Vibration     9          0.729              1.570              1.155
 Vibration    10          0.780              1.433              0.902
 Vibration    11          0.844              1.276              0.688
 Vibration    12          0.857              1.247              0.655
 Vibration    13          0.958              1.033              0.450

 Optimization completed.
    -- Stationary point found.
 Normal termination of Gaussian 16 at Tue Mar  9 02:41:14 2021.
