 Gaussian 16, Revision A.03,
 Gaussian 16:  ES64L-G16RevA.03 25-Dec-2016

 -----------------------------
 # opt freq b3lyp/6-31g(2df,p)
 -----------------------------

 -----
 Title
 -----
 Symbolic Z-matrix:
 Charge =  0 Multiplicity = 1

 SCF Done:  E(RB3LYP) =  -404.447804533     A.U. after   13 cycles
 SCF Done:  E(RB3LYP) =  -404.477335481     A.U. after   11 cycles
 SCF Done:  E(RB3LYP) =  -404.489327514     A.U. after   11 cycles
 SCF Done:  E(RB3LYP) =  -404.491943512     A.U. after   10 cycles
 SCF Done:  E(RB3LYP) =  -404.492311169     A.U. after   10 cycles
 SCF Done:  E(RB3LYP) =  -404.492369534     A.U. after    9 cycles
 SCF Done:  E(RB3LYP) =  -404.492385879     A.U. after    8 cycles
 SCF Done:  E(RB3LYP) =  -404.492387174     A.U. after    7 cycles
 Optimization completed.
    -- Stationary point found.
 Normal termination of Gaussian 16 at Thu Feb 18 09:52:58 2021.

 ----------------------------------------------------------------------
 #N Geom=AllCheck Guess=TCheck SCRF=Check GenChk RB3LYP/6-31G(2df,p) Fr
 eq
 ----------------------------------------------------------------------

 Structure from the checkpoint file:  "COCC12NC1CC2C_avo.chk"
 -----
 Title
 -----
 Charge =  0 Multiplicity = 1

                         Standard orientation:
 ---------------------------------------------------------------------
 Center     Atomic      Atomic             Coordinates (Angstroms)
 Number     Number       Type             X           Y           Z
 ---------------------------------------------------------------------
      1          6           0       -3.293408    0.082249   -0.012967
      2          8           0       -1.953280    0.017417   -0.436160
      3          6           0       -1.071572   -0.378936    0.599236
      4          6           0        0.313813   -0.434652    0.040427
      5          7           0        0.799947   -1.687621   -0.529166
      6          6           0        1.568141   -1.084611    0.556297
      7          6           0        2.425648    0.084065    0.053960
      8          6           0        1.125822    0.764285   -0.504121
      9          6           0        0.797936    2.118055    0.112677
     10          1           0       -3.661420   -0.897589    0.330586
     11          1           0       -3.892899    0.403794   -0.868252
     12          1           0       -3.430292    0.804546    0.808364
     13          1           0       -1.126234    0.341265    1.433750
     14          1           0       -1.345271   -1.370348    0.992139
     15          1           0        1.241855   -1.562710   -1.438823
     16          1           0        1.736420   -1.679315    1.447822
     17          1           0        3.211493   -0.178413   -0.662798
     18          1           0        2.872118    0.671370    0.861375
     19          1           0        1.080528    0.839239   -1.597000
     20          1           0        0.846238    2.079493    1.207122
     21          1           0       -0.210160    2.437353   -0.170039
     22          1           0        1.505960    2.882597   -0.223857
 ---------------------------------------------------------------------

 SCF Done:  E(RB3LYP) =  -404.492387174     A.U. after    1 cycles

 The electronic state is 1-A.
 Alpha  occ. eigenvalues --  -19.13642 -14.31968 -10.22447 -10.22116 -10.21169
 Alpha  occ. eigenvalues --  -10.21085 -10.19060 -10.18429 -10.17474  -1.02924
 Alpha  occ. eigenvalues --   -0.96921  -0.78785  -0.73760  -0.69970  -0.65473
 Alpha  occ. eigenvalues --   -0.61945  -0.60381  -0.52168  -0.49640  -0.48966
 Alpha  occ. eigenvalues --   -0.47678  -0.46040  -0.44579  -0.41677  -0.40452
 Alpha  occ. eigenvalues --   -0.38914  -0.38706  -0.36528  -0.33220  -0.32527
 Alpha  occ. eigenvalues --   -0.30892  -0.30562  -0.27753  -0.25196  -0.24738
 Alpha virt. eigenvalues --    0.07764   0.09802   0.10560   0.11834   0.12076
 Alpha virt. eigenvalues --    0.13815   0.14666   0.14928   0.15937   0.16566
 Alpha virt. eigenvalues --    0.16673   0.17804   0.18148   0.18478   0.19520

 Mulliken charges:
               1
     1  C   -0.219406
     2  O   -0.240242
     3  C   -0.179277
     4  C    0.355611
     5  N   -0.359543
     6  C   -0.100475
     7  C   -0.259742
     8  C   -0.031278
     9  C   -0.415152
    10  H    0.105250
    11  H    0.125550
    12  H    0.100071
    13  H    0.082928
    14  H    0.099103
    15  H    0.222066
    16  H    0.091356
    17  H    0.094516
    18  H    0.103686
    19  H    0.069902
    20  H    0.111741
    21  H    0.129547
    22  H    0.113789
 Sum of Mulliken charges =  -0.00000

 Dipole moment (field-independent basis, Debye):
    X=              0.2757    Y=              1.1830    Z=              0.7997  Tot=              1.4543
 Quadrupole moment (field-independent basis, Debye-Ang):
   XX=            -50.1034   YY=            -59.3642   ZZ=            -53.7463
   XY=             -0.0649   XZ=             -2.0689   YZ=             -0.6286

  Exact polarizability:  96.675  -1.908  81.524   0.800  -0.525  71.807
 Approx polarizability: 122.196  -2.898 115.463   3.271   0.297 113.385

                      1                      2                      3
                      A                      A                      A
 Frequencies --     61.6923                95.3552               112.9677
 Red. masses --      3.0809                 2.2904                 2.7980
 Frc consts  --      0.0069                 0.0123                 0.0210
 IR Inten    --      0.6180                 4.6696                 1.2700

                      4                      5                      6
                      A                      A                      A
 Frequencies --    184.1686               213.6591               251.8548
 Red. masses --      2.9534                 1.5800                 1.6253
 Frc consts  --      0.0590                 0.0425                 0.0607
 IR Inten    --      1.2107                 1.1704                 1.2234

                      7                      8                      9
                      A                      A                      A
 Frequencies --    265.2835               348.1584               383.2872
 Red. masses --      1.0779                 3.3358                 2.1972
 Frc consts  --      0.0447                 0.2382                 0.1902
 IR Inten    --      0.2199                 0.6402                 0.6666

                     10                     11                     12
                      A                      A                      A
 Frequencies --    391.5107               468.8506               479.5796
 Red. masses --      3.0798                 2.2161                 3.1474
 Frc consts  --      0.2781                 0.2870                 0.4265
 IR Inten    --      0.5452                 7.2078                 3.5082

                     13                     14                     15
                      A                      A                      A
 Frequencies --    717.0080               744.0866               834.6723
 Red. masses --      3.4317                 2.7604                 3.5101
 Frc consts  --      1.0395                 0.9005                 1.4408
 IR Inten    --      3.8454                 5.1359                21.8237

                     16                     17                     18
                      A                      A                      A
 Frequencies --    856.3041               862.3820               927.8207
 Red. masses --      3.4057                 1.8655                 1.5690
 Frc consts  --      1.4713                 0.8174                 0.7958
 IR Inten    --     19.3243                 5.1835                 0.9758

                     19                     20                     21
                      A                      A                      A
 Frequencies --    952.9602               977.4336              1004.4548
 Red. masses --      2.3167                 2.6343                 1.4694
 Frc consts  --      1.2396                 1.4828                 0.8735
 IR Inten    --      6.1271                21.8696                 0.8017

                     22                     23                     24
                      A                      A                      A
 Frequencies --   1048.7056              1061.7742              1068.1461
 Red. masses --      1.6873                 1.9565                 1.4431
 Frc consts  --      1.0933                 1.2996                 0.9701
 IR Inten    --     18.8623                 3.1612                 2.9087

                     25                     26                     27
                      A                      A                      A
 Frequencies --   1105.2663              1139.6813              1149.9290
 Red. masses --      1.6981                 1.4877                 5.0318
 Frc consts  --      1.2222                 1.1385                 3.9203
 IR Inten    --      3.1921                12.2732               164.4757

                     28                     29                     30
                      A                      A                      A
 Frequencies --   1173.1154              1186.6149              1203.5021
 Red. masses --      1.7224                 1.4643                 1.6110
 Frc consts  --      1.3966                 1.2148                 1.3748
 IR Inten    --     16.8330                 0.7331                12.3775

                     31                     32                     33
                      A                      A                      A
 Frequencies --   1223.6800              1227.1168              1258.6534
 Red. masses --      1.6063                 1.5919                 1.3151
 Frc consts  --      1.4171                 1.4123                 1.2275
 IR Inten    --     40.6337                 2.0642                 1.4423

                     34                     35                     36
                      A                      A                      A
 Frequencies --   1260.7244              1287.7876              1316.6235
 Red. masses --      1.3080                 1.4672                 1.6759
 Frc consts  --      1.2249                 1.4336                 1.7117
 IR Inten    --      6.9598                20.5193                 6.4601

                     37                     38                     39
                      A                      A                      A
 Frequencies --   1361.5388              1383.4816              1406.8137
 Red. masses --      1.4991                 1.5449                 1.2572
 Frc consts  --      1.6374                 1.7422                 1.4659
 IR Inten    --      5.6854                20.6230                 5.0861

                     40                     41                     42
                      A                      A                      A
 Frequencies --   1458.1504              1481.1984              1484.9609
 Red. masses --      1.9029                 1.2184                 1.0507
 Frc consts  --      2.3838                 1.5749                 1.3651
 IR Inten    --     22.0805                 0.3065                 4.5375

                     43                     44                     45
                      A                      A                      A
 Frequencies --   1489.5370              1493.0248              1498.3516
 Red. masses --      1.2653                 1.0648                 1.0936
 Frc consts  --      1.6541                 1.3984                 1.4466
 IR Inten    --      0.4141                 4.3556                 7.3615

                     46                     47                     48
                      A                      A                      A
 Frequencies --   1504.5911              1519.7330              2952.5264
 Red. masses --      1.0518                 1.0867                 1.0570
 Frc consts  --      1.4029                 1.4788                 5.4290
 IR Inten    --      3.2173                 2.0906                29.6409

                     49                     50                     51
                      A                      A                      A
 Frequencies --   2967.4106              3002.0962              3009.3997
 Red. masses --      1.0425                 1.0964                 1.1028
 Frc consts  --      5.4085                 5.8217                 5.8847
 IR Inten    --     81.7707                61.8005                37.7065

                     52                     53                     54
                      A                      A                      A
 Frequencies --   3026.0243              3028.5770              3040.4195
 Red. masses --      1.0459                 1.0705                 1.0636
 Frc consts  --      5.6427                 5.7852                 5.7928
 IR Inten    --     21.1487                27.0447                48.6995

                     55                     56                     57
                      A                      A                      A
 Frequencies --   3091.2831              3096.1391              3104.8833
 Red. masses --      1.1019                 1.1031                 1.1016
 Frc consts  --      6.2041                 6.2302                 6.2571
 IR Inten    --     19.6815                39.1083                22.4021

                     58                     59                     60
                      A                      A                      A
 Frequencies --   3111.4789              3167.2932              3456.4480
 Red. masses --      1.0956                 1.0930                 1.0759
 Frc consts  --      6.2496                 6.4604                 7.5736
 IR Inten    --     30.6207                26.9269                 1.8633

 - Thermochemistry -
 -------------------
 Temperature   298.150 Kelvin.  Pressure   1.00000 Atm.
 Atom     1 has atomic number  6 and mass  12.00000

 Molecular mass:   127.09971 amu.
 Principal axes and moments of inertia in atomic units:
                           1         2         3
     Eigenvalues --   642.505211577.291941989.26145
           X            0.99988   0.01274  -0.00922
           Y           -0.01276   0.99992  -0.00170
           Z            0.00920   0.00182   0.99996
 This molecule is an asymmetric top.
 Rotational symmetry number  1.
 Warning -- assumption of classical behavior for rotation
           may cause significant error
 Rotational temperatures (Kelvin)      0.13481     0.05491     0.04354
 Rotational constants (GHZ):           2.80891     1.14420     0.90724
 Zero-point vibrational energy     508294.3 (Joules/Mol)
                                  121.48525 (Kcal/Mol)
 Warning -- explicit consideration of  12 degrees of freedom as
           vibrations may cause significant error
 Vibrational temperatures:     88.76   137.19   162.54   264.98   307.41
          (Kelvin)            362.36   381.68   500.92   551.46   563.30
                              674.57   690.01  1031.61  1070.57  1200.91
                             1232.03  1240.78  1334.93  1371.10  1406.31
                             1445.19  1508.85  1527.66  1536.82  1590.23
                             1639.75  1654.49  1687.85  1707.27  1731.57
                             1760.60  1765.55  1810.92  1813.90  1852.84
                             1894.33  1958.95  1990.52  2024.09  2097.95
                             2131.11  2136.53  2143.11  2148.13  2155.79
                             2164.77  2186.56  4248.03  4269.44  4319.35
                             4329.85  4353.77  4357.45  4374.49  4447.67
                             4454.65  4467.23  4476.72  4557.03  4973.06

 Zero-point correction=                           0.193599 (Hartree/Particle)
 Thermal correction to Energy=                    0.203182
 Thermal correction to Enthalpy=                  0.204126
 Thermal correction to Gibbs Free Energy=         0.158832
 Sum of electronic and zero-point Energies=           -404.298788
 Sum of electronic and thermal Energies=              -404.289205
 Sum of electronic and thermal Enthalpies=            -404.288261
 Sum of electronic and thermal Free Energies=         -404.333555

                     E (Thermal)             CV                S
                      KCal/Mol        Cal/Mol-Kelvin    Cal/Mol-Kelvin
 Total                  127.499             35.435             95.330
 Electronic               0.000              0.000              0.000
 Translational            0.889              2.981             40.433
 Rotational               0.889              2.981             29.090
 Vibrational            125.721             29.474             25.807
 Vibration     1          0.597              1.973              4.402
 Vibration     2          0.603              1.953              3.547
 Vibration     3          0.607              1.939              3.217
 Vibration     4          0.631              1.861              2.286
 Vibration     5          0.644              1.820              2.012
 Vibration     6          0.664              1.760              1.718
 Vibration     7          0.671              1.737              1.627
 Vibration     8          0.726              1.579              1.175
 Vibration     9          0.752              1.506              1.026
 Vibration    10          0.759              1.488              0.994
 Vibration    11          0.826              1.319              0.741
 Vibration    12          0.836              1.295              0.711

                           ! Non-Optimized Parameters !
 Normal termination of Gaussian 16 at Thu Feb 18 10:27:21 2021.
