 Gaussian 16, Revision A.03,
 Gaussian 16:  ES64L-G16RevA.03 25-Dec-2016

 -----------------------------
 # opt freq b3lyp/6-31g(2df,p)
 -----------------------------

 -------------------
 Title Card Required
 -------------------
 Symbolic Z-matrix:
 Charge =  0 Multiplicity = 1

 SCF Done:  E(RB3LYP) =  -363.070214540     A.U. after   14 cycles
 SCF Done:  E(RB3LYP) =  -363.075511391     A.U. after   12 cycles
 SCF Done:  E(RB3LYP) =  -363.075770012     A.U. after   13 cycles
 SCF Done:  E(RB3LYP) =  -363.076809755     A.U. after   12 cycles
 SCF Done:  E(RB3LYP) =  -363.077287873     A.U. after   10 cycles
 SCF Done:  E(RB3LYP) =  -363.077364608     A.U. after   11 cycles
 SCF Done:  E(RB3LYP) =  -363.077385196     A.U. after   10 cycles
 SCF Done:  E(RB3LYP) =  -363.077393476     A.U. after    9 cycles
 SCF Done:  E(RB3LYP) =  -363.077398104     A.U. after    9 cycles
 SCF Done:  E(RB3LYP) =  -363.077399112     A.U. after    8 cycles
 SCF Done:  E(RB3LYP) =  -363.077399249     A.U. after    7 cycles
 Optimization completed.
    -- Stationary point found.
 Normal termination of Gaussian 16 at Tue Mar  9 00:55:58 2021.

 ----------------------------------------------------------------------
 #N Geom=AllCheck Guess=TCheck SCRF=Check GenChk RB3LYP/6-31G(2df,p) Fr
 eq
 ----------------------------------------------------------------------

 Structure from the checkpoint file:  "COCpdOpCpCpN.chk"
 -------------------
 Title Card Required
 -------------------
 Charge =  0 Multiplicity = 1

                         Standard orientation:
 ---------------------------------------------------------------------
 Center     Atomic      Atomic             Coordinates (Angstroms)
 Number     Number       Type             X           Y           Z
 ---------------------------------------------------------------------
      1          6           0       -2.591394    0.187101   -0.048719
      2          8           0       -1.259253    0.533911   -0.451039
      3          6           0       -0.290586   -0.284211   -0.004003
      4          8           0       -0.493864   -1.258491    0.677865
      5          6           0        1.087243    0.209766   -0.421461
      6          6           0        1.512759    1.341063    0.540348
      7          7           0        1.986629   -0.939123   -0.460468
      8          1           0       -3.240275    0.945024   -0.487293
      9          1           0       -2.678798    0.190807    1.040719
     10          1           0       -2.857351   -0.806025   -0.418813
     11          1           0        0.993460    0.634701   -1.427859
     12          1           0        1.568285    0.969008    1.568720
     13          1           0        0.810116    2.179246    0.506961
     14          1           0        2.501656    1.714908    0.256198
     15          1           0        1.765450   -1.546376    0.324195
     16          1           0        2.947860   -0.633113   -0.351160
 ---------------------------------------------------------------------

 SCF Done:  E(RB3LYP) =  -363.077399249     A.U. after    1 cycles

 The electronic state is 1-A.
 Alpha  occ. eigenvalues --  -19.18660 -19.12850 -14.30490 -10.30334 -10.23960
 Alpha  occ. eigenvalues --  -10.22309 -10.18499  -1.10478  -1.01665  -0.88513
 Alpha  occ. eigenvalues --   -0.75835  -0.71763  -0.63791  -0.55886  -0.52356
 Alpha  occ. eigenvalues --   -0.48473  -0.47937  -0.45271  -0.43604  -0.43067
 Alpha  occ. eigenvalues --   -0.40293  -0.38876  -0.37717  -0.35982  -0.35167
 Alpha  occ. eigenvalues --   -0.30434  -0.27372  -0.23579
 Alpha virt. eigenvalues --    0.01324   0.08467   0.11153   0.12155   0.13951
 Alpha virt. eigenvalues --    0.14763   0.15504   0.15923   0.16586   0.17267
 Alpha virt. eigenvalues --    0.18843   0.22177   0.23184   0.27773   0.31371

 Mulliken charges:
               1
     1  C   -0.241865
     2  O   -0.232303
     3  C    0.467824
     4  O   -0.368952
     5  C   -0.054381
     6  C   -0.402705
     7  N   -0.523870
     8  H    0.134409
     9  H    0.140657
    10  H    0.144666
    11  H    0.102664
    12  H    0.125409
    13  H    0.127614
    14  H    0.117108
    15  H    0.240549
    16  H    0.223176
 Sum of Mulliken charges =   0.00000

 Dipole moment (field-independent basis, Debye):
    X=             -0.2785    Y=              2.0074    Z=              0.3590  Tot=              2.0582
 Quadrupole moment (field-independent basis, Debye-Ang):
   XX=            -33.4983   YY=            -45.5751   ZZ=            -43.8384
   XY=              0.4257   XZ=              2.1335   YZ=             -0.0137

  Exact polarizability:  69.665  -1.363  55.875   0.314  -2.598  46.984
 Approx polarizability:  84.041  -2.345  84.718  -0.113 -10.059  72.155

                      1                      2                      3
                      A                      A                      A
 Frequencies --     54.1206               115.4312               140.3767
 Red. masses --      3.9012                 1.1307                 2.7093
 Frc consts  --      0.0067                 0.0089                 0.0315
 IR Inten    --      2.2290                 0.5952                 1.4849

                      4                      5                      6
                      A                      A                      A
 Frequencies --    205.2871               233.1456               256.1340
 Red. masses --      1.6170                 1.2975                 1.4677
 Frc consts  --      0.0402                 0.0416                 0.0567
 IR Inten    --     20.1494                30.4176                 3.9324

                      7                      8                      9
                      A                      A                      A
 Frequencies --    287.8834               348.7478               370.7018
 Red. masses --      2.4831                 4.6010                 3.3313
 Frc consts  --      0.1212                 0.3297                 0.2697
 IR Inten    --      2.9332                 8.4165                 9.7075

                     10                     11                     12
                      A                      A                      A
 Frequencies --    492.6089               665.1030               758.7439
 Red. masses --      3.1518                 3.6706                 4.3984
 Frc consts  --      0.4506                 0.9567                 1.4919
 IR Inten    --      2.0262                 6.7597                 9.1783

                     13                     14                     15
                      A                      A                      A
 Frequencies --    841.9049               880.1782               927.4440
 Red. masses --      2.9548                 1.9232                 1.5347
 Frc consts  --      1.2340                 0.8779                 0.7777
 IR Inten    --     23.6345               118.3179                37.7757

                     16                     17                     18
                      A                      A                      A
 Frequencies --   1016.7118              1038.1522              1081.7940
 Red. masses --      3.7148                 1.9313                 2.5714
 Frc consts  --      2.2625                 1.2264                 1.7730
 IR Inten    --     11.0393                12.0126                15.3992

                     19                     20                     21
                      A                      A                      A
 Frequencies --   1174.3671              1179.8283              1200.4907
 Red. masses --      1.3258                 1.3010                 2.1319
 Frc consts  --      1.0773                 1.0670                 1.8103
 IR Inten    --      1.8694                 2.8738               128.9085

                     22                     23                     24
                      A                      A                      A
 Frequencies --   1213.9011              1263.8046              1349.8323
 Red. masses --      1.7569                 2.6519                 1.2522
 Frc consts  --      1.5254                 2.4956                 1.3443
 IR Inten    --     55.9549               195.7873                12.8428

                     25                     26                     27
                      A                      A                      A
 Frequencies --   1393.3805              1418.0899              1474.1679
 Red. masses --      1.2398                 1.4965                 1.2077
 Frc consts  --      1.4182                 1.7731                 1.5463
 IR Inten    --      1.4101                17.4741                10.7976

                     28                     29                     30
                      A                      A                      A
 Frequencies --   1481.8149              1492.3464              1497.1724
 Red. masses --      1.0468                 1.0482                 1.0542
 Frc consts  --      1.3542                 1.3754                 1.3922
 IR Inten    --      6.5099                 4.0886                 9.2566

                     31                     32                     33
                      A                      A                      A
 Frequencies --   1503.2793              1638.4742              1818.7665
 Red. masses --      1.1137                 1.1051                 9.5775
 Frc consts  --      1.4828                 1.7479                18.6661
 IR Inten    --     11.8440                61.7878               174.5884

                     34                     35                     36
                      A                      A                      A
 Frequencies --   3030.9856              3036.8302              3052.5691
 Red. masses --      1.0346                 1.0826                 1.0298
 Frc consts  --      5.6001                 5.8825                 5.6539
 IR Inten    --     16.5335                21.5440                27.5179

                     37                     38                     39
                      A                      A                      A
 Frequencies --   3106.0199              3113.4039              3127.7345
 Red. masses --      1.1025                 1.1022                 1.1056
 Frc consts  --      6.2667                 6.2949                 6.3726
 IR Inten    --     23.4361                24.7541                18.2033

                     40                     41                     42
                      A                      A                      A
 Frequencies --   3160.2618              3492.9227              3578.6113
 Red. masses --      1.1061                 1.0486                 1.0926
 Frc consts  --      6.5084                 7.5380                 8.2441
 IR Inten    --     14.7643                 6.0346                 4.9539

 - Thermochemistry -
 -------------------
 Temperature   298.150 Kelvin.  Pressure   1.00000 Atm.
 Atom     1 has atomic number  6 and mass  12.00000

 Molecular mass:   103.06333 amu.
 Principal axes and moments of inertia in atomic units:
                           1         2         3
     Eigenvalues --   374.616821006.716151197.49874
           X            0.99989   0.01315   0.00744
           Y           -0.01341   0.99922   0.03717
           Z           -0.00695  -0.03726   0.99928
 This molecule is an asymmetric top.
 Rotational symmetry number  1.
 Rotational temperatures (Kelvin)      0.23121     0.08604     0.07233
 Rotational constants (GHZ):           4.81757     1.79270     1.50709
 Zero-point vibrational energy     355969.9 (Joules/Mol)
                                   85.07885 (Kcal/Mol)
 Warning -- explicit consideration of  10 degrees of freedom as
           vibrations may cause significant error
 Vibrational temperatures:     77.87   166.08   201.97   295.36   335.44
          (Kelvin)            368.52   414.20   501.77   533.36   708.75
                              956.93  1091.66  1211.31  1266.38  1334.39
                             1462.82  1493.67  1556.46  1689.65  1697.51
                             1727.24  1746.53  1818.33  1942.11  2004.76
                             2040.32  2121.00  2132.00  2147.15  2154.10
                             2162.88  2357.40  2616.80  4360.91  4369.32
                             4391.97  4468.87  4479.49  4500.11  4546.91
                             5025.54  5148.82

 Zero-point correction=                           0.135582 (Hartree/Particle)
 Thermal correction to Energy=                    0.144136
 Thermal correction to Enthalpy=                  0.145080
 Thermal correction to Gibbs Free Energy=         0.102461
 Sum of electronic and zero-point Energies=           -362.941817
 Sum of electronic and thermal Energies=              -362.933264
 Sum of electronic and thermal Enthalpies=            -362.932320
 Sum of electronic and thermal Free Energies=         -362.974938

                     E (Thermal)             CV                S
                      KCal/Mol        Cal/Mol-Kelvin    Cal/Mol-Kelvin
 Total                   90.446             29.221             89.698
 Electronic               0.000              0.000              0.000
 Translational            0.889              2.981             39.808
 Rotational               0.889              2.981             27.604
 Vibrational             88.669             23.260             22.287
 Vibration     1          0.596              1.976              4.661
 Vibration     2          0.608              1.937              3.175
 Vibration     3          0.615              1.913              2.799
 Vibration     4          0.640              1.832              2.085
 Vibration     5          0.654              1.790              1.855
 Vibration     6          0.666              1.752              1.688
 Vibration     7          0.685              1.696              1.486
 Vibration     8          0.726              1.578              1.172
 Vibration     9          0.743              1.532              1.077
 Vibration    10          0.848              1.266              0.677

                           ! Non-Optimized Parameters !
 Normal termination of Gaussian 16 at Tue Mar  9 01:11:02 2021.
