 Gaussian 16, Revision A.03,
 Gaussian 16:  ES64L-G16RevA.03 25-Dec-2016

 -----------------------------
 # opt freq b3lyp/6-31g(2df,p)
 -----------------------------

 -------------------
 Title Card Required
 -------------------
 Symbolic Z-matrix:
 Charge =  0 Multiplicity = 1

 SCF Done:  E(RB3LYP) =  -402.052662486     A.U. after   15 cycles
 SCF Done:  E(RB3LYP) =  -402.071479835     A.U. after   12 cycles
 SCF Done:  E(RB3LYP) =  -402.074820376     A.U. after   12 cycles
 SCF Done:  E(RB3LYP) =  -402.066930128     A.U. after   15 cycles
 SCF Done:  E(RB3LYP) =  -402.075910419     A.U. after   13 cycles
 SCF Done:  E(RB3LYP) =  -402.073708051     A.U. after   13 cycles
 SCF Done:  E(RB3LYP) =  -402.075247069     A.U. after   12 cycles
 SCF Done:  E(RB3LYP) =  -402.076179194     A.U. after   10 cycles
 SCF Done:  E(RB3LYP) =  -402.076453602     A.U. after   12 cycles
 SCF Done:  E(RB3LYP) =  -402.076468701     A.U. after   11 cycles
 SCF Done:  E(RB3LYP) =  -402.076503235     A.U. after   10 cycles
 SCF Done:  E(RB3LYP) =  -402.076513508     A.U. after   10 cycles
 SCF Done:  E(RB3LYP) =  -402.076515678     A.U. after    8 cycles
 Optimization completed.
    -- Stationary point found.
 Normal termination of Gaussian 16 at Thu Feb 18 08:05:26 2021.

 ----------------------------------------------------------------------
 #N Geom=AllCheck Guess=TCheck SCRF=Check GenChk RB3LYP/6-31G(2df,p) Fr
 eq
 ----------------------------------------------------------------------

 Structure from the checkpoint file:  "CtCC1NdCOC1CC_avo.chk"
 -------------------
 Title Card Required
 -------------------
 Charge =  0 Multiplicity = 1

                         Standard orientation:
 ---------------------------------------------------------------------
 Center     Atomic      Atomic             Coordinates (Angstroms)
 Number     Number       Type             X           Y           Z
 ---------------------------------------------------------------------
      1          6           0        0.807079    2.568394   -0.514694
      2          6           0        0.239740    1.662761    0.035258
      3          6           0       -0.457645    0.570995    0.712738
      4          7           0       -1.907924    0.604854    0.378837
      5          6           0       -2.130272   -0.467089   -0.260715
      6          8           0       -1.145688   -1.366996   -0.455978
      7          6           0       -0.004574   -0.878828    0.305621
      8          6           0        1.263759   -1.048114   -0.515201
      9          6           0        2.534611   -0.814038    0.308115
     10          1           0        1.300966    3.373959   -0.999756
     11          1           0       -0.343804    0.706827    1.793129
     12          1           0       -3.086289   -0.743792   -0.692450
     13          1           0        0.049893   -1.499406    1.208441
     14          1           0        1.261338   -2.067474   -0.916521
     15          1           0        1.231517   -0.364464   -1.369319
     16          1           0        3.424767   -0.982347   -0.304296
     17          1           0        2.585765   -1.496863    1.163628
     18          1           0        2.580631    0.211060    0.686380
 ---------------------------------------------------------------------

 SCF Done:  E(RB3LYP) =  -402.076515678     A.U. after    1 cycles

 The electronic state is 1-A.
 Alpha  occ. eigenvalues --  -19.18062 -14.31677 -10.27108 -10.25238 -10.24409
 Alpha  occ. eigenvalues --  -10.19007 -10.18672 -10.18158 -10.17984  -1.09143
 Alpha  occ. eigenvalues --   -0.90763  -0.81407  -0.76060  -0.72420  -0.66199
 Alpha  occ. eigenvalues --   -0.61321  -0.58600  -0.53589  -0.51890  -0.49825
 Alpha  occ. eigenvalues --   -0.46133  -0.44408  -0.42672  -0.42392  -0.38895
 Alpha  occ. eigenvalues --   -0.37517  -0.36574  -0.35040  -0.34445  -0.28530
 Alpha  occ. eigenvalues --   -0.27261  -0.26894  -0.25687
 Alpha virt. eigenvalues --    0.01140   0.04364   0.04746   0.09324   0.10922
 Alpha virt. eigenvalues --    0.12233   0.13442   0.14039   0.14734   0.15521
 Alpha virt. eigenvalues --    0.17221   0.18080   0.18840   0.19292   0.20901

 Mulliken charges:
               1
     1  C   -0.481913
     2  C    0.383659
     3  C   -0.202402
     4  N   -0.258787
     5  C    0.120014
     6  O   -0.229972
     7  C    0.107010
     8  C   -0.206269
     9  C   -0.392472
    10  H    0.202941
    11  H    0.119971
    12  H    0.144165
    13  H    0.095502
    14  H    0.109445
    15  H    0.120014
    16  H    0.121123
    17  H    0.115056
    18  H    0.132915
 Sum of Mulliken charges =  -0.00000

 Dipole moment (field-independent basis, Debye):
    X=              1.5123    Y=             -1.0640    Z=             -0.0199  Tot=              1.8492
 Quadrupole moment (field-independent basis, Debye-Ang):
   XX=            -52.1893   YY=            -52.6202   ZZ=            -51.3999
   XY=              4.3550   XZ=              0.8347   YZ=             -2.8778

  Exact polarizability:  84.395   7.614  85.646  -0.578  -3.308  61.641
 Approx polarizability: 113.667  16.548 135.552  -4.693  -4.599 101.177

                      1                      2                      3
                      A                      A                      A
 Frequencies --     54.8954               120.3183               156.5890
 Red. masses --      5.4905                 3.0033                 2.2917
 Frc consts  --      0.0097                 0.0256                 0.0331
 IR Inten    --      0.5080                 0.0998                 0.3665

                      4                      5                      6
                      A                      A                      A
 Frequencies --    190.4095               208.2804               257.5708
 Red. masses --      3.6821                 1.6822                 1.8052
 Frc consts  --      0.0787                 0.0430                 0.0706
 IR Inten    --      0.6407                 0.3159                 0.5703

                      7                      8                      9
                      A                      A                      A
 Frequencies --    370.2981               407.3569               456.4172
 Red. masses --      3.5251                 4.0775                 4.2552
 Frc consts  --      0.2848                 0.3987                 0.5223
 IR Inten    --      1.7198                 1.3759                 5.3370

                     10                     11                     12
                      A                      A                      A
 Frequencies --    525.0163               596.9945               627.8607
 Red. masses --      4.7505                 5.3304                 1.2294
 Frc consts  --      0.7715                 1.1193                 0.2855
 IR Inten    --      3.1687                13.8338                38.4506

                     13                     14                     15
                      A                      A                      A
 Frequencies --    654.9779               710.2337               810.5754
 Red. masses --      1.2435                 2.4328                 3.3262
 Frc consts  --      0.3143                 0.7230                 1.2876
 IR Inten    --     36.8333                 1.0270                15.2210

                     16                     17                     18
                      A                      A                      A
 Frequencies --    824.2066               877.0045               920.2573
 Red. masses --      1.5732                 6.5182                 2.2933
 Frc consts  --      0.6297                 2.9538                 1.1442
 IR Inten    --     13.2431                 2.1425                 4.4201

                     19                     20                     21
                      A                      A                      A
 Frequencies --    965.8718               972.3310               987.8012
 Red. masses --      3.3615                 2.0726                 2.5202
 Frc consts  --      1.8476                 1.1545                 1.4489
 IR Inten    --     32.6511                22.6827                 4.6845

                     22                     23                     24
                      A                      A                      A
 Frequencies --   1028.0217              1070.1859              1133.6632
 Red. masses --      2.1051                 2.5233                 1.9422
 Frc consts  --      1.3108                 1.7027                 1.4707
 IR Inten    --      4.6854                18.1071                29.7450

                     25                     26                     27
                      A                      A                      A
 Frequencies --   1148.6665              1173.1547              1251.0675
 Red. masses --      3.2006                 2.6916                 1.2681
 Frc consts  --      2.4881                 2.1826                 1.1694
 IR Inten    --    147.2367                 6.1739                 6.8866

                     28                     29                     30
                      A                      A                      A
 Frequencies --   1276.5769              1322.0285              1331.3160
 Red. masses --      1.2234                 1.1728                 1.3632
 Frc consts  --      1.1746                 1.2077                 1.4235
 IR Inten    --      3.7000                 2.2175                 4.1851

                     31                     32                     33
                      A                      A                      A
 Frequencies --   1339.9953              1368.5352              1403.8922
 Red. masses --      1.3259                 1.3958                 1.4795
 Frc consts  --      1.4028                 1.5402                 1.7180
 IR Inten    --      4.1267                12.2319                 1.2773

                     34                     35                     36
                      A                      A                      A
 Frequencies --   1414.9207              1486.3577              1500.7001
 Red. masses --      1.2375                 1.0646                 1.0527
 Frc consts  --      1.4597                 1.3857                 1.3969
 IR Inten    --      4.9646                 2.4673                 4.4917

                     37                     38                     39
                      A                      A                      A
 Frequencies --   1510.9485              1701.1311              2234.6778
 Red. masses --      1.0586                 7.9342                 5.9124
 Frc consts  --      1.4239                13.5278                17.3957
 IR Inten    --      3.3452               144.2669                 0.5746

                     40                     41                     42
                      A                      A                      A
 Frequencies --   3025.0889              3036.9379              3046.5474
 Red. masses --      1.0845                 1.0384                 1.0607
 Frc consts  --      5.8475                 5.6428                 5.8004
 IR Inten    --     17.6788                21.0593                17.8209

                     43                     44                     45
                      A                      A                      A
 Frequencies --   3052.4030              3086.9373              3108.1022
 Red. masses --      1.0839                 1.0998                 1.1006
 Frc consts  --      5.9500                 6.1747                 6.2642
 IR Inten    --     22.5331                 5.3709                34.5321

                     46                     47                     48
                      A                      A                      A
 Frequencies --   3119.8502              3210.8333              3501.8059
 Red. masses --      1.1020                 1.0964                 1.1625
 Frc consts  --      6.3195                 6.6597                 8.3988
 IR Inten    --     25.7097                11.9502                63.6159

 - Thermochemistry -
 -------------------
 Temperature   298.150 Kelvin.  Pressure   1.00000 Atm.
 Atom     1 has atomic number  6 and mass  12.00000

 Molecular mass:   123.06841 amu.
 Principal axes and moments of inertia in atomic units:
                           1         2         3
     Eigenvalues --   850.962851088.445791712.87099
           X            0.99857  -0.05319   0.00522
           Y            0.05325   0.99849  -0.01324
           Z           -0.00451   0.01350   0.99990
 This molecule is an asymmetric top.
 Rotational symmetry number  1.
 Warning -- assumption of classical behavior for rotation
           may cause significant error
 Rotational temperatures (Kelvin)      0.10178     0.07958     0.05057
 Rotational constants (GHZ):           2.12082     1.65809     1.05364
 Zero-point vibrational energy     386271.9 (Joules/Mol)
                                   92.32119 (Kcal/Mol)
 Warning -- explicit consideration of  11 degrees of freedom as
           vibrations may cause significant error
 Vibrational temperatures:     78.98   173.11   225.30   273.96   299.67
          (Kelvin)            370.59   532.78   586.10   656.68   755.38
                              858.94   903.35   942.37  1021.87  1166.24
                             1185.85  1261.81  1324.04  1389.67  1398.97
                             1421.23  1479.09  1539.76  1631.09  1652.67
                             1687.91  1800.01  1836.71  1902.10  1915.47
                             1927.95  1969.02  2019.89  2035.76  2138.54
                             2159.17  2173.92  2447.55  3215.20  4352.43
                             4369.48  4383.30  4391.73  4441.41  4471.87
                             4488.77  4619.67  5038.32

 Zero-point correction=                           0.147123 (Hartree/Particle)
 Thermal correction to Energy=                    0.155958
 Thermal correction to Enthalpy=                  0.156902
 Thermal correction to Gibbs Free Energy=         0.113241
 Sum of electronic and zero-point Energies=           -401.929392
 Sum of electronic and thermal Energies=              -401.920558
 Sum of electronic and thermal Enthalpies=            -401.919614
 Sum of electronic and thermal Free Energies=         -401.963274

                     E (Thermal)             CV                S
                      KCal/Mol        Cal/Mol-Kelvin    Cal/Mol-Kelvin
 Total                   97.865             32.625             91.892
 Electronic               0.000              0.000              0.000
 Translational            0.889              2.981             40.337
 Rotational               0.889              2.981             28.852
 Vibrational             96.087             26.663             22.703
 Vibration     1          0.596              1.976              4.633
 Vibration     2          0.609              1.932              3.095
 Vibration     3          0.620              1.895              2.591
 Vibration     4          0.634              1.853              2.224
 Vibration     5          0.642              1.828              2.059
 Vibration     6          0.667              1.750              1.678
 Vibration     7          0.742              1.533              1.079
 Vibration     8          0.772              1.454              0.936
 Vibration     9          0.815              1.347              0.777
 Vibration    10          0.880              1.195              0.598
 Vibration    11          0.955              1.038              0.455

 Optimization completed.
    -- Stationary point found.
 Normal termination of Gaussian 16 at Thu Feb 18 08:17:15 2021.
