 Gaussian 16, Revision A.03,
 Gaussian 16:  ES64L-G16RevA.03 25-Dec-2016

 -----------------------------
 # opt freq b3lyp/6-31g(2df,p)
 -----------------------------

 -----
 Title
 -----
 Symbolic Z-matrix:
 Charge =  0 Multiplicity = 1

 SCF Done:  E(RB3LYP) =  -387.240621746     A.U. after   15 cycles
 SCF Done:  E(RB3LYP) =  -387.244699106     A.U. after   13 cycles
 SCF Done:  E(RB3LYP) =  -387.239268944     A.U. after   14 cycles
 SCF Done:  E(RB3LYP) =  -387.245363342     A.U. after   13 cycles
 SCF Done:  E(RB3LYP) =  -387.245084505     A.U. after   13 cycles
 SCF Done:  E(RB3LYP) =  -387.245824438     A.U. after   12 cycles
 SCF Done:  E(RB3LYP) =  -387.246270406     A.U. after   13 cycles
 SCF Done:  E(RB3LYP) =  -387.246338997     A.U. after   14 cycles
 SCF Done:  E(RB3LYP) =  -387.246473593     A.U. after   12 cycles
 SCF Done:  E(RB3LYP) =  -387.246512857     A.U. after   11 cycles
 SCF Done:  E(RB3LYP) =  -387.247935218     A.U. after   14 cycles
 SCF Done:  E(RB3LYP) =  -387.217982532     A.U. after   15 cycles
 SCF Done:  E(RB3LYP) =  -387.249341300     A.U. after   14 cycles
 SCF Done:  E(RB3LYP) =  -387.250049454     A.U. after   14 cycles
 SCF Done:  E(RB3LYP) =  -387.250305562     A.U. after   13 cycles
 SCF Done:  E(RB3LYP) =  -387.250396910     A.U. after   12 cycles
 SCF Done:  E(RB3LYP) =  -387.250427135     A.U. after   11 cycles
 SCF Done:  E(RB3LYP) =  -387.250429620     A.U. after    8 cycles
 SCF Done:  E(RB3LYP) =  -387.250429863     A.U. after    7 cycles
 Optimization completed.
    -- Stationary point found.
 Normal termination of Gaussian 16 at Sun Feb 28 02:35:14 2021.

 ----------------------------------------------------------------------
 #N Geom=AllCheck Guess=TCheck SCRF=Check GenChk RB3LYP/6-31G(2df,p) Fr
 eq
 ----------------------------------------------------------------------

 Structure from the checkpoint file:  "CtCCpCppCdOpCpCpC.chk"
 -----
 Title
 -----
 Charge =  0 Multiplicity = 1

                         Standard orientation:
 ---------------------------------------------------------------------
 Center     Atomic      Atomic             Coordinates (Angstroms)
 Number     Number       Type             X           Y           Z
 ---------------------------------------------------------------------
      1          6           0       -2.623019    0.936960   -0.529449
      2          6           0       -1.567517    0.496559   -0.155841
      3          6           0       -0.314845   -0.118654    0.296214
      4          6           0       -0.209830    0.018903    1.835198
      5          6           0       -0.528528   -1.616065   -0.024729
      6          8           0        0.078582   -2.247546   -0.845692
      7          6           0        0.912012    0.455027   -0.481970
      8          6           0        0.968234    1.988169   -0.443694
      9          6           0        2.246207   -0.142819   -0.008666
     10          1           0       -3.544871    1.347485   -0.861178
     11          1           0       -1.094630   -0.406890    2.316836
     12          1           0       -0.149931    1.070880    2.122332
     13          1           0        0.673578   -0.499674    2.215774
     14          1           0       -1.343218   -2.076163    0.577896
     15          1           0        0.763570    0.144758   -1.522089
     16          1           0        1.794111    2.345499   -1.066890
     17          1           0        1.143606    2.361267    0.571683
     18          1           0        0.043997    2.437514   -0.814786
     19          1           0        3.049516    0.186276   -0.675355
     20          1           0        2.232282   -1.234169   -0.021073
     21          1           0        2.507044    0.195108    0.999996
 ---------------------------------------------------------------------

 SCF Done:  E(RB3LYP) =  -387.250429863     A.U. after    1 cycles

 The electronic state is 1-A.
 Alpha  occ. eigenvalues --  -19.14845 -10.27753 -10.22880 -10.19544 -10.19407
 Alpha  occ. eigenvalues --  -10.19184 -10.18408 -10.17291 -10.17191  -1.05659
 Alpha  occ. eigenvalues --   -0.84571  -0.76874  -0.73501  -0.68275  -0.67225
 Alpha  occ. eigenvalues --   -0.60640  -0.56504  -0.52275  -0.49244  -0.48186
 Alpha  occ. eigenvalues --   -0.45653  -0.43632  -0.42278  -0.40717  -0.39894
 Alpha  occ. eigenvalues --   -0.38246  -0.37626  -0.37476  -0.34499  -0.33586
 Alpha  occ. eigenvalues --   -0.32784  -0.28904  -0.27508  -0.24967
 Alpha virt. eigenvalues --   -0.03160   0.04418   0.06315   0.08334   0.11570
 Alpha virt. eigenvalues --    0.11979   0.13053   0.13580   0.15217   0.15760
 Alpha virt. eigenvalues --    0.16997   0.17845   0.18983   0.19246   0.19492

 Mulliken charges:
               1
     1  C   -0.466870
     2  C    0.319196
     3  C   -0.024145
     4  C   -0.436635
     5  C    0.153402
     6  O   -0.250261
     7  C    0.031008
     8  C   -0.413134
     9  C   -0.418835
    10  H    0.202024
    11  H    0.129926
    12  H    0.138202
    13  H    0.130948
    14  H    0.091406
    15  H    0.099413
    16  H    0.114409
    17  H    0.111890
    18  H    0.127854
    19  H    0.115215
    20  H    0.133890
    21  H    0.111096
 Sum of Mulliken charges =  -0.00000

 Dipole moment (field-independent basis, Debye):
    X=             -0.6007    Y=              1.4612    Z=              1.4890  Tot=              2.1710
 Quadrupole moment (field-independent basis, Debye-Ang):
   XX=            -50.8754   YY=            -59.3801   ZZ=            -54.9770
   XY=              0.1145   XZ=              1.0896   YZ=             -4.0876

  Exact polarizability:  99.226  -6.845  82.402   2.017  -2.553  73.431
 Approx polarizability: 146.207 -19.001 119.635   4.753  -0.043 113.375

                      1                      2                      3
                      A                      A                      A
 Frequencies --     76.5434                91.0857               147.9636
 Red. masses --      2.5461                 4.8932                 3.6583
 Frc consts  --      0.0088                 0.0239                 0.0472
 IR Inten    --      0.0982                 3.8659                 0.5342

                      4                      5                      6
                      A                      A                      A
 Frequencies --    177.7869               203.9172               210.3126
 Red. masses --      2.5536                 1.2075                 2.4993
 Frc consts  --      0.0476                 0.0296                 0.0651
 IR Inten    --      0.9868                 0.9819                 4.3113

                      7                      8                      9
                      A                      A                      A
 Frequencies --    236.6460               251.5700               294.7214
 Red. masses --      1.1940                 1.2283                 2.0401
 Frc consts  --      0.0394                 0.0458                 0.1044
 IR Inten    --      0.3209                 0.6660                 0.1956

                     10                     11                     12
                      A                      A                      A
 Frequencies --    310.8105               372.7022               377.1299
 Red. masses --      2.4126                 2.3840                 2.9748
 Frc consts  --      0.1373                 0.1951                 0.2493
 IR Inten    --      2.6001                 0.1467                 2.3699

                     13                     14                     15
                      A                      A                      A
 Frequencies --    467.4516               493.7776               534.5865
 Red. masses --      2.8309                 6.0345                 4.4659
 Frc consts  --      0.3645                 0.8669                 0.7520
 IR Inten    --      0.7962                 3.4782                 5.9856

                     16                     17                     18
                      A                      A                      A
 Frequencies --    622.9814               630.6171               649.6946
 Red. masses --      2.7435                 1.4069                 1.2595
 Frc consts  --      0.6273                 0.3297                 0.3132
 IR Inten    --      2.1235                45.5280                39.7506

                     19                     20                     21
                      A                      A                      A
 Frequencies --    684.1274               893.7987               900.4355
 Red. masses --      3.3364                 2.2010                 2.1325
 Frc consts  --      0.9200                 1.0360                 1.0187
 IR Inten    --     19.4073                 1.1307                24.7240

                     22                     23                     24
                      A                      A                      A
 Frequencies --    926.1250               935.5206               970.2959
 Red. masses --      1.7894                 1.2614                 1.4541
 Frc consts  --      0.9043                 0.6504                 0.8066
 IR Inten    --      1.0302                 1.2389                 0.1003

                     25                     26                     27
                      A                      A                      A
 Frequencies --    980.4717              1045.0885              1116.9089
 Red. masses --      1.8603                 1.8754                 2.2029
 Frc consts  --      1.0536                 1.2068                 1.6192
 IR Inten    --      1.4464                 3.6872                 1.7720

                     28                     29                     30
                      A                      A                      A
 Frequencies --   1170.3510              1181.4205              1197.0593
 Red. masses --      2.1679                 2.4593                 2.6840
 Frc consts  --      1.7495                 2.0224                 2.2660
 IR Inten    --      9.8289                 3.8406                 7.1440

                     31                     32                     33
                      A                      A                      A
 Frequencies --   1219.2317              1342.7517              1367.3459
 Red. masses --      2.3673                 1.4007                 1.3218
 Frc consts  --      2.0734                 1.4879                 1.4560
 IR Inten    --      5.3408                 0.4001                 1.6969

                     34                     35                     36
                      A                      A                      A
 Frequencies --   1399.3086              1399.8527              1416.8400
 Red. masses --      1.2103                 1.2252                 1.2073
 Frc consts  --      1.3962                 1.4145                 1.4279
 IR Inten    --      7.4740                 5.9962                 0.6317

                     37                     38                     39
                      A                      A                      A
 Frequencies --   1427.5288              1483.3093              1492.7705
 Red. masses --      1.1953                 1.0487                 1.0428
 Frc consts  --      1.4351                 1.3594                 1.3691
 IR Inten    --      8.4930                 5.8650                 3.0313

                     40                     41                     42
                      A                      A                      A
 Frequencies --   1494.3212              1503.5460              1510.2585
 Red. masses --      1.0479                 1.0514                 1.0530
 Frc consts  --      1.3787                 1.4004                 1.4150
 IR Inten    --      2.8189                 0.9719                 2.6532

                     43                     44                     45
                      A                      A                      A
 Frequencies --   1514.8875              1833.4120              2219.8035
 Red. masses --      1.0469                10.8587                 5.9466
 Frc consts  --      1.4155                21.5054                17.2642
 IR Inten    --      9.1673               169.1561                 0.2994

                     46                     47                     48
                      A                      A                      A
 Frequencies --   2883.7504              3033.8307              3039.1564
 Red. masses --      1.0841                 1.0381                 1.0429
 Frc consts  --      5.3117                 5.6297                 5.6755
 IR Inten    --    102.0544                15.9556                15.5340

                     49                     50                     51
                      A                      A                      A
 Frequencies --   3048.8307              3050.3735              3093.9780
 Red. masses --      1.0768                 1.0346                 1.1004
 Frc consts  --      5.8970                 5.6721                 6.2062
 IR Inten    --     11.7169                17.5980                 1.9140

                     52                     53                     54
                      A                      A                      A
 Frequencies --   3101.9642              3120.6774              3122.2886
 Red. masses --      1.0995                 1.1012                 1.1004
 Frc consts  --      6.2331                 6.3183                 6.3203
 IR Inten    --     62.8682                 3.2193                31.6643

                     55                     56                     57
                      A                      A                      A
 Frequencies --   3134.5261              3135.0640              3499.4132
 Red. masses --      1.1012                 1.1006                 1.1608
 Frc consts  --      6.3745                 6.3737                 8.3750
 IR Inten    --     20.7900                 4.9194                72.1433

 - Thermochemistry -
 -------------------
 Temperature   298.150 Kelvin.  Pressure   1.00000 Atm.
 Atom     1 has atomic number  6 and mass  12.00000

 Molecular mass:   124.08882 amu.
 Principal axes and moments of inertia in atomic units:
                           1         2         3
     Eigenvalues --  1019.238361158.437241582.72563
           X            0.99567   0.09273  -0.00704
           Y           -0.09295   0.99471  -0.04365
           Z            0.00295   0.04412   0.99902
 This molecule is an asymmetric top.
 Rotational symmetry number  1.
 Warning -- assumption of classical behavior for rotation
           may cause significant error
 Rotational temperatures (Kelvin)      0.08498     0.07477     0.05472
 Rotational constants (GHZ):           1.77068     1.55791     1.14027
 Zero-point vibrational energy     466788.4 (Joules/Mol)
                                  111.56510 (Kcal/Mol)
 Warning -- explicit consideration of  15 degrees of freedom as
           vibrations may cause significant error
 Vibrational temperatures:    110.13   131.05   212.89   255.80   293.39
          (Kelvin)            302.59   340.48   361.95   424.04   447.19
                              536.24   542.61   672.56   710.44   769.15
                              896.33   907.32   934.77   984.31  1285.98
                             1295.53  1332.49  1346.01  1396.04  1410.68
                             1503.65  1606.98  1683.87  1699.80  1722.30
                             1754.20  1931.92  1967.31  2013.29  2014.08
                             2038.52  2053.90  2134.15  2147.76  2149.99
                             2163.27  2172.93  2179.59  2637.87  3193.80
                             4149.07  4365.01  4372.67  4386.59  4388.81
                             4451.54  4463.03  4489.96  4492.28  4509.88
                             4510.66  5034.88

 Zero-point correction=                           0.177790 (Hartree/Particle)
 Thermal correction to Energy=                    0.188701
 Thermal correction to Enthalpy=                  0.189645
 Thermal correction to Gibbs Free Energy=         0.142424
 Sum of electronic and zero-point Energies=           -387.072640
 Sum of electronic and thermal Energies=              -387.061729
 Sum of electronic and thermal Enthalpies=            -387.060785
 Sum of electronic and thermal Free Energies=         -387.108006

                     E (Thermal)             CV                S
                      KCal/Mol        Cal/Mol-Kelvin    Cal/Mol-Kelvin
 Total                  118.412             40.052             99.385
 Electronic               0.000              0.000              0.000
 Translational            0.889              2.981             40.361
 Rotational               0.889              2.981             29.015
 Vibrational            116.634             34.091             30.008
 Vibration     1          0.599              1.965              3.978
 Vibration     2          0.602              1.956              3.637
 Vibration     3          0.617              1.905              2.698
 Vibration     4          0.628              1.870              2.352
 Vibration     5          0.640              1.834              2.097
 Vibration     6          0.642              1.825              2.041
 Vibration     7          0.656              1.785              1.828
 Vibration     8          0.664              1.760              1.720
 Vibration     9          0.689              1.684              1.447
 Vibration    10          0.700              1.653              1.358
 Vibration    11          0.744              1.528              1.069
 Vibration    12          0.748              1.519              1.051
 Vibration    13          0.825              1.322              0.745
 Vibration    14          0.849              1.264              0.674
 Vibration    15          0.890              1.174              0.577

 Optimization completed.
    -- Stationary point found.
 Normal termination of Gaussian 16 at Sun Feb 28 03:07:53 2021.
