 Gaussian 16, Revision A.03,
 Gaussian 16:  ES64L-G16RevA.03 25-Dec-2016

 -----------------------------
 # opt freq b3lyp/6-31g(2df,p)
 -----------------------------

 -----
 Title
 -----
 Symbolic Z-matrix:
 Charge =  0 Multiplicity = 1

 SCF Done:  E(RB3LYP) =  -388.442187628     A.U. after   13 cycles
 SCF Done:  E(RB3LYP) =  -388.446427275     A.U. after   11 cycles
 SCF Done:  E(RB3LYP) =  -388.444419367     A.U. after   12 cycles
 SCF Done:  E(RB3LYP) =  -388.446669137     A.U. after   10 cycles
 SCF Done:  E(RB3LYP) =  -388.446349818     A.U. after   11 cycles
 SCF Done:  E(RB3LYP) =  -388.446520133     A.U. after   10 cycles
 SCF Done:  E(RB3LYP) =  -388.446865768     A.U. after    8 cycles
 SCF Done:  E(RB3LYP) =  -388.446930447     A.U. after    9 cycles
 SCF Done:  E(RB3LYP) =  -388.446966161     A.U. after   10 cycles
 SCF Done:  E(RB3LYP) =  -388.447010256     A.U. after    9 cycles
 SCF Done:  E(RB3LYP) =  -388.453024639     A.U. after   14 cycles
 SCF Done:  E(RB3LYP) =  -388.453946769     A.U. after   12 cycles
 SCF Done:  E(RB3LYP) =  -388.454804729     A.U. after   11 cycles
 SCF Done:  E(RB3LYP) =  -388.455481532     A.U. after   10 cycles
 SCF Done:  E(RB3LYP) =  -388.455514659     A.U. after    9 cycles
 SCF Done:  E(RB3LYP) =  -388.455518140     A.U. after    8 cycles
 SCF Done:  E(RB3LYP) =  -388.455519287     A.U. after    7 cycles
 SCF Done:  E(RB3LYP) =  -388.455519877     A.U. after    7 cycles
 SCF Done:  E(RB3LYP) =  -388.455520010     A.U. after    6 cycles
 Optimization completed.
    -- Stationary point found.
 Normal termination of Gaussian 16 at Thu Feb 18 14:30:58 2021.

 ----------------------------------------------------------------------
 #N Geom=AllCheck Guess=TCheck SCRF=Check GenChk RB3LYP/6-31G(2df,p) Fr
 eq
 ----------------------------------------------------------------------

 Structure from the checkpoint file:  "CtCCpCppCCCpOC.chk"
 -----
 Title
 -----
 Charge =  0 Multiplicity = 1

                         Standard orientation:
 ---------------------------------------------------------------------
 Center     Atomic      Atomic             Coordinates (Angstroms)
 Number     Number       Type             X           Y           Z
 ---------------------------------------------------------------------
      1          6           0       -2.275137   -1.970370   -0.407187
      2          6           0       -1.465195   -1.125463   -0.131172
      3          6           0       -0.461832   -0.099060    0.210834
      4          6           0       -0.580932    0.253321    1.707601
      5          6           0        0.940911   -0.645156   -0.148268
      6          6           0        2.102143    0.316244    0.129782
      7          6           0        3.436199   -0.231567   -0.386623
      8          8           0       -0.623764    1.057198   -0.617580
      9          6           0       -1.868630    1.722644   -0.551824
     10          1           0       -2.988861   -2.717028   -0.654853
     11          1           0       -0.293087   -0.605999    2.319287
     12          1           0       -1.606316    0.520016    1.972502
     13          1           0        0.073796    1.094648    1.947262
     14          1           0        1.088685   -1.587139    0.392323
     15          1           0        0.921838   -0.892581   -1.215299
     16          1           0        2.185166    0.505997    1.206509
     17          1           0        1.885062    1.279206   -0.342638
     18          1           0        3.683768   -1.189796    0.084236
     19          1           0        4.256607    0.462437   -0.178892
     20          1           0        3.404225   -0.395426   -1.469414
     21          1           0       -1.848535    2.488809   -1.330746
     22          1           0       -2.030939    2.215808    0.416560
     23          1           0       -2.706463    1.039902   -0.745056
 ---------------------------------------------------------------------

 SCF Done:  E(RB3LYP) =  -388.455520010     A.U. after    1 cycles

 The electronic state is 1-A.
 Alpha  occ. eigenvalues --  -19.13896 -10.25878 -10.21843 -10.17870 -10.17864
 Alpha  occ. eigenvalues --  -10.17863 -10.17464 -10.17442 -10.16980  -1.03045
 Alpha  occ. eigenvalues --   -0.81177  -0.76327  -0.72680  -0.69450  -0.66747
 Alpha  occ. eigenvalues --   -0.61900  -0.56973  -0.52652  -0.49504  -0.47461
 Alpha  occ. eigenvalues --   -0.46409  -0.44578  -0.41993  -0.41220  -0.39594
 Alpha  occ. eigenvalues --   -0.38789  -0.37303  -0.36536  -0.33966  -0.33010
 Alpha  occ. eigenvalues --   -0.32429  -0.31224  -0.27351  -0.26467  -0.25706
 Alpha virt. eigenvalues --    0.04207   0.05654   0.08972   0.11078   0.12357
 Alpha virt. eigenvalues --    0.12700   0.13714   0.15036   0.15280   0.16218
 Alpha virt. eigenvalues --    0.17053   0.17247   0.18332   0.19334   0.19751

 Mulliken charges:
               1
     1  C   -0.486376
     2  C    0.347794
     3  C    0.143179
     4  C   -0.428949
     5  C   -0.179370
     6  C   -0.184698
     7  C   -0.385522
     8  O   -0.261596
     9  C   -0.245893
    10  H    0.195323
    11  H    0.125400
    12  H    0.124571
    13  H    0.126873
    14  H    0.099842
    15  H    0.110155
    16  H    0.093462
    17  H    0.117012
    18  H    0.111600
    19  H    0.110599
    20  H    0.116207
    21  H    0.126089
    22  H    0.105504
    23  H    0.118792
 Sum of Mulliken charges =  -0.00000

 Dipole moment (field-independent basis, Debye):
    X=             -0.5005    Y=             -0.0539    Z=              0.7379  Tot=              0.8933
 Quadrupole moment (field-independent basis, Debye-Ang):
   XX=            -53.1473   YY=            -53.9577   ZZ=            -56.5271
   XY=              0.4201   XZ=              1.0336   YZ=              0.7420

  Exact polarizability: 101.926   8.104  89.856   3.668   2.652  74.277
 Approx polarizability: 131.463  19.264 132.963   7.026   4.533 108.987

                      1                      2                      3
                      A                      A                      A
 Frequencies --     76.1750                93.4839               102.7726
 Red. masses --      1.9097                 2.2402                 2.1037
 Frc consts  --      0.0065                 0.0115                 0.0131
 IR Inten    --      0.0214                 1.5797                 1.7008

                      4                      5                      6
                      A                      A                      A
 Frequencies --    120.1229               162.6426               194.9851
 Red. masses --      3.2134                 2.4197                 1.3559
 Frc consts  --      0.0273                 0.0377                 0.0304
 IR Inten    --      0.1120                 0.0774                 1.4853

                      7                      8                      9
                      A                      A                      A
 Frequencies --    230.6883               246.6217               263.0974
 Red. masses --      2.4223                 1.1432                 1.2281
 Frc consts  --      0.0760                 0.0410                 0.0501
 IR Inten    --      1.1011                 0.2033                 1.5450

                     10                     11                     12
                      A                      A                      A
 Frequencies --    297.7537               325.4935               362.8590
 Red. masses --      2.6868                 2.8233                 2.5013
 Frc consts  --      0.1403                 0.1762                 0.1940
 IR Inten    --      1.9974                 1.7221                 1.1831

                     13                     14                     15
                      A                      A                      A
 Frequencies --    413.1368               460.4082               565.1847
 Red. masses --      3.4932                 4.9124                 4.8631
 Frc consts  --      0.3513                 0.6135                 0.9153
 IR Inten    --      2.0110                 2.3100                 5.8788

                     16                     17                     18
                      A                      A                      A
 Frequencies --    608.3457               623.5341               665.2739
 Red. masses --      3.9537                 1.2330                 1.2579
 Frc consts  --      0.8621                 0.2825                 0.3280
 IR Inten    --      2.4051                44.9980                34.3651

                     19                     20                     21
                      A                      A                      A
 Frequencies --    720.0965               745.9315               850.4668
 Red. masses --      3.8577                 1.1307                 1.5080
 Frc consts  --      1.1786                 0.3707                 0.6426
 IR Inten    --      3.2010                 1.9009                 9.4537

                     22                     23                     24
                      A                      A                      A
 Frequencies --    897.7665               909.2971               949.1170
 Red. masses --      1.9929                 1.7512                 1.8769
 Frc consts  --      0.9464                 0.8531                 0.9961
 IR Inten    --      4.4212                11.1715                 2.8475

                     25                     26                     27
                      A                      A                      A
 Frequencies --   1012.6323              1047.8119              1096.8541
 Red. masses --      1.7536                 2.5958                 2.1406
 Frc consts  --      1.0594                 1.6791                 1.5174
 IR Inten    --      6.2403                 0.5266                 6.4412

                     28                     29                     30
                      A                      A                      A
 Frequencies --   1118.1931              1177.4718              1182.3992
 Red. masses --      4.9065                 1.8633                 1.3353
 Frc consts  --      3.6146                 1.5221                 1.0999
 IR Inten    --    107.5235                13.2653                 1.9429

                     31                     32                     33
                      A                      A                      A
 Frequencies --   1188.2879              1193.9359              1236.3945
 Red. masses --      2.9931                 2.3181                 1.7141
 Frc consts  --      2.4901                 1.9469                 1.5438
 IR Inten    --     46.2193                63.5390                 9.8990

                     34                     35                     36
                      A                      A                      A
 Frequencies --   1280.7632              1322.0820              1335.3026
 Red. masses --      1.3542                 1.4227                 1.1122
 Frc consts  --      1.3088                 1.4651                 1.1684
 IR Inten    --      5.9474                 2.5540                 3.5471

                     37                     38                     39
                      A                      A                      A
 Frequencies --   1391.6709              1399.7769              1413.0647
 Red. masses --      1.4232                 1.3141                 1.2297
 Frc consts  --      1.6241                 1.5170                 1.4467
 IR Inten    --      3.6262                 6.6049                 1.6316

                     40                     41                     42
                      A                      A                      A
 Frequencies --   1470.6966              1473.8989              1484.8680
 Red. masses --      1.0923                 1.1124                 1.0555
 Frc consts  --      1.3920                 1.4238                 1.3712
 IR Inten    --      0.8089                 0.4802                 2.3685

                     43                     44                     45
                      A                      A                      A
 Frequencies --   1488.1289              1495.0379              1499.9549
 Red. masses --      1.0510                 1.0496                 1.0405
 Frc consts  --      1.3713                 1.3822                 1.3793
 IR Inten    --      1.9538                 1.3188                 6.4931

                     46                     47                     48
                      A                      A                      A
 Frequencies --   1505.9997              1511.2994              1512.3811
 Red. masses --      1.0632                 1.0811                 1.0529
 Frc consts  --      1.4207                 1.4548                 1.4189
 IR Inten    --      3.9703                 1.2381                 7.4366

                     49                     50                     51
                      A                      A                      A
 Frequencies --   2225.0523              2997.7057              3027.4949
 Red. masses --      5.9039                 1.0354                 1.0361
 Frc consts  --     17.2213                 5.4820                 5.5951
 IR Inten    --      0.8781                55.1119                27.1774

                     52                     53                     54
                      A                      A                      A
 Frequencies --   3032.7884              3040.2493              3050.6665
 Red. masses --      1.0609                 1.0625                 1.0500
 Frc consts  --      5.7490                 5.7865                 5.7574
 IR Inten    --      2.6847                34.6117                 2.5694

                     55                     56                     57
                      A                      A                      A
 Frequencies --   3055.5651              3071.0137              3083.6776
 Red. masses --      1.0856                 1.0951                 1.1025
 Frc consts  --      5.9718                 6.0852                 6.1770
 IR Inten    --     48.2686                 6.5365                 0.7644

                     58                     59                     60
                      A                      A                      A
 Frequencies --   3101.2433              3103.9351              3113.8212
 Red. masses --      1.1005                 1.1029                 1.0988
 Frc consts  --      6.2360                 6.2607                 6.2772
 IR Inten    --     36.7297                60.7813                28.2743

                     61                     62                     63
                      A                      A                      A
 Frequencies --   3126.1237              3133.4900              3499.8822
 Red. masses --      1.1015                 1.1025                 1.1618
 Frc consts  --      6.3423                 6.3782                 8.3851
 IR Inten    --     17.4799                19.7377                63.6647

 - Thermochemistry -
 -------------------
 Temperature   298.150 Kelvin.  Pressure   1.00000 Atm.
 Atom     1 has atomic number  6 and mass  12.00000

 Molecular mass:   126.10447 amu.
 Principal axes and moments of inertia in atomic units:
                           1         2         3
     Eigenvalues --   795.069611784.845462071.32664
           X            0.99966  -0.02515  -0.00635
           Y            0.02526   0.99951   0.01831
           Z            0.00589  -0.01846   0.99981
 This molecule is an asymmetric top.
 Rotational symmetry number  1.
 Warning -- assumption of classical behavior for rotation
           may cause significant error
 Rotational temperatures (Kelvin)      0.10894     0.04853     0.04182
 Rotational constants (GHZ):           2.26992     1.01115     0.87130
 Zero-point vibrational energy     528670.9 (Joules/Mol)
                                  126.35537 (Kcal/Mol)
 Warning -- explicit consideration of  16 degrees of freedom as
           vibrations may cause significant error
 Vibrational temperatures:    109.60   134.50   147.87   172.83   234.01
          (Kelvin)            280.54   331.91   354.83   378.54   428.40
                              468.31   522.07   594.41   662.42   813.17
                              875.27   897.13   957.18  1036.06  1073.23
                             1223.63  1291.69  1308.28  1365.57  1456.95
                             1507.57  1578.13  1608.83  1694.12  1701.21
                             1709.68  1717.81  1778.90  1842.73  1902.18
                             1921.20  2002.30  2013.97  2033.08  2116.00
                             2120.61  2136.39  2141.09  2151.03  2158.10
                             2166.80  2174.42  2175.98  3201.35  4313.03
                             4355.89  4363.51  4374.24  4389.23  4396.28
                             4418.50  4436.72  4462.00  4465.87  4480.09
                             4497.79  4508.39  5035.55

 Zero-point correction=                           0.201360 (Hartree/Particle)
 Thermal correction to Energy=                    0.212850
 Thermal correction to Enthalpy=                  0.213794
 Thermal correction to Gibbs Free Energy=         0.164871
 Sum of electronic and zero-point Energies=           -388.254160
 Sum of electronic and thermal Energies=              -388.242670
 Sum of electronic and thermal Enthalpies=            -388.241726
 Sum of electronic and thermal Free Energies=         -388.290649

                     E (Thermal)             CV                S
                      KCal/Mol        Cal/Mol-Kelvin    Cal/Mol-Kelvin
 Total                  133.565             41.682            102.966
 Electronic               0.000              0.000              0.000
 Translational            0.889              2.981             40.409
 Rotational               0.889              2.981             29.465
 Vibrational            131.788             35.720             33.092
 Vibration     1          0.599              1.965              3.987
 Vibration     2          0.602              1.954              3.586
 Vibration     3          0.605              1.947              3.401
 Vibration     4          0.609              1.932              3.098
 Vibration     5          0.623              1.888              2.519
 Vibration     6          0.636              1.847              2.180
 Vibration     7          0.652              1.794              1.874
 Vibration     8          0.661              1.768              1.755
 Vibration     9          0.670              1.740              1.641
 Vibration    10          0.691              1.678              1.429
 Vibration    11          0.710              1.624              1.282
 Vibration    12          0.737              1.549              1.110
 Vibration    13          0.777              1.442              0.916
 Vibration    14          0.818              1.338              0.765
 Vibration    15          0.921              1.107              0.514
 Vibration    16          0.967              1.014              0.436

                           ! Non-Optimized Parameters !
 Normal termination of Gaussian 16 at Thu Feb 18 15:05:49 2021.
