 Gaussian 16, Revision A.03,
 Gaussian 16:  ES64L-G16RevA.03 25-Dec-2016

 -----------------------------
 # opt freq b3lyp/6-31g(2df,p)
 -----------------------------

 -------------------
 Title Card Required
 -------------------
 Symbolic Z-matrix:
 Charge =  0 Multiplicity = 1

 SCF Done:  E(RB3LYP) =  -400.859038319     A.U. after   15 cycles
 SCF Done:  E(RB3LYP) =  -400.886986979     A.U. after   13 cycles
 SCF Done:  E(RB3LYP) =  -400.891218111     A.U. after   12 cycles
 SCF Done:  E(RB3LYP) =  -400.880815611     A.U. after   15 cycles
 SCF Done:  E(RB3LYP) =  -400.892551711     A.U. after   12 cycles
 SCF Done:  E(RB3LYP) =  -400.891539457     A.U. after   12 cycles
 SCF Done:  E(RB3LYP) =  -400.892359842     A.U. after   12 cycles
 SCF Done:  E(RB3LYP) =  -400.892802070     A.U. after    9 cycles
 SCF Done:  E(RB3LYP) =  -400.892873826     A.U. after   11 cycles
 SCF Done:  E(RB3LYP) =  -400.892784738     A.U. after   10 cycles
 SCF Done:  E(RB3LYP) =  -400.892954586     A.U. after   11 cycles
 SCF Done:  E(RB3LYP) =  -400.892959531     A.U. after    8 cycles
 SCF Done:  E(RB3LYP) =  -400.892964671     A.U. after    9 cycles
 SCF Done:  E(RB3LYP) =  -400.892966303     A.U. after    8 cycles
 SCF Done:  E(RB3LYP) =  -400.892967140     A.U. after    8 cycles
 SCF Done:  E(RB3LYP) =  -400.892967440     A.U. after    7 cycles
 SCF Done:  E(RB3LYP) =  -400.892967509     A.U. after    7 cycles
 SCF Done:  E(RB3LYP) =  -400.892967562     A.U. after    6 cycles
 SCF Done:  E(RB3LYP) =  -400.892967583     A.U. after    6 cycles
 Optimization completed.
    -- Stationary point found.
 Normal termination of Gaussian 16 at Tue Mar  9 01:34:21 2021.

 ----------------------------------------------------------------------
 #N Geom=AllCheck Guess=TCheck SCRF=Check GenChk RB3LYP/6-31G(2df,p) Fr
 eq
 ----------------------------------------------------------------------

 Structure from the checkpoint file:  "CtCC1dCCpdOpNpCpC1.chk"
 -------------------
 Title Card Required
 -------------------
 Charge =  0 Multiplicity = 1

                         Standard orientation:
 ---------------------------------------------------------------------
 Center     Atomic      Atomic             Coordinates (Angstroms)
 Number     Number       Type             X           Y           Z
 ---------------------------------------------------------------------
      1          6           0        3.699440   -0.146997   -0.000029
      2          6           0        2.502096   -0.012358   -0.000017
      3          6           0        1.096675    0.100656    0.000011
      4          6           0        0.337744    1.209612   -0.000018
      5          6           0       -1.103169    0.837400    0.000012
      6          8           0       -2.074384    1.567330    0.000014
      7          7           0       -1.125997   -0.545325    0.000065
      8          6           0       -2.343338   -1.316972   -0.000077
      9          6           0        0.194226   -1.120352    0.000069
     10          1           0        4.756630   -0.249687   -0.000072
     11          1           0        0.672083    2.236245   -0.000095
     12          1           0       -3.173692   -0.608071    0.000210
     13          1           0       -2.416314   -1.955417    0.889407
     14          1           0       -2.416489   -1.954862   -0.889954
     15          1           0        0.376385   -1.747813   -0.884710
     16          1           0        0.376395   -1.747682    0.884941
 ---------------------------------------------------------------------

 SCF Done:  E(RB3LYP) =  -400.892967583     A.U. after    1 cycles

 The electronic state is 1-A.
 Alpha  occ. eigenvalues --  -19.09908 -14.35757 -10.27405 -10.24174 -10.23431
 Alpha  occ. eigenvalues --  -10.21846 -10.20355 -10.20333 -10.19873  -1.03042
 Alpha  occ. eigenvalues --   -0.95323  -0.83453  -0.76437  -0.72322  -0.70190
 Alpha  occ. eigenvalues --   -0.62156  -0.55706  -0.53884  -0.51237  -0.49352
 Alpha  occ. eigenvalues --   -0.47507  -0.43645  -0.42432  -0.41805  -0.39530
 Alpha  occ. eigenvalues --   -0.38553  -0.38386  -0.33759  -0.29139  -0.25585
 Alpha  occ. eigenvalues --   -0.24942  -0.24040
 Alpha virt. eigenvalues --   -0.05727   0.03243   0.06670   0.08829   0.11178
 Alpha virt. eigenvalues --    0.11424   0.12595   0.13053   0.16025   0.16631
 Alpha virt. eigenvalues --    0.17021   0.18137   0.19049   0.23963   0.26277

 Mulliken charges:
               1
     1  C   -0.401714
     2  C    0.236792
     3  C    0.186630
     4  C   -0.356959
     5  C    0.447455
     6  O   -0.405771
     7  N   -0.108613
     8  C   -0.342190
     9  C   -0.273616
    10  H    0.203261
    11  H    0.132890
    12  H    0.168261
    13  H    0.123459
    14  H    0.123459
    15  H    0.133327
    16  H    0.133328
 Sum of Mulliken charges =  -0.00000

 Dipole moment (field-independent basis, Debye):
    X=              2.4458    Y=             -3.0739    Z=             -0.0001  Tot=              3.9282
 Quadrupole moment (field-independent basis, Debye-Ang):
   XX=            -48.6265   YY=            -51.8881   ZZ=            -51.9414
   XY=              6.7490   XZ=             -0.0001   YZ=             -0.0002

  Exact polarizability: 128.615  -8.392  79.888   0.000  -0.000  44.957
 Approx polarizability: 201.289 -37.088 134.578   0.000  -0.001  69.673

                      1                      2                      3
                      A                      A                      A
 Frequencies --     95.7204               138.0481               144.3585
 Red. masses --      3.7310                 4.0396                 1.4726
 Frc consts  --      0.0201                 0.0454                 0.0181
 IR Inten    --      0.1622                 0.7719                 0.1583

                      4                      5                      6
                      A                      A                      A
 Frequencies --    165.6733               208.7124               295.2293
 Red. masses --      2.1870                 2.5499                 3.2285
 Frc consts  --      0.0354                 0.0654                 0.1658
 IR Inten    --      2.4521                 0.0011                 5.1421

                      7                      8                      9
                      A                      A                      A
 Frequencies --    347.0056               436.8491               487.7023
 Red. masses --      3.5236                 7.0679                 7.1776
 Frc consts  --      0.2500                 0.7947                 1.0059
 IR Inten    --     11.1940                10.2527                 4.4692

                     10                     11                     12
                      A                      A                      A
 Frequencies --    541.0747               569.5123               623.2331
 Red. masses --      3.0404                 4.6852                 1.2266
 Frc consts  --      0.5244                 0.8953                 0.2807
 IR Inten    --      2.4265                 1.2089                36.0666

                     13                     14                     15
                      A                      A                      A
 Frequencies --    646.9352               683.8946               734.2244
 Red. masses --      1.2290                 6.0491                 5.2326
 Frc consts  --      0.3031                 1.6669                 1.6620
 IR Inten    --     37.0771                 5.0618                 1.4122

                     16                     17                     18
                      A                      A                      A
 Frequencies --    793.6141               901.7750               904.2897
 Red. masses --      3.2540                 1.6035                 5.0132
 Frc consts  --      1.2075                 0.7683                 2.4154
 IR Inten    --      0.6381                23.4758                13.4597

                     19                     20                     21
                      A                      A                      A
 Frequencies --   1006.0049              1034.0053              1133.0629
 Red. masses --      1.6913                 1.9601                 4.8892
 Frc consts  --      1.0085                 1.2348                 3.6982
 IR Inten    --      1.9795                19.5382                26.9751

                     22                     23                     24
                      A                      A                      A
 Frequencies --   1147.5533              1157.1618              1196.7489
 Red. masses --      1.1934                 1.8123                 1.1672
 Frc consts  --      0.9259                 1.4298                 0.9849
 IR Inten    --      0.4591                 2.4137                 1.4468

                     25                     26                     27
                      A                      A                      A
 Frequencies --   1242.4391              1309.8051              1317.7898
 Red. masses --      1.5890                 3.7927                 4.5498
 Frc consts  --      1.4452                 3.8337                 4.6552
 IR Inten    --      9.2497                43.2758                47.8409

                     28                     29                     30
                      A                      A                      A
 Frequencies --   1415.7113              1446.5916              1492.5314
 Red. masses --      2.4852                 1.2074                 1.0999
 Frc consts  --      2.9347                 1.4886                 1.4435
 IR Inten    --     89.1446                19.9555                22.0372

                     31                     32                     33
                      A                      A                      A
 Frequencies --   1492.6587              1526.0888              1648.5995
 Red. masses --      1.0431                 1.1552                 7.8425
 Frc consts  --      1.3692                 1.5852                12.5584
 IR Inten    --      7.0796                 7.8486                11.9841

                     34                     35                     36
                      A                      A                      A
 Frequencies --   1801.1522              2225.3192              2996.2065
 Red. masses --     11.3031                 6.1449                 1.0556
 Frc consts  --     21.6048                17.9288                 5.5831
 IR Inten    --    438.5160                 0.5250                23.5303

                     37                     38                     39
                      A                      A                      A
 Frequencies --   3011.4993              3021.1024              3058.3368
 Red. masses --      1.0379                 1.1039                 1.1037
 Frc consts  --      5.5461                 5.9361                 6.0821
 IR Inten    --     73.4748                19.2724                32.5682

                     40                     41                     42
                      A                      A                      A
 Frequencies --   3137.9769              3254.6120              3500.9277
 Red. masses --      1.0968                 1.0972                 1.1586
 Frc consts  --      6.3634                 6.8478                 8.3667
 IR Inten    --      0.9926                 0.6207                91.5615

 - Thermochemistry -
 -------------------
 Temperature   298.150 Kelvin.  Pressure   1.00000 Atm.
 Atom     1 has atomic number  6 and mass  12.00000

 Molecular mass:   121.05276 amu.
 Principal axes and moments of inertia in atomic units:
                           1         2         3
     Eigenvalues --   455.634181684.159412117.12777
           X            0.99955   0.03015   0.00000
           Y           -0.03015   0.99955  -0.00000
           Z           -0.00000   0.00000   1.00000
 This molecule is an asymmetric top.
 Rotational symmetry number  1.
 Warning -- assumption of classical behavior for rotation
           may cause significant error
 Rotational temperatures (Kelvin)      0.19010     0.05143     0.04091
 Rotational constants (GHZ):           3.96094     1.07160     0.85245
 Zero-point vibrational energy     324736.7 (Joules/Mol)
                                   77.61394 (Kcal/Mol)
 Warning -- explicit consideration of  11 degrees of freedom as
           vibrations may cause significant error
 Vibrational temperatures:    137.72   198.62   207.70   238.37   300.29
          (Kelvin)            424.77   499.26   628.53   701.69   778.49
                              819.40   896.69   930.80   983.97  1056.39
                             1141.83  1297.45  1301.07  1447.42  1487.70
                             1630.22  1651.07  1664.90  1721.85  1787.59
                             1884.52  1896.01  2036.89  2081.32  2147.42
                             2147.60  2195.70  2371.97  2591.46  3201.74
                             4310.87  4332.88  4346.69  4400.26  4514.85
                             4682.66  5037.05

 Zero-point correction=                           0.123686 (Hartree/Particle)
 Thermal correction to Energy=                    0.132319
 Thermal correction to Enthalpy=                  0.133263
 Thermal correction to Gibbs Free Energy=         0.090293
 Sum of electronic and zero-point Energies=           -400.769282
 Sum of electronic and thermal Energies=              -400.760649
 Sum of electronic and thermal Enthalpies=            -400.759704
 Sum of electronic and thermal Free Energies=         -400.802674

                     E (Thermal)             CV                S
                      KCal/Mol        Cal/Mol-Kelvin    Cal/Mol-Kelvin
 Total                   83.031             31.431             90.437
 Electronic               0.000              0.000              0.000
 Translational            0.889              2.981             40.288
 Rotational               0.889              2.981             28.876
 Vibrational             81.254             25.470             21.274
 Vibration     1          0.603              1.952              3.540
 Vibration     2          0.614              1.915              2.831
 Vibration     3          0.616              1.909              2.745
 Vibration     4          0.624              1.885              2.484
 Vibration     5          0.642              1.827              2.055
 Vibration     6          0.689              1.683              1.444
 Vibration     7          0.725              1.581              1.180
 Vibration     8          0.797              1.390              0.837
 Vibration     9          0.844              1.277              0.690
 Vibration    10          0.896              1.159              0.563
 Vibration    11          0.926              1.097              0.505

 Optimization completed.
    -- Stationary point found.
 Normal termination of Gaussian 16 at Tue Mar  9 01:54:48 2021.
