 Gaussian 16, Revision A.03,
 Gaussian 16:  ES64L-G16RevA.03 25-Dec-2016

 -----------------------------
 # opt freq b3lyp/6-31g(2df,p)
 -----------------------------

 -------------------
 Title Card Required
 -------------------
 Symbolic Z-matrix:
 Charge =  0 Multiplicity = 1

 SCF Done:  E(RB3LYP) =  -363.350834212     A.U. after   14 cycles
 SCF Done:  E(RB3LYP) =  -363.409250224     A.U. after   13 cycles
 SCF Done:  E(RB3LYP) =  -363.466570355     A.U. after   13 cycles
 SCF Done:  E(RB3LYP) =  -363.485389916     A.U. after   12 cycles
 SCF Done:  E(RB3LYP) =  -363.485848936     A.U. after    8 cycles
 SCF Done:  E(RB3LYP) =  -363.511873168     A.U. after   13 cycles
 SCF Done:  E(RB3LYP) =  -363.535689025     A.U. after   12 cycles
 SCF Done:  E(RB3LYP) =  -363.550439314     A.U. after   13 cycles
 SCF Done:  E(RB3LYP) =  -363.581759388     A.U. after   13 cycles
 SCF Done:  E(RB3LYP) =  -363.597808749     A.U. after   12 cycles
 SCF Done:  E(RB3LYP) =  -363.601635230     A.U. after   11 cycles
 SCF Done:  E(RB3LYP) =  -363.602127813     A.U. after   10 cycles
 SCF Done:  E(RB3LYP) =  -363.603211707     A.U. after   11 cycles
 SCF Done:  E(RB3LYP) =  -363.603950053     A.U. after   10 cycles
 SCF Done:  E(RB3LYP) =  -363.604467508     A.U. after   10 cycles
 SCF Done:  E(RB3LYP) =  -363.604850721     A.U. after   10 cycles
 SCF Done:  E(RB3LYP) =  -363.605090518     A.U. after   11 cycles
 SCF Done:  E(RB3LYP) =  -363.605168475     A.U. after   10 cycles
 SCF Done:  E(RB3LYP) =  -363.605178795     A.U. after    8 cycles
 Optimization completed.
    -- Stationary point found.
 Normal termination of Gaussian 16 at Tue Mar  9 03:33:47 2021.

 ----------------------------------------------------------------------
 #N Geom=AllCheck Guess=TCheck SCRF=Check GenChk RB3LYP/6-31G(2df,p) Fr
 eq
 ----------------------------------------------------------------------

 Structure from the checkpoint file:  "CtCC12C3C4CN1C4C32.chk"
 -------------------
 Title Card Required
 -------------------
 Charge =  0 Multiplicity = 1

                         Standard orientation:
 ---------------------------------------------------------------------
 Center     Atomic      Atomic             Coordinates (Angstroms)
 Number     Number       Type             X           Y           Z
 ---------------------------------------------------------------------
      1          6           0       -3.138208    0.326578   -0.056739
      2          6           0       -1.956209    0.114220    0.023646
      3          6           0       -0.563536   -0.130632    0.119851
      4          6           0        0.304061   -0.745046   -1.006040
      5          6           0        1.627092   -0.010155   -0.685272
      6          6           0        1.214009    1.403582   -0.238080
      7          7           0        0.405051    0.750923    0.859823
      8          6           0        1.352038   -0.465045    0.788514
      9          6           0        0.212072   -1.409177    0.350725
     10          1           0       -4.181215    0.513414   -0.121675
     11          1           0       -0.113140   -1.051518   -1.954761
     12          1           0        2.518819   -0.250165   -1.263578
     13          1           0        0.642901    2.038991   -0.920869
     14          1           0        2.034179    1.970977    0.211752
     15          1           0        2.085197   -0.600884    1.579960
     16          1           0       -0.130024   -2.383226    0.670781
 ---------------------------------------------------------------------

 SCF Done:  E(RB3LYP) =  -363.605178795     A.U. after    1 cycles

 The electronic state is 1-A.
 Alpha  occ. eigenvalues --  -14.32697 -10.23833 -10.22482 -10.20701 -10.20589
 Alpha  occ. eigenvalues --  -10.20448 -10.20200 -10.18197 -10.17430  -1.00510
 Alpha  occ. eigenvalues --   -0.82156  -0.76532  -0.72630  -0.68425  -0.60885
 Alpha  occ. eigenvalues --   -0.59543  -0.54212  -0.51856  -0.50867  -0.48190
 Alpha  occ. eigenvalues --   -0.46116  -0.43354  -0.41135  -0.35882  -0.34247
 Alpha  occ. eigenvalues --   -0.32953  -0.31054  -0.29154  -0.26873  -0.23987
 Alpha  occ. eigenvalues --   -0.22575
 Alpha virt. eigenvalues --    0.02363   0.04245   0.09089   0.10285   0.11238
 Alpha virt. eigenvalues --    0.12178   0.12921   0.14092   0.14711   0.16290
 Alpha virt. eigenvalues --    0.16893   0.17419   0.18446   0.21794   0.23302

 Mulliken charges:
               1
     1  C   -0.349877
     2  C    0.055644
     3  C    0.328196
     4  C   -0.130628
     5  C   -0.082975
     6  C   -0.192180
     7  N   -0.200954
     8  C   -0.018910
     9  C   -0.184875
    10  H    0.180078
    11  H    0.105699
    12  H    0.075778
    13  H    0.111506
    14  H    0.109452
    15  H    0.085816
    16  H    0.108230
 Sum of Mulliken charges =  -0.00000

 Dipole moment (field-independent basis, Debye):
    X=              1.0815    Y=             -1.0113    Z=             -1.2713  Tot=              1.9515
 Quadrupole moment (field-independent basis, Debye-Ang):
   XX=            -44.8726   YY=            -50.7562   ZZ=            -52.7785
   XY=             -0.0394   XZ=              1.1504   YZ=             -2.2511

  Exact polarizability: 107.776  -3.264  69.046   1.695  -1.697  61.180
 Approx polarizability: 164.241 -11.910 106.811   2.894  -1.680  99.717

                      1                      2                      3
                      A                      A                      A
 Frequencies --    136.7717               161.0031               396.6686
 Red. masses --      3.7092                 3.8539                 2.5324
 Frc consts  --      0.0409                 0.0589                 0.2348
 IR Inten    --      1.1667                 1.7195                 1.4214

                      4                      5                      6
                      A                      A                      A
 Frequencies --    448.8891               499.1464               534.5423
 Red. masses --      3.8189                 4.2523                 5.4159
 Frc consts  --      0.4534                 0.6242                 0.9118
 IR Inten    --      1.6514                 2.4853                 1.5038

                      7                      8                      9
                      A                      A                      A
 Frequencies --    562.0244               614.2152               679.1050
 Red. masses --      1.2508                 3.0261                 1.2755
 Frc consts  --      0.2328                 0.6726                 0.3466
 IR Inten    --     42.1305                 2.2822                31.1850

                     10                     11                     12
                      A                      A                      A
 Frequencies --    741.0591               756.0265               792.1833
 Red. masses --      5.3872                 5.1496                 3.8910
 Frc consts  --      1.7431                 1.7342                 1.4387
 IR Inten    --      9.3337                 4.4550                 6.1489

                     13                     14                     15
                      A                      A                      A
 Frequencies --    815.3997               856.1826               862.8395
 Red. masses --      1.7070                 2.7758                 1.8155
 Frc consts  --      0.6687                 1.1989                 0.7964
 IR Inten    --      1.4251                13.5175                 6.5897

                     16                     17                     18
                      A                      A                      A
 Frequencies --    878.3800               908.2628               930.7956
 Red. masses --      1.4743                 3.9079                 1.8148
 Frc consts  --      0.6702                 1.8994                 0.9264
 IR Inten    --     14.6497                 4.5003                10.0646

                     19                     20                     21
                      A                      A                      A
 Frequencies --    944.1042               982.7278              1002.9908
 Red. masses --      2.1220                 4.2011                 2.5097
 Frc consts  --      1.1144                 2.3904                 1.4875
 IR Inten    --      6.1718                10.3810                 5.7894

                     22                     23                     24
                      A                      A                      A
 Frequencies --   1009.8288              1051.5756              1100.9396
 Red. masses --      2.5364                 1.5871                 1.8143
 Frc consts  --      1.5239                 1.0340                 1.2957
 IR Inten    --      1.6142                 0.9230                 2.6661

                     25                     26                     27
                      A                      A                      A
 Frequencies --   1138.7521              1153.8725              1180.1499
 Red. masses --      2.5688                 1.4665                 1.4201
 Frc consts  --      1.9626                 1.1504                 1.1653
 IR Inten    --      7.4483                 0.6406                 0.0770

                     28                     29                     30
                      A                      A                      A
 Frequencies --   1194.4342              1221.1011              1253.3166
 Red. masses --      1.5285                 2.0170                 1.8931
 Frc consts  --      1.2848                 1.7720                 1.7521
 IR Inten    --      1.8347                 2.8607                 2.6663

                     31                     32                     33
                      A                      A                      A
 Frequencies --   1267.1860              1284.9880              1381.0511
 Red. masses --      2.1861                 1.5895                 5.5589
 Frc consts  --      2.0683                 1.5464                 6.2469
 IR Inten    --      4.5776                 2.2436                 4.1540

                     34                     35                     36
                      A                      A                      A
 Frequencies --   1495.7514              2233.9254              3051.4336
 Red. masses --      1.1099                 6.1111                 1.0557
 Frc consts  --      1.4631                17.9684                 5.7917
 IR Inten    --      0.2794                 7.1501                42.2378

                     37                     38                     39
                      A                      A                      A
 Frequencies --   3111.7999              3118.7859              3144.5348
 Red. masses --      1.1105                 1.0903                 1.0934
 Frc consts  --      6.3355                 6.2482                 6.3701
 IR Inten    --     18.7504                43.4032                37.8678

                     40                     41                     42
                      A                      A                      A
 Frequencies --   3212.2342              3224.8782              3503.5297
 Red. masses --      1.0920                 1.0997                 1.1588
 Frc consts  --      6.6389                 6.7386                 8.3808
 IR Inten    --      9.1151                 6.3508                86.4971

 - Thermochemistry -
 -------------------
 Temperature   298.150 Kelvin.  Pressure   1.00000 Atm.
 Atom     1 has atomic number  6 and mass  12.00000

 Molecular mass:   117.05785 amu.
 Principal axes and moments of inertia in atomic units:
                           1         2         3
     Eigenvalues --   461.270991154.922911279.07462
           X            0.99996   0.00893   0.00201
           Y           -0.00882   0.99878  -0.04859
           Z           -0.00244   0.04857   0.99882
 This molecule is an asymmetric top.
 Rotational symmetry number  1.
 Warning -- assumption of classical behavior for rotation
           may cause significant error
 Rotational temperatures (Kelvin)      0.18777     0.07500     0.06772
 Rotational constants (GHZ):           3.91254     1.56265     1.41097
 Zero-point vibrational energy     328000.4 (Joules/Mol)
                                   78.39398 (Kcal/Mol)
 Warning -- explicit consideration of   8 degrees of freedom as
           vibrations may cause significant error
 Vibrational temperatures:    196.78   231.65   570.72   645.85   718.16
          (Kelvin)            769.09   808.63   883.72   977.08  1066.22
                             1087.75  1139.78  1173.18  1231.86  1241.43
                             1263.79  1306.79  1339.21  1358.36  1413.93
                             1443.08  1452.92  1512.98  1584.01  1638.41
                             1660.17  1697.97  1718.52  1756.89  1803.24
                             1823.20  1848.81  1987.02  2152.05  3214.12
                             4390.33  4477.19  4487.24  4524.28  4621.69
                             4639.88  5040.80

 Zero-point correction=                           0.124929 (Hartree/Particle)
 Thermal correction to Energy=                    0.131494
 Thermal correction to Enthalpy=                  0.132439
 Thermal correction to Gibbs Free Energy=         0.094228
 Sum of electronic and zero-point Energies=           -363.480250
 Sum of electronic and thermal Energies=              -363.473684
 Sum of electronic and thermal Enthalpies=            -363.472740
 Sum of electronic and thermal Free Energies=         -363.510951

                     E (Thermal)             CV                S
                      KCal/Mol        Cal/Mol-Kelvin    Cal/Mol-Kelvin
 Total                   82.514             27.355             80.422
 Electronic               0.000              0.000              0.000
 Translational            0.889              2.981             40.187
 Rotational               0.889              2.981             28.012
 Vibrational             80.737             21.394             12.222
 Vibration     1          0.614              1.917              2.849
 Vibration     2          0.622              1.890              2.538
 Vibration     3          0.763              1.477              0.975
 Vibration     4          0.808              1.363              0.799
 Vibration     5          0.855              1.252              0.660
 Vibration     6          0.890              1.174              0.577
 Vibration     7          0.918              1.113              0.520
 Vibration     8          0.974              1.002              0.426

                           ! Non-Optimized Parameters !
 Normal termination of Gaussian 16 at Tue Mar  9 04:03:14 2021.
