 Gaussian 16, Revision A.03,
 Gaussian 16:  ES64L-G16RevA.03 25-Dec-2016

 -----------------------------
 # opt freq b3lyp/6-31g(2df,p)
 -----------------------------

 -------------------
 Title Card Required
 -------------------
 Symbolic Z-matrix:
 Charge =  0 Multiplicity = 1

 SCF Done:  E(RB3LYP) =  -352.539445691     A.U. after   13 cycles
 SCF Done:  E(RB3LYP) =  -352.559983719     A.U. after   12 cycles
 SCF Done:  E(RB3LYP) =  -352.560832414     A.U. after   11 cycles
 SCF Done:  E(RB3LYP) =  -352.549981024     A.U. after   13 cycles
 SCF Done:  E(RB3LYP) =  -352.560678316     A.U. after   11 cycles
 SCF Done:  E(RB3LYP) =  -352.561176985     A.U. after    9 cycles
 SCF Done:  E(RB3LYP) =  -352.561293767     A.U. after   10 cycles
 SCF Done:  E(RB3LYP) =  -352.561342942     A.U. after   10 cycles
 SCF Done:  E(RB3LYP) =  -352.561221541     A.U. after   10 cycles
 SCF Done:  E(RB3LYP) =  -352.561395750     A.U. after   10 cycles
 SCF Done:  E(RB3LYP) =  -352.561398203     A.U. after    7 cycles
 Optimization completed.
    -- Stationary point found.
 Normal termination of Gaussian 16 at Tue Mar  9 01:13:16 2021.

 ----------------------------------------------------------------------
 #N Geom=AllCheck Guess=TCheck SCRF=Check GenChk RB3LYP/6-31G(2df,p) Fr
 eq
 ----------------------------------------------------------------------

 Structure from the checkpoint file:  "CtCCCCpCppCpCC.chk"
 -------------------
 Title Card Required
 -------------------
 Charge =  0 Multiplicity = 1

                         Standard orientation:
 ---------------------------------------------------------------------
 Center     Atomic      Atomic             Coordinates (Angstroms)
 Number     Number       Type             X           Y           Z
 ---------------------------------------------------------------------
      1          6           0        4.148890   -0.675468    0.000134
      2          6           0        3.094770   -0.097386   -0.000108
      3          6           0        1.799814    0.573492   -0.000314
      4          6           0        0.626764   -0.431762   -0.000441
      5          6           0       -0.804133    0.166653    0.000095
      6          6           0       -1.026868    1.024017    1.260221
      7          6           0       -1.026988    1.026009   -1.258656
      8          6           0       -1.773322   -1.047394   -0.000819
      9          6           0       -3.276455   -0.745407   -0.000230
     10          1           0        5.086244   -1.173656    0.000192
     11          1           0        1.738931    1.229098   -0.877017
     12          1           0        1.738741    1.229138    0.876349
     13          1           0        0.738076   -1.081878    0.875637
     14          1           0        0.737691   -1.081143   -0.877107
     15          1           0       -0.348378    1.882172    1.290802
     16          1           0       -0.866514    0.437467    2.172079
     17          1           0       -2.044363    1.424090    1.294986
     18          1           0       -0.348730    1.884400   -1.287771
     19          1           0       -2.044592    1.425853   -1.292862
     20          1           0       -0.866391    0.440991   -2.171457
     21          1           0       -1.540299   -1.668176    0.874463
     22          1           0       -1.540655   -1.666571   -0.877330
     23          1           0       -3.584081   -0.179834    0.884473
     24          1           0       -3.846051   -1.680219   -0.000945
     25          1           0       -3.584462   -0.178253   -0.883788
 ---------------------------------------------------------------------

 SCF Done:  E(RB3LYP) =  -352.561398203     A.U. after    1 cycles

 The electronic state is 1-A.
 Alpha  occ. eigenvalues --  -10.20270 -10.19505 -10.18177 -10.17750 -10.17504
 Alpha  occ. eigenvalues --  -10.17236 -10.17165 -10.17165 -10.16329  -0.83117
 Alpha  occ. eigenvalues --   -0.78166  -0.73290  -0.70679  -0.68468  -0.65729
 Alpha  occ. eigenvalues --   -0.60676  -0.52786  -0.51985  -0.47287  -0.46742
 Alpha  occ. eigenvalues --   -0.44734  -0.43440  -0.42753  -0.40391  -0.39467
 Alpha  occ. eigenvalues --   -0.38059  -0.37243  -0.35555  -0.35468  -0.33925
 Alpha  occ. eigenvalues --   -0.31668  -0.31610  -0.30966  -0.25712  -0.25575
 Alpha virt. eigenvalues --    0.05985   0.06303   0.07409   0.11294   0.12074
 Alpha virt. eigenvalues --    0.12476   0.13498   0.13947   0.14169   0.15212
 Alpha virt. eigenvalues --    0.15498   0.17042   0.17697   0.19336   0.19564

 Mulliken charges:
               1
     1  C   -0.436079
     2  C    0.297227
     3  C   -0.387875
     4  C   -0.182565
     5  C    0.265262
     6  C   -0.413497
     7  C   -0.413497
     8  C   -0.180444
     9  C   -0.406411
    10  H    0.190934
    11  H    0.130626
    12  H    0.130622
    13  H    0.102561
    14  H    0.102549
    15  H    0.111639
    16  H    0.109201
    17  H    0.113784
    18  H    0.111649
    19  H    0.113777
    20  H    0.109195
    21  H    0.091068
    22  H    0.091065
    23  H    0.117650
    24  H    0.113912
    25  H    0.117646
 Sum of Mulliken charges =  -0.00000

 Dipole moment (field-independent basis, Debye):
    X=             -0.9087    Y=              0.1651    Z=             -0.0002  Tot=              0.9236
 Quadrupole moment (field-independent basis, Debye-Ang):
   XX=            -58.8845   YY=            -57.5783   ZZ=            -58.5338
   XY=             -1.1696   XZ=              0.0002   YZ=             -0.0004

  Exact polarizability: 123.832  -7.559  84.254   0.003  -0.002  78.484
 Approx polarizability: 158.079 -18.286 128.045   0.008  -0.004 117.344

                      1                      2                      3
                      A                      A                      A
 Frequencies --     38.2376                77.0223                89.3978
 Red. masses --      2.1316                 1.9219                 2.2058
 Frc consts  --      0.0018                 0.0067                 0.0104
 IR Inten    --      0.0860                 0.0125                 0.0055

                      4                      5                      6
                      A                      A                      A
 Frequencies --    106.6662               210.1894               216.2224
 Red. masses --      3.5977                 1.0633                 3.6153
 Frc consts  --      0.0241                 0.0277                 0.0996
 IR Inten    --      0.0736                 0.0109                 0.2224

                      7                      8                      9
                      A                      A                      A
 Frequencies --    248.5516               277.8149               299.6046
 Red. masses --      1.2087                 1.2305                 2.1957
 Frc consts  --      0.0440                 0.0560                 0.1161
 IR Inten    --      0.1687                 0.0724                 0.0120

                     10                     11                     12
                      A                      A                      A
 Frequencies --    330.3202               348.1215               356.6050
 Red. masses --      2.0775                 3.0886                 2.7219
 Frc consts  --      0.1336                 0.2205                 0.2039
 IR Inten    --      0.0937                 2.7513                 0.1537

                     13                     14                     15
                      A                      A                      A
 Frequencies --    376.9105               414.3833               478.5556
 Red. masses --      2.8023                 1.9920                 3.3403
 Frc consts  --      0.2345                 0.2015                 0.4507
 IR Inten    --      0.8135                 0.0502                 3.3923

                     16                     17                     18
                      A                      A                      A
 Frequencies --    561.5890               614.1959               632.4678
 Red. masses --      2.8905                 1.1994                 1.2205
 Frc consts  --      0.5371                 0.2666                 0.2876
 IR Inten    --      0.5139                43.5714                42.4271

                     19                     20                     21
                      A                      A                      A
 Frequencies --    732.7015               759.2524               785.3001
 Red. masses --      3.2404                 1.1986                 1.2171
 Frc consts  --      1.0249                 0.4071                 0.4422
 IR Inten    --      0.2851                 0.0242                 2.4715

                     22                     23                     24
                      A                      A                      A
 Frequencies --    865.2788               937.2271               945.8809
 Red. masses --      2.2779                 1.6825                 2.7809
 Frc consts  --      1.0048                 0.8708                 1.4659
 IR Inten    --      1.4407                 0.0061                 3.5963

                     25                     26                     27
                      A                      A                      A
 Frequencies --    970.5526               981.8975              1000.3638
 Red. masses --      1.3888                 2.3498                 1.3037
 Frc consts  --      0.7708                 1.3348                 0.7687
 IR Inten    --      0.0049                 0.9739                 0.3731

                     28                     29                     30
                      A                      A                      A
 Frequencies --   1016.1467              1040.4491              1087.4921
 Red. masses --      2.8050                 2.0827                 2.0086
 Frc consts  --      1.7065                 1.3284                 1.3996
 IR Inten    --      1.7266                 2.7224                 1.7981

                     31                     32                     33
                      A                      A                      A
 Frequencies --   1092.4995              1179.4099              1205.0265
 Red. masses --      1.5517                 1.3457                 1.8834
 Frc consts  --      1.0912                 1.1029                 1.6113
 IR Inten    --      0.6994                 0.4631                10.2542

                     34                     35                     36
                      A                      A                      A
 Frequencies --   1247.7542              1254.5563              1303.1918
 Red. masses --      2.7717                 1.6123                 1.5249
 Frc consts  --      2.5425                 1.4952                 1.5259
 IR Inten    --      6.2317                 1.1087                 2.1755

                     37                     38                     39
                      A                      A                      A
 Frequencies --   1308.9878              1361.3895              1368.4428
 Red. masses --      1.1237                 1.2700                 1.4721
 Frc consts  --      1.1344                 1.3868                 1.6242
 IR Inten    --      0.0400                 0.0444                 0.4822

                     40                     41                     42
                      A                      A                      A
 Frequencies --   1383.9895              1401.7037              1411.6959
 Red. masses --      1.3716                 1.2598                 1.2560
 Frc consts  --      1.5479                 1.4583                 1.4747
 IR Inten    --      1.5992                 6.1694                 1.6975

                     43                     44                     45
                      A                      A                      A
 Frequencies --   1426.7404              1469.2812              1479.6342
 Red. masses --      1.2352                 1.0747                 1.0759
 Frc consts  --      1.4814                 1.3669                 1.3878
 IR Inten    --      4.8488                 1.5186                 0.2860

                     46                     47                     48
                      A                      A                      A
 Frequencies --   1482.4921              1490.6292              1492.1165
 Red. masses --      1.0454                 1.0832                 1.0464
 Frc consts  --      1.3537                 1.4180                 1.3727
 IR Inten    --      0.0329                 0.1816                 2.6822

                     49                     50                     51
                      A                      A                      A
 Frequencies --   1507.4901              1508.8966              1514.2049
 Red. masses --      1.0729                 1.0512                 1.0484
 Frc consts  --      1.4366                 1.4101                 1.4162
 IR Inten    --      1.4209                 5.9614                 2.1125

                     52                     53                     54
                      A                      A                      A
 Frequencies --   1518.0692              2237.5367              3008.7106
 Red. masses --      1.0539                 5.9406                 1.0591
 Frc consts  --      1.4310                17.5234                 5.6488
 IR Inten    --     13.2564                 6.8712                21.0153

                     55                     56                     57
                      A                      A                      A
 Frequencies --   3022.8942              3028.4139              3033.7956
 Red. masses --      1.0554                 1.0369                 1.0586
 Frc consts  --      5.6822                 5.6028                 5.7406
 IR Inten    --      8.2304                28.0193                33.6695

                     58                     59                     60
                      A                      A                      A
 Frequencies --   3034.9895              3040.9736              3042.0355
 Red. masses --      1.0399                 1.0367                 1.1020
 Frc consts  --      5.6435                 5.6486                 6.0085
 IR Inten    --      3.2692                22.5170                15.3011

                     61                     62                     63
                      A                      A                      A
 Frequencies --   3053.6869              3076.4698              3095.9366
 Red. masses --      1.1005                 1.1035                 1.1003
 Frc consts  --      6.0461                 6.1538                 6.2135
 IR Inten    --      0.5411                38.9367                10.6400

                     64                     65                     66
                      A                      A                      A
 Frequencies --   3098.0661              3100.7891              3101.0122
 Red. masses --      1.0994                 1.1009                 1.1000
 Frc consts  --      6.2173                 6.2364                 6.2326
 IR Inten    --     14.1014                18.1326                78.9383

                     67                     68                     69
                      A                      A                      A
 Frequencies --   3108.5884              3112.9614              3508.2682
 Red. masses --      1.0987                 1.1007                 1.1617
 Frc consts  --      6.2557                 6.2847                 8.4241
 IR Inten    --     57.7537                27.1393                70.6533

 - Thermochemistry -
 -------------------
 Temperature   298.150 Kelvin.  Pressure   1.00000 Atm.
 Atom     1 has atomic number  6 and mass  12.00000

 Molecular mass:   124.12520 amu.
 Principal axes and moments of inertia in atomic units:
                           1         2         3
     Eigenvalues --   516.348202547.508822631.61594
           X            1.00000   0.00277  -0.00000
           Y           -0.00277   1.00000  -0.00002
           Z            0.00000   0.00002   1.00000
 This molecule is an asymmetric top.
 Rotational symmetry number  1.
 Warning -- assumption of classical behavior for rotation
           may cause significant error
 Rotational temperatures (Kelvin)      0.16774     0.03400     0.03291
 Rotational constants (GHZ):           3.49520     0.70843     0.68579
 Zero-point vibrational energy     591629.5 (Joules/Mol)
                                  141.40284 (Kcal/Mol)
 Warning -- explicit consideration of  17 degrees of freedom as
           vibrations may cause significant error
 Vibrational temperatures:     55.02   110.82   128.62   153.47   302.42
          (Kelvin)            311.10   357.61   399.71   431.06   475.26
                              500.87   513.08   542.29   596.21   688.53
                              808.00   883.69   909.98  1054.19  1092.39
                             1129.87  1244.94  1348.46  1360.91  1396.41
                             1412.73  1439.30  1462.01  1496.97  1564.66
                             1571.86  1696.91  1733.76  1795.24  1805.03
                             1875.00  1883.34  1958.74  1968.88  1991.25
                             2016.74  2031.12  2052.76  2113.97  2128.86
                             2132.98  2144.68  2146.82  2168.94  2170.97
                             2178.60  2184.16  3219.32  4328.86  4349.27
                             4357.21  4364.96  4366.67  4375.28  4376.81
                             4393.57  4426.35  4454.36  4457.43  4461.34
                             4461.66  4472.57  4478.86  5047.62

 Zero-point correction=                           0.225340 (Hartree/Particle)
 Thermal correction to Energy=                    0.237013
 Thermal correction to Enthalpy=                  0.237957
 Thermal correction to Gibbs Free Energy=         0.188170
 Sum of electronic and zero-point Energies=           -352.336058
 Sum of electronic and thermal Energies=              -352.324385
 Sum of electronic and thermal Enthalpies=            -352.323441
 Sum of electronic and thermal Free Energies=         -352.373229

                     E (Thermal)             CV                S
                      KCal/Mol        Cal/Mol-Kelvin    Cal/Mol-Kelvin
 Total                  148.728             43.161            104.787
 Electronic               0.000              0.000              0.000
 Translational            0.889              2.981             40.362
 Rotational               0.889              2.981             29.627
 Vibrational            146.950             37.199             34.797
 Vibration     1          0.594              1.982              5.348
 Vibration     2          0.599              1.964              3.965
 Vibration     3          0.602              1.957              3.673
 Vibration     4          0.606              1.944              3.329
 Vibration     5          0.642              1.825              2.042
 Vibration     6          0.645              1.816              1.991
 Vibration     7          0.662              1.765              1.741
 Vibration     8          0.679              1.715              1.547
 Vibration     9          0.692              1.674              1.419
 Vibration    10          0.713              1.615              1.259
 Vibration    11          0.726              1.579              1.175
 Vibration    12          0.732              1.562              1.137
 Vibration    13          0.747              1.519              1.052
 Vibration    14          0.778              1.439              0.911
 Vibration    15          0.835              1.298              0.714
 Vibration    16          0.917              1.114              0.521
 Vibration    17          0.974              1.002              0.426

                           ! Non-Optimized Parameters !
 Normal termination of Gaussian 16 at Tue Mar  9 01:51:06 2021.
