 Gaussian 16, Revision A.03,
 Gaussian 16:  ES64L-G16RevA.03 25-Dec-2016

 -----------------------------
 # opt freq b3lyp/6-31g(2df,p)
 -----------------------------

 -------------------
 Title Card Required
 -------------------
 Symbolic Z-matrix:
 Charge =  0 Multiplicity = 1

 SCF Done:  E(RB3LYP) =  -364.811677202     A.U. after   14 cycles
 SCF Done:  E(RB3LYP) =  -364.840273894     A.U. after   12 cycles
 SCF Done:  E(RB3LYP) =  -364.853608011     A.U. after   12 cycles
 SCF Done:  E(RB3LYP) =  -364.851452441     A.U. after   14 cycles
 SCF Done:  E(RB3LYP) =  -364.857280321     A.U. after   12 cycles
 SCF Done:  E(RB3LYP) =  -364.856703799     A.U. after   12 cycles
 SCF Done:  E(RB3LYP) =  -364.857989890     A.U. after   12 cycles
 SCF Done:  E(RB3LYP) =  -364.859055857     A.U. after   12 cycles
 SCF Done:  E(RB3LYP) =  -364.859037576     A.U. after   10 cycles
 SCF Done:  E(RB3LYP) =  -364.859073433     A.U. after   10 cycles
 SCF Done:  E(RB3LYP) =  -364.859124311     A.U. after   10 cycles
 Optimization completed.
    -- Stationary point found.
 Normal termination of Gaussian 16 at Tue Mar  9 01:16:12 2021.

 ----------------------------------------------------------------------
 #N Geom=AllCheck Guess=TCheck SCRF=Check GenChk RB3LYP/6-31G(2df,p) Fr
 eq
 ----------------------------------------------------------------------

 Structure from the checkpoint file:  "CtCC1C2CpCpN3C1C23.chk"
 -------------------
 Title Card Required
 -------------------
 Charge =  0 Multiplicity = 1

                         Standard orientation:
 ---------------------------------------------------------------------
 Center     Atomic      Atomic             Coordinates (Angstroms)
 Number     Number       Type             X           Y           Z
 ---------------------------------------------------------------------
      1          6           0        2.976487    1.010505   -0.247805
      2          6           0        2.092082    0.264900    0.082691
      3          6           0        1.027487   -0.637419    0.485395
      4          6           0       -0.332735   -0.063527    1.009000
      5          6           0       -0.836146    0.766961   -0.187469
      6          6           0       -2.180011    1.446236   -0.002650
      7          7           0       -0.993922   -0.511633   -0.974514
      8          6           0        0.163387   -1.370300   -0.556603
      9          6           0       -1.039754   -1.278916    0.300574
     10          1           0        3.757670    1.667156   -0.541566
     11          1           0        1.407854   -1.376762    1.197987
     12          1           0       -0.423035    0.268266    2.041868
     13          1           0       -0.109332    1.459028   -0.627479
     14          1           0       -2.909855    0.768502    0.452271
     15          1           0       -2.577771    1.772450   -0.968157
     16          1           0       -2.078187    2.325014    0.642387
     17          1           0        0.471997   -2.142558   -1.248396
     18          1           0       -1.806660   -1.990305    0.573880
 ---------------------------------------------------------------------

 SCF Done:  E(RB3LYP) =  -364.859124311     A.U. after    1 cycles

 The electronic state is 1-A.
 Alpha  occ. eigenvalues --  -14.32873 -10.22038 -10.21965 -10.21846 -10.21245
 Alpha  occ. eigenvalues --  -10.20603 -10.18118 -10.17504 -10.17422  -1.00435
 Alpha  occ. eigenvalues --   -0.79457  -0.76812  -0.72946  -0.66923  -0.64784
 Alpha  occ. eigenvalues --   -0.57792  -0.53579  -0.52555  -0.51244  -0.47772
 Alpha  occ. eigenvalues --   -0.46791  -0.43698  -0.39414  -0.38337  -0.37340
 Alpha  occ. eigenvalues --   -0.35147  -0.33126  -0.30860  -0.29166  -0.26726
 Alpha  occ. eigenvalues --   -0.26032  -0.24113
 Alpha virt. eigenvalues --    0.03714   0.05104   0.08646   0.11101   0.11836
 Alpha virt. eigenvalues --    0.12098   0.12855   0.13738   0.15098   0.15628
 Alpha virt. eigenvalues --    0.16459   0.16707   0.18053   0.20072   0.21218

 Mulliken charges:
               1
     1  C   -0.446383
     2  C    0.307595
     3  C   -0.189778
     4  C   -0.103074
     5  C    0.077354
     6  C   -0.405949
     7  N   -0.147658
     8  C   -0.054171
     9  C   -0.073742
    10  H    0.195995
    11  H    0.107705
    12  H    0.078630
    13  H    0.087092
    14  H    0.117610
    15  H    0.128151
    16  H    0.114819
    17  H    0.105821
    18  H    0.099981
 Sum of Mulliken charges =  -0.00000

 Dipole moment (field-independent basis, Debye):
    X=              0.1759    Y=             -0.0985    Z=              1.5228  Tot=              1.5361
 Quadrupole moment (field-independent basis, Debye-Ang):
   XX=            -51.7117   YY=            -48.7960   ZZ=            -54.4637
   XY=              1.1849   XZ=             -3.4416   YZ=             -1.6064

  Exact polarizability:  98.052   7.886  80.481  -5.139  -2.577  64.491
 Approx polarizability: 138.973  20.188 123.860 -10.882  -8.241 106.429

                      1                      2                      3
                      A                      A                      A
 Frequencies --    122.2178               144.9393               232.8063
 Red. masses --      3.7551                 3.5028                 1.2135
 Frc consts  --      0.0330                 0.0434                 0.0388
 IR Inten    --      0.0605                 0.6905                 0.2668

                      4                      5                      6
                      A                      A                      A
 Frequencies --    247.9553               286.2979               370.1064
 Red. masses --      2.2967                 2.5887                 4.9450
 Frc consts  --      0.0832                 0.1250                 0.3991
 IR Inten    --      0.7330                 0.7533                 3.3983

                      7                      8                      9
                      A                      A                      A
 Frequencies --    453.9352               542.6785               585.3935
 Red. masses --      4.6222                 5.2520                 4.1814
 Frc consts  --      0.5612                 0.9113                 0.8442
 IR Inten    --      5.5588                 0.7198                 0.3076

                     10                     11                     12
                      A                      A                      A
 Frequencies --    628.2863               639.2908               743.4449
 Red. masses --      1.2462                 1.2264                 4.8880
 Frc consts  --      0.2898                 0.2953                 1.5917
 IR Inten    --     40.2693                39.1198                 1.4697

                     13                     14                     15
                      A                      A                      A
 Frequencies --    758.5431               797.9207               800.0179
 Red. masses --      2.5274                 2.3765                 2.2861
 Frc consts  --      0.8568                 0.8915                 0.8621
 IR Inten    --      2.5738                18.2143                 6.0445

                     16                     17                     18
                      A                      A                      A
 Frequencies --    849.1220               897.1055               924.6100
 Red. masses --      1.9526                 2.5859                 2.4027
 Frc consts  --      0.8295                 1.2261                 1.2102
 IR Inten    --      9.3946                 3.1489                 5.7084

                     19                     20                     21
                      A                      A                      A
 Frequencies --    939.5589               962.4841              1003.4105
 Red. masses --      2.8810                 3.5245                 1.7385
 Frc consts  --      1.4984                 1.9237                 1.0313
 IR Inten    --      2.9276                 2.9036                 4.1270

                     22                     23                     24
                      A                      A                      A
 Frequencies --   1028.7986              1059.8062              1063.0344
 Red. masses --      1.7366                 1.7886                 1.6454
 Frc consts  --      1.0829                 1.1836                 1.0955
 IR Inten    --      2.9441                 3.4579                 5.3888

                     25                     26                     27
                      A                      A                      A
 Frequencies --   1086.6044              1099.3433              1156.7898
 Red. masses --      2.2223                 1.6382                 1.5670
 Frc consts  --      1.5459                 1.1665                 1.2355
 IR Inten    --     14.6449                 2.5883                 4.2423

                     28                     29                     30
                      A                      A                      A
 Frequencies --   1169.0856              1198.6280              1213.9975
 Red. masses --      1.9007                 1.5659                 1.7943
 Frc consts  --      1.5306                 1.3255                 1.5581
 IR Inten    --      0.4717                 5.4311                 1.3002

                     31                     32                     33
                      A                      A                      A
 Frequencies --   1257.4409              1293.3508              1322.6535
 Red. masses --      1.6760                 1.5690                 2.9238
 Frc consts  --      1.5613                 1.5464                 3.0136
 IR Inten    --      6.7132                 2.8983                 3.1829

                     34                     35                     36
                      A                      A                      A
 Frequencies --   1351.7854              1386.6210              1412.2282
 Red. masses --      1.4281                 1.4158                 1.3308
 Frc consts  --      1.5375                 1.6039                 1.5638
 IR Inten    --     15.1204                 7.1675                 4.5523

                     37                     38                     39
                      A                      A                      A
 Frequencies --   1489.3724              1495.2493              2229.1036
 Red. masses --      1.0532                 1.0470                 5.9618
 Frc consts  --      1.3764                 1.3792                17.4539
 IR Inten    --      3.3802                 3.1581                 0.6250

                     40                     41                     42
                      A                      A                      A
 Frequencies --   3035.2204              3047.6313              3054.3370
 Red. masses --      1.0349                 1.0846                 1.0833
 Frc consts  --      5.6173                 5.9356                 5.9544
 IR Inten    --     22.7773                20.1671                13.2113

                     43                     44                     45
                      A                      A                      A
 Frequencies --   3105.9629              3111.7309              3131.4109
 Red. masses --      1.1012                 1.1015                 1.0910
 Frc consts  --      6.2590                 6.2839                 6.3033
 IR Inten    --     26.2377                18.1958                32.0637

                     46                     47                     48
                      A                      A                      A
 Frequencies --   3202.4846              3216.5369              3502.3746
 Red. masses --      1.0893                 1.1022                 1.1610
 Frc consts  --      6.5821                 6.7186                 8.3911
 IR Inten    --      9.4984                14.4854                68.9601

 - Thermochemistry -
 -------------------
 Temperature   298.150 Kelvin.  Pressure   1.00000 Atm.
 Atom     1 has atomic number  6 and mass  12.00000

 Molecular mass:   119.07350 amu.
 Principal axes and moments of inertia in atomic units:
                           1         2         3
     Eigenvalues --   588.157631246.458211519.47134
           X            0.99956  -0.02769  -0.01106
           Y            0.02752   0.99951  -0.01519
           Z            0.01147   0.01488   0.99982
 This molecule is an asymmetric top.
 Rotational symmetry number  1.
 Warning -- assumption of classical behavior for rotation
           may cause significant error
 Rotational temperatures (Kelvin)      0.14726     0.06949     0.05700
 Rotational constants (GHZ):           3.06847     1.44790     1.18774
 Zero-point vibrational energy     386703.1 (Joules/Mol)
                                   92.42426 (Kcal/Mol)
 Warning -- explicit consideration of   9 degrees of freedom as
           vibrations may cause significant error
 Vibrational temperatures:    175.84   208.54   334.96   356.75   411.92
          (Kelvin)            532.50   653.11   780.79   842.25   903.96
                              919.80  1069.65  1091.37  1148.03  1151.05
                             1221.70  1290.73  1330.31  1351.82  1384.80
                             1443.68  1480.21  1524.82  1529.47  1563.38
                             1581.71  1664.36  1682.05  1724.56  1746.67
                             1809.18  1860.84  1903.00  1944.92  1995.04
                             2031.88  2142.87  2151.33  3207.18  4367.01
                             4384.86  4394.51  4468.79  4477.09  4505.40
                             4607.66  4627.88  5039.14

 Zero-point correction=                           0.147287 (Hartree/Particle)
 Thermal correction to Energy=                    0.155073
 Thermal correction to Enthalpy=                  0.156017
 Thermal correction to Gibbs Free Energy=         0.115294
 Sum of electronic and zero-point Energies=           -364.711837
 Sum of electronic and thermal Energies=              -364.704051
 Sum of electronic and thermal Enthalpies=            -364.703107
 Sum of electronic and thermal Free Energies=         -364.743830

                     E (Thermal)             CV                S
                      KCal/Mol        Cal/Mol-Kelvin    Cal/Mol-Kelvin
 Total                   97.310             31.010             85.709
 Electronic               0.000              0.000              0.000
 Translational            0.889              2.981             40.238
 Rotational               0.889              2.981             28.501
 Vibrational             95.532             25.049             16.970
 Vibration     1          0.610              1.931              3.065
 Vibration     2          0.616              1.908              2.738
 Vibration     3          0.654              1.791              1.857
 Vibration     4          0.662              1.766              1.745
 Vibration     5          0.684              1.699              1.496
 Vibration     6          0.742              1.534              1.079
 Vibration     7          0.812              1.352              0.784
 Vibration     8          0.898              1.156              0.560
 Vibration     9          0.942              1.063              0.475

 Optimization completed.
    -- Stationary point found.
 Normal termination of Gaussian 16 at Tue Mar  9 01:46:06 2021.
