 Gaussian 16, Revision A.03,
 Gaussian 16:  ES64L-G16RevA.03 25-Dec-2016

 -----------------------------------------------
 # opt freq b3lyp/6-31g(2df,p) geom=connectivity
 -----------------------------------------------

 -------------------
 Title Card Required
 -------------------
 Symbolic Z-matrix:
 Charge =  0 Multiplicity = 1

 SCF Done:  E(RB3LYP) =  -401.631305250     A.U. after   20 cycles
 SCF Done:  E(RB3LYP) =  -401.726760684     A.U. after   16 cycles
 SCF Done:  E(RB3LYP) =  -401.837409958     A.U. after   16 cycles
 SCF Done:  E(RB3LYP) =  -401.918745015     A.U. after   15 cycles
 SCF Done:  E(RB3LYP) =  -402.007113190     A.U. after   15 cycles
 SCF Done:  E(RB3LYP) =  -402.026318539     A.U. after   14 cycles
 SCF Done:  E(RB3LYP) =  -402.040171296     A.U. after   14 cycles
 SCF Done:  E(RB3LYP) =  -402.046405044     A.U. after   12 cycles
 SCF Done:  E(RB3LYP) =  -402.046605320     A.U. after    9 cycles
 SCF Done:  E(RB3LYP) =  -402.049013661     A.U. after   13 cycles
 SCF Done:  E(RB3LYP) =  -402.051431160     A.U. after   11 cycles
 SCF Done:  E(RB3LYP) =  -402.051442390     A.U. after   12 cycles
 SCF Done:  E(RB3LYP) =  -402.051444702     A.U. after   10 cycles
 SCF Done:  E(RB3LYP) =  -402.051448570     A.U. after    8 cycles
 SCF Done:  E(RB3LYP) =  -402.051452488     A.U. after    9 cycles
 SCF Done:  E(RB3LYP) =  -402.051453914     A.U. after    9 cycles
 SCF Done:  E(RB3LYP) =  -402.051454141     A.U. after    7 cycles
 SCF Done:  E(RB3LYP) =  -402.051454176     A.U. after    7 cycles
 SCF Done:  E(RB3LYP) =  -402.051454231     A.U. after    7 cycles
 Optimization completed.
    -- Stationary point found.
 Normal termination of Gaussian 16 at Thu Feb 18 01:07:40 2021.

 ----------------------------------------------------------------------
 #N Geom=AllCheck Guess=TCheck SCRF=Check GenChk RB3LYP/6-31G(2df,p) Fr
 eq
 ----------------------------------------------------------------------

 Structure from the checkpoint file:  "CtCC1NC1CCpCpdO.chk"
 -------------------
 Title Card Required
 -------------------
 Charge =  0 Multiplicity = 1

                         Standard orientation:
 ---------------------------------------------------------------------
 Center     Atomic      Atomic             Coordinates (Angstroms)
 Number     Number       Type             X           Y           Z
 ---------------------------------------------------------------------
      1          6           0        2.817555   -1.314301    0.218748
      2          1           0        2.688700   -2.069504   -0.564167
      3          1           0        2.501965   -1.778034    1.160959
      4          1           0        3.866712   -1.026350    0.292865
      5          6           0        1.963427   -0.091044   -0.060064
      6          6           0        0.495385   -0.364462   -0.388780
      7          1           0        0.475455   -0.841142   -1.380671
      8          1           0        0.091106   -1.119353    0.295676
      9          6           0       -0.357666    0.879549   -0.396404
     10          1           0        0.032420    1.680203   -1.018636
     11          6           0       -1.847796    0.795594   -0.261626
     12          1           0       -2.444804    1.542256   -0.779676
     13          6           0       -2.502107   -0.468339   -0.073402
     14          6           0       -3.069741   -1.517198    0.089063
     15          1           0       -3.570840   -2.442218    0.233797
     16          7           0       -1.006415    1.373647    0.820430
     17          1           0       -0.916692    0.685865    1.566553
     18          8           0        2.415818    1.029245   -0.039364
 ---------------------------------------------------------------------

 SCF Done:  E(RB3LYP) =  -402.051454231     A.U. after    1 cycles

 The electronic state is 1-A.
 Alpha  occ. eigenvalues --  -19.13413 -14.33607 -10.27740 -10.24000 -10.22847
 Alpha  occ. eigenvalues --  -10.20424 -10.19493 -10.19245 -10.18411  -1.04552
 Alpha  occ. eigenvalues --   -0.96853  -0.78233  -0.76238  -0.73154  -0.67273
 Alpha  occ. eigenvalues --   -0.62343  -0.55609  -0.52638  -0.50223  -0.49509
 Alpha  occ. eigenvalues --   -0.46907  -0.45536  -0.43537  -0.41604  -0.40022
 Alpha  occ. eigenvalues --   -0.38393  -0.36355  -0.35459  -0.35227  -0.29129
 Alpha  occ. eigenvalues --   -0.27813  -0.25136  -0.24045
 Alpha virt. eigenvalues --   -0.01606   0.02895   0.03866   0.07770   0.10453
 Alpha virt. eigenvalues --    0.11798   0.12731   0.12955   0.14902   0.15468
 Alpha virt. eigenvalues --    0.15950   0.16701   0.17870   0.20342   0.21511

 Mulliken charges:
               1
     1  C   -0.474560
     2  H    0.136826
     3  H    0.143138
     4  H    0.145991
     5  C    0.382274
     6  C   -0.353732
     7  H    0.137674
     8  H    0.123755
     9  C    0.034159
    10  H    0.118459
    11  C   -0.218499
    12  H    0.120449
    13  C    0.341763
    14  C   -0.463668
    15  H    0.201674
    16  N   -0.326820
    17  H    0.233673
    18  O   -0.282557
 Sum of Mulliken charges =  -0.00000

 Dipole moment (field-independent basis, Debye):
    X=             -0.3530    Y=             -3.6022    Z=             -0.5199  Tot=              3.6566
 Quadrupole moment (field-independent basis, Debye-Ang):
   XX=            -54.9065   YY=            -53.7397   ZZ=            -51.0852
   XY=             -3.2783   XZ=              0.4080   YZ=             -3.4510

  Exact polarizability:  94.308  11.483  85.706   0.255  -2.801  57.356
 Approx polarizability: 121.211  30.591 145.838  -0.732  -3.955  91.412

                      1                      2                      3
                      A                      A                      A
 Frequencies --     24.6093                65.2434                94.1179
 Red. masses --      4.5922                 2.7681                 4.0454
 Frc consts  --      0.0016                 0.0069                 0.0211
 IR Inten    --      2.5479                 1.4109                 1.1034

                      4                      5                      6
                      A                      A                      A
 Frequencies --    117.7128               168.7012               209.8423
 Red. masses --      1.1032                 4.9397                 3.6817
 Frc consts  --      0.0090                 0.0828                 0.0955
 IR Inten    --      0.0263                 1.6420                 1.0307

                      7                      8                      9
                      A                      A                      A
 Frequencies --    317.6341               340.8233               421.0790
 Red. masses --      4.4373                 3.0893                 2.3897
 Frc consts  --      0.2638                 0.2114                 0.2496
 IR Inten    --      0.0367                 0.2278                 3.3870

                     10                     11                     12
                      A                      A                      A
 Frequencies --    472.5375               542.4353               574.2067
 Red. masses --      2.1604                 5.2576                 4.8174
 Frc consts  --      0.2842                 0.9115                 0.9358
 IR Inten    --      0.4620                10.0582                 6.8310

                     13                     14                     15
                      A                      A                      A
 Frequencies --    593.3299               612.2155               660.3840
 Red. masses --      1.7765                 2.0385                 1.2388
 Frc consts  --      0.3685                 0.4502                 0.3183
 IR Inten    --     35.4150                21.2403                39.4082

                     16                     17                     18
                      A                      A                      A
 Frequencies --    792.4963               800.8424               813.0212
 Red. masses --      3.2940                 2.6089                 2.5902
 Frc consts  --      1.2189                 0.9858                 1.0088
 IR Inten    --      3.2235                35.9544                 4.3239

                     19                     20                     21
                      A                      A                      A
 Frequencies --    863.9942               908.9529               956.0785
 Red. masses --      2.5535                 2.8506                 2.0563
 Frc consts  --      1.1231                 1.3876                 1.1074
 IR Inten    --      4.3717                30.1098                16.6351

                     22                     23                     24
                      A                      A                      A
 Frequencies --   1014.4070              1040.1224              1091.9756
 Red. masses --      1.5737                 1.7371                 1.7269
 Frc consts  --      0.9541                 1.1072                 1.2133
 IR Inten    --      5.1405                18.0121                 8.9530

                     25                     26                     27
                      A                      A                      A
 Frequencies --   1144.1740              1165.0082              1184.5336
 Red. masses --      1.5378                 1.4144                 1.4370
 Frc consts  --      1.1861                 1.1311                 1.1880
 IR Inten    --      1.5263                13.0902                44.7134

                     28                     29                     30
                      A                      A                      A
 Frequencies --   1193.3496              1260.4397              1299.0483
 Red. masses --      1.3926                 1.6055                 1.3956
 Frc consts  --      1.1684                 1.5028                 1.3876
 IR Inten    --     44.8991                 6.3880                 4.2778

                     31                     32                     33
                      A                      A                      A
 Frequencies --   1330.8256              1382.8851              1385.7975
 Red. masses --      1.6418                 1.3264                 1.5764
 Frc consts  --      1.7132                 1.4945                 1.7836
 IR Inten    --     22.0584                27.1903                22.5089

                     34                     35                     36
                      A                      A                      A
 Frequencies --   1427.4704              1449.3937              1464.4498
 Red. masses --      1.5207                 1.3471                 1.0852
 Frc consts  --      1.8257                 1.6674                 1.3712
 IR Inten    --     28.8905                 3.2517                12.1556

                     37                     38                     39
                      A                      A                      A
 Frequencies --   1476.2285              1816.7792              2230.9179
 Red. masses --      1.0503                10.6299                 6.0112
 Frc consts  --      1.3485                20.6720                17.6269
 IR Inten    --      9.4394               135.7169                 5.5342

                     40                     41                     42
                      A                      A                      A
 Frequencies --   3008.8094              3035.1411              3065.6160
 Red. masses --      1.0678                 1.0381                 1.0902
 Frc consts  --      5.6955                 5.6346                 6.0363
 IR Inten    --     10.9305                 3.1551                 4.7781

                     43                     44                     45
                      A                      A                      A
 Frequencies --   3095.6755              3133.4550              3152.9876
 Red. masses --      1.0978                 1.0862                 1.1012
 Frc consts  --      6.1982                 6.2835                 6.4503
 IR Inten    --      8.7325                 7.4734                 8.7291

                     46                     47                     48
                      A                      A                      A
 Frequencies --   3154.7052              3486.8840              3502.8857
 Red. masses --      1.0897                 1.0754                 1.1600
 Frc consts  --      6.3894                 7.7037                 8.3864
 IR Inten    --     12.9848                 1.2946                76.7377

 - Thermochemistry -
 -------------------
 Temperature   298.150 Kelvin.  Pressure   1.00000 Atm.
 Atom     1 has atomic number  6 and mass  12.00000

 Molecular mass:   123.06841 amu.
 Principal axes and moments of inertia in atomic units:
                           1         2         3
     Eigenvalues --   562.109451978.996552379.43263
           X            0.99967  -0.02544   0.00340
           Y            0.02551   0.99937  -0.02479
           Z           -0.00277   0.02487   0.99969
 This molecule is an asymmetric top.
 Rotational symmetry number  1.
 Warning -- assumption of classical behavior for rotation
           may cause significant error
 Rotational temperatures (Kelvin)      0.15409     0.04377     0.03640
 Rotational constants (GHZ):           3.21066     0.91195     0.75848
 Zero-point vibrational energy     378882.6 (Joules/Mol)
                                   90.55511 (Kcal/Mol)
 Warning -- explicit consideration of  14 degrees of freedom as
           vibrations may cause significant error
 Vibrational temperatures:     35.41    93.87   135.41   169.36   242.72
          (Kelvin)            301.92   457.00   490.37   605.84   679.88
                              780.44   826.16   853.67   880.84   950.15
                             1140.23  1152.23  1169.76  1243.10  1307.78
                             1375.58  1459.51  1496.50  1571.11  1646.21
                             1676.19  1704.28  1716.96  1813.49  1869.04
                             1914.76  1989.66  1993.85  2053.81  2085.35
                             2107.02  2123.96  2613.94  3209.79  4329.01
                             4366.89  4410.74  4453.99  4508.34  4536.45
                             4538.92  5016.85  5039.87

 Zero-point correction=                           0.144309 (Hartree/Particle)
 Thermal correction to Energy=                    0.154193
 Thermal correction to Enthalpy=                  0.155137
 Thermal correction to Gibbs Free Energy=         0.107863
 Sum of electronic and zero-point Energies=           -401.907145
 Sum of electronic and thermal Energies=              -401.897262
 Sum of electronic and thermal Enthalpies=            -401.896317
 Sum of electronic and thermal Free Energies=         -401.943591

                     E (Thermal)             CV                S
                      KCal/Mol        Cal/Mol-Kelvin    Cal/Mol-Kelvin
 Total                   96.757             35.029             99.496
 Electronic               0.000              0.000              0.000
 Translational            0.889              2.981             40.337
 Rotational               0.889              2.981             29.361
 Vibrational             94.980             29.068             29.798
 Vibration     1          0.593              1.985              6.222
 Vibration     2          0.597              1.971              4.292
 Vibration     3          0.603              1.953              3.573
 Vibration     4          0.608              1.935              3.138
 Vibration     5          0.625              1.881              2.450
 Vibration     6          0.642              1.826              2.045
 Vibration     7          0.704              1.640              1.322
 Vibration     8          0.720              1.594              1.208
 Vibration     9          0.784              1.424              0.888
 Vibration    10          0.829              1.311              0.730
 Vibration    11          0.898              1.156              0.560
 Vibration    12          0.931              1.087              0.496
 Vibration    13          0.951              1.046              0.461
 Vibration    14          0.971              1.006              0.429

                           ! Non-Optimized Parameters !
 Normal termination of Gaussian 16 at Thu Feb 18 01:48:43 2021.
