 Gaussian 16, Revision A.03,
 Gaussian 16:  ES64L-G16RevA.03 25-Dec-2016

 -----------------------------
 # opt freq b3lyp/6-31g(2df,p)
 -----------------------------

 -----
 Title
 -----
 Symbolic Z-matrix:
 Charge =  0 Multiplicity = 1

 SCF Done:  E(RB3LYP) =  -437.949416396     A.U. after   14 cycles
 SCF Done:  E(RB3LYP) =  -437.979144980     A.U. after   12 cycles
 SCF Done:  E(RB3LYP) =  -437.989846494     A.U. after   12 cycles
 SCF Done:  E(RB3LYP) =  -437.990901349     A.U. after   12 cycles
 SCF Done:  E(RB3LYP) =  -437.991297212     A.U. after   11 cycles
 SCF Done:  E(RB3LYP) =  -437.991365349     A.U. after   10 cycles
 SCF Done:  E(RB3LYP) =  -437.991382100     A.U. after    9 cycles
 SCF Done:  E(RB3LYP) =  -437.991384949     A.U. after    8 cycles
 SCF Done:  E(RB3LYP) =  -437.991385733     A.U. after    7 cycles
 SCF Done:  E(RB3LYP) =  -437.991386340     A.U. after    7 cycles
 SCF Done:  E(RB3LYP) =  -437.991386454     A.U. after    6 cycles
 SCF Done:  E(RB3LYP) =  -437.991386490     A.U. after    6 cycles
 Optimization completed.
    -- Stationary point found.
 Normal termination of Gaussian 16 at Thu Feb 18 11:54:31 2021.

 ----------------------------------------------------------------------
 #N Geom=AllCheck Guess=TCheck SCRF=Check GenChk RB3LYP/6-31G(2df,p) Fr
 eq
 ----------------------------------------------------------------------

 Structure from the checkpoint file:  "NdC1CdC2CCpOpC2O1.chk"
 -----
 Title
 -----
 Charge =  0 Multiplicity = 1

                         Standard orientation:
 ---------------------------------------------------------------------
 Center     Atomic      Atomic             Coordinates (Angstroms)
 Number     Number       Type             X           Y           Z
 ---------------------------------------------------------------------
      1          7           0       -3.016304   -0.529936   -0.293657
      2          6           0       -1.837127   -0.156495   -0.029313
      3          6           0       -1.185759    1.182998   -0.005876
      4          6           0        0.079601    1.006821    0.375163
      5          6           0        1.502944    1.322838   -0.003713
      6          6           0        1.555218   -0.206204   -0.434876
      7          8           0        2.733945   -0.934246   -0.282085
      8          6           0        0.333836   -0.451118    0.536341
      9          8           0       -0.866951   -1.116536    0.217675
     10          1           0       -3.616201    0.280329   -0.435618
     11          1           0       -1.673232    2.067489   -0.392287
     12          1           0        2.160454    1.505569    0.853375
     13          1           0        1.678351    2.081679   -0.766212
     14          1           0        1.237827   -0.314282   -1.473734
     15          1           0        3.001225   -0.907279    0.642896
     16          1           0        0.697481   -0.790728    1.516100
 ---------------------------------------------------------------------

 SCF Done:  E(RB3LYP) =  -437.991386490     A.U. after    1 cycles

 The electronic state is 1-A.
 Alpha  occ. eigenvalues --  -19.17251 -19.16118 -14.29493 -10.27356 -10.26346
 Alpha  occ. eigenvalues --  -10.24968 -10.21907 -10.21795 -10.20737  -1.08030
 Alpha  occ. eigenvalues --   -1.04588  -0.88975  -0.87058  -0.76475  -0.68860
 Alpha  occ. eigenvalues --   -0.64614  -0.59204  -0.55742  -0.52425  -0.52037
 Alpha  occ. eigenvalues --   -0.47769  -0.44799  -0.44348  -0.43052  -0.41094
 Alpha  occ. eigenvalues --   -0.39504  -0.38225  -0.35373  -0.32653  -0.30197
 Alpha  occ. eigenvalues --   -0.27768  -0.26506  -0.24124
 Alpha virt. eigenvalues --   -0.04110   0.05656   0.07503   0.08672   0.11042
 Alpha virt. eigenvalues --    0.11281   0.13077   0.13883   0.15273   0.16890
 Alpha virt. eigenvalues --    0.17788   0.18917   0.20294   0.24111   0.25695

 Mulliken charges:
               1
     1  N   -0.516296
     2  C    0.401102
     3  C   -0.340615
     4  C    0.231285
     5  C   -0.365999
     6  C    0.112799
     7  O   -0.416521
     8  C    0.027036
     9  O   -0.234144
    10  H    0.223496
    11  H    0.119339
    12  H    0.118693
    13  H    0.133291
    14  H    0.125944
    15  H    0.285912
    16  H    0.094679
 Sum of Mulliken charges =  -0.00000

 Dipole moment (field-independent basis, Debye):
    X=              2.6076    Y=              3.6467    Z=              1.1678  Tot=              4.6327
 Quadrupole moment (field-independent basis, Debye-Ang):
   XX=            -55.2521   YY=            -53.5128   ZZ=            -49.4374
   XY=             -5.9776   XZ=              4.9290   YZ=             -3.1868

  Exact polarizability: 111.121   0.648  64.135   9.940  -2.731  51.169
 Approx polarizability: 171.713   1.797  98.965  21.644  -2.272  83.117

                      1                      2                      3
                      A                      A                      A
 Frequencies --    105.5889               182.8553               228.4402
 Red. masses --      6.3398                 3.3700                 2.5562
 Frc consts  --      0.0416                 0.0664                 0.0786
 IR Inten    --      0.5278                 1.2467                19.8465

                      4                      5                      6
                      A                      A                      A
 Frequencies --    292.5583               321.8139               384.0232
 Red. masses --      1.6494                 2.9388                 3.1228
 Frc consts  --      0.0832                 0.1793                 0.2713
 IR Inten    --     60.4804                 8.7645                24.7911

                      7                      8                      9
                      A                      A                      A
 Frequencies --    441.3165               490.8000               616.3548
 Red. masses --      3.4747                 2.8732                 5.3472
 Frc consts  --      0.3987                 0.4078                 1.1968
 IR Inten    --     16.8451                 3.1473                 5.8650

                     10                     11                     12
                      A                      A                      A
 Frequencies --    672.7278               698.3938               759.5448
 Red. masses --      5.7586                 3.2185                 3.1916
 Frc consts  --      1.5355                 0.9249                 1.0848
 IR Inten    --      6.0802                 6.1720                 2.0027

                     13                     14                     15
                      A                      A                      A
 Frequencies --    805.1741               818.0289               855.4775
 Red. masses --      1.2954                 3.1309                 1.9540
 Frc consts  --      0.4948                 1.2344                 0.8425
 IR Inten    --     16.4737                 3.8457                37.8678

                     16                     17                     18
                      A                      A                      A
 Frequencies --    877.2448               910.5687               943.5870
 Red. masses --      3.8917                 2.5552                 2.1264
 Frc consts  --      1.7646                 1.2483                 1.1155
 IR Inten    --     51.1641                39.7034                 6.7482

                     19                     20                     21
                      A                      A                      A
 Frequencies --    989.1353              1023.6376              1062.5379
 Red. masses --      2.6665                 1.9307                 1.4983
 Frc consts  --      1.5371                 1.1920                 0.9966
 IR Inten    --     21.8910                86.2928                79.1417

                     22                     23                     24
                      A                      A                      A
 Frequencies --   1107.4130              1121.3244              1144.4462
 Red. masses --      5.1954                 1.7075                 2.7438
 Frc consts  --      3.7540                 1.2650                 2.1174
 IR Inten    --     97.6365                32.9741                55.8948

                     25                     26                     27
                      A                      A                      A
 Frequencies --   1171.8429              1185.7227              1226.6957
 Red. masses --      1.4553                 1.3927                 1.4559
 Frc consts  --      1.1775                 1.1537                 1.2907
 IR Inten    --      2.8792                43.7835                15.0475

                     28                     29                     30
                      A                      A                      A
 Frequencies --   1262.6150              1305.9595              1317.8763
 Red. masses --      1.3089                 2.5996                 1.7719
 Frc consts  --      1.2295                 2.6122                 1.8132
 IR Inten    --     29.2246                27.3427                 8.6672

                     31                     32                     33
                      A                      A                      A
 Frequencies --   1377.4884              1423.1629              1472.6906
 Red. masses --      1.5773                 1.2240                 1.1182
 Frc consts  --      1.7633                 1.4607                 1.4289
 IR Inten    --     29.2435                75.2924                 5.1313

                     34                     35                     36
                      A                      A                      A
 Frequencies --   1703.0885              1741.6245              3013.7139
 Red. masses --      8.5703                 9.5980                 1.0837
 Frc consts  --     14.6460                17.1530                 5.7992
 IR Inten    --     19.4842               279.0704                37.7707

                     37                     38                     39
                      A                      A                      A
 Frequencies --   3051.0977              3109.8749              3137.1858
 Red. masses --      1.0650                 1.0874                 1.1007
 Frc consts  --      5.8412                 6.1962                 6.3824
 IR Inten    --     31.5765                 8.0204                13.0511

                     40                     41                     42
                      A                      A                      A
 Frequencies --   3229.9133              3513.7404              3808.6297
 Red. masses --      1.0971                 1.0752                 1.0659
 Frc consts  --      6.7431                 7.8213                 9.1100
 IR Inten    --      1.6570                 5.9103                23.5786

 - Thermochemistry -
 -------------------
 Temperature   298.150 Kelvin.  Pressure   1.00000 Atm.
 Atom     1 has atomic number  7 and mass  14.00307

 Molecular mass:   125.04768 amu.
 Principal axes and moments of inertia in atomic units:
                           1         2         3
     Eigenvalues --   431.109481519.970871828.67509
           X            0.99994  -0.00383   0.01009
           Y            0.00413   0.99955  -0.02959
           Z           -0.00997   0.02963   0.99951
 This molecule is an asymmetric top.
 Rotational symmetry number  1.
 Rotational temperatures (Kelvin)      0.20091     0.05698     0.04736
 Rotational constants (GHZ):           4.18627     1.18735     0.98691
 Zero-point vibrational energy     328410.3 (Joules/Mol)
                                   78.49195 (Kcal/Mol)
 Warning -- explicit consideration of   9 degrees of freedom as
           vibrations may cause significant error
 Vibrational temperatures:    151.92   263.09   328.67   420.93   463.02
          (Kelvin)            552.52   634.96   706.15   886.80   967.91
                             1004.83  1092.82  1158.47  1176.96  1230.84
                             1262.16  1310.11  1357.61  1423.15  1472.79
                             1528.76  1593.32  1613.34  1646.60  1686.02
                             1705.99  1764.94  1816.62  1878.98  1896.13
                             1981.90  2047.61  2118.87  2450.36  2505.81
                             4336.06  4389.85  4474.42  4513.71  4647.12
                             5055.49  5479.77

 Zero-point correction=                           0.125085 (Hartree/Particle)
 Thermal correction to Energy=                    0.132527
 Thermal correction to Enthalpy=                  0.133471
 Thermal correction to Gibbs Free Energy=         0.093200
 Sum of electronic and zero-point Energies=           -437.866302
 Sum of electronic and thermal Energies=              -437.858860
 Sum of electronic and thermal Enthalpies=            -437.857915
 Sum of electronic and thermal Free Energies=         -437.898187

                     E (Thermal)             CV                S
                      KCal/Mol        Cal/Mol-Kelvin    Cal/Mol-Kelvin
 Total                   83.162             29.037             84.758
 Electronic               0.000              0.000              0.000
 Translational            0.889              2.981             40.384
 Rotational               0.889              2.981             28.573
 Vibrational             81.384             23.076             15.801
 Vibration     1          0.605              1.945              3.348
 Vibration     2          0.630              1.863              2.299
 Vibration     3          0.651              1.798              1.891
 Vibration     4          0.688              1.688              1.459
 Vibration     5          0.707              1.632              1.301
 Vibration     6          0.753              1.504              1.023
 Vibration     7          0.801              1.380              0.822
 Vibration     8          0.847              1.270              0.682
 Vibration     9          0.976              0.997              0.422

 Optimization completed.
    -- Stationary point found.
 Normal termination of Gaussian 16 at Thu Feb 18 12:17:33 2021.
