 Gaussian 16, Revision A.03,
 Gaussian 16:  ES64L-G16RevA.03 25-Dec-2016

 -----------------------------
 # opt freq b3lyp/6-31g(2df,p)
 -----------------------------

 -------------------
 Title Card Required
 -------------------
 Symbolic Z-matrix:
 Charge =  0 Multiplicity = 1

 SCF Done:  E(RB3LYP) =  -455.285502185     A.U. after   14 cycles
 SCF Done:  E(RB3LYP) =  -455.297833860     A.U. after   13 cycles
 SCF Done:  E(RB3LYP) =  -455.301649434     A.U. after   12 cycles
 SCF Done:  E(RB3LYP) =  -455.303921476     A.U. after   12 cycles
 SCF Done:  E(RB3LYP) =  -455.304064619     A.U. after   12 cycles
 SCF Done:  E(RB3LYP) =  -455.304936726     A.U. after   11 cycles
 SCF Done:  E(RB3LYP) =  -455.305115008     A.U. after   11 cycles
 SCF Done:  E(RB3LYP) =  -455.305259194     A.U. after   11 cycles
 SCF Done:  E(RB3LYP) =  -455.305343910     A.U. after   10 cycles
 SCF Done:  E(RB3LYP) =  -455.305372337     A.U. after   10 cycles
 SCF Done:  E(RB3LYP) =  -455.305399748     A.U. after   10 cycles
 SCF Done:  E(RB3LYP) =  -455.305402681     A.U. after    8 cycles
 SCF Done:  E(RB3LYP) =  -455.305403340     A.U. after    7 cycles
 SCF Done:  E(RB3LYP) =  -455.305403821     A.U. after    7 cycles
 SCF Done:  E(RB3LYP) =  -455.305404222     A.U. after    7 cycles
 SCF Done:  E(RB3LYP) =  -455.305404313     A.U. after    7 cycles
 Optimization completed.
    -- Stationary point found.
 Normal termination of Gaussian 16 at Tue Mar  9 01:33:01 2021.

 ----------------------------------------------------------------------
 #N Geom=AllCheck Guess=TCheck SCRF=Check GenChk RB3LYP/6-31G(2df,p) Fr
 eq
 ----------------------------------------------------------------------

 Structure from the checkpoint file:  "NdC1CCN1CpdOpCO.chk"
 -------------------
 Title Card Required
 -------------------
 Charge =  0 Multiplicity = 1

                         Standard orientation:
 ---------------------------------------------------------------------
 Center     Atomic      Atomic             Coordinates (Angstroms)
 Number     Number       Type             X           Y           Z
 ---------------------------------------------------------------------
      1          7           0        1.171730    1.973588   -0.000035
      2          6           0        1.417396    0.736640   -0.000056
      3          6           0        2.603426   -0.236874    0.000080
      4          6           0        1.544032   -1.378491   -0.000028
      5          7           0        0.508242   -0.332800   -0.000022
      6          6           0       -0.856428   -0.465837   -0.000025
      7          8           0       -1.378560   -1.567452   -0.000003
      8          6           0       -1.694069    0.805109    0.000045
      9          8           0       -3.053965    0.477276    0.000028
     10          1           0        2.031384    2.519956   -0.000139
     11          1           0        3.230921   -0.180960    0.891261
     12          1           0        3.231330   -0.181065   -0.890818
     13          1           0        1.519763   -2.006866    0.892663
     14          1           0        1.519863   -2.006712   -0.892830
     15          1           0       -1.418452    1.410467   -0.876087
     16          1           0       -1.418498    1.410375    0.876257
     17          1           0       -3.082056   -0.492581   -0.000209
 ---------------------------------------------------------------------

 SCF Done:  E(RB3LYP) =  -455.305404313     A.U. after    1 cycles

 The electronic state is 1-A.
 Alpha  occ. eigenvalues --  -19.13256 -19.12140 -14.38317 -14.32070 -10.29661
 Alpha  occ. eigenvalues --  -10.28076 -10.24757 -10.23054 -10.22364  -1.06533
 Alpha  occ. eigenvalues --   -1.00822  -0.99345  -0.89601  -0.80049  -0.70345
 Alpha  occ. eigenvalues --   -0.67762  -0.63290  -0.54690  -0.52981  -0.51756
 Alpha  occ. eigenvalues --   -0.47956  -0.46319  -0.45032  -0.43064  -0.42049
 Alpha  occ. eigenvalues --   -0.41147  -0.39229  -0.38762  -0.35289  -0.33602
 Alpha  occ. eigenvalues --   -0.29079  -0.27187  -0.26564  -0.25663
 Alpha virt. eigenvalues --   -0.02643   0.04964   0.07961   0.08393   0.10914
 Alpha virt. eigenvalues --    0.11739   0.12028   0.13951   0.14048   0.15101
 Alpha virt. eigenvalues --    0.18999   0.21029   0.21371   0.24095   0.25702

 Mulliken charges:
               1
     1  N   -0.528831
     2  C    0.384242
     3  C   -0.358757
     4  C   -0.166650
     5  N   -0.104783
     6  C    0.357984
     7  O   -0.370922
     8  C   -0.137201
     9  O   -0.424156
    10  H    0.233480
    11  H    0.141451
    12  H    0.141441
    13  H    0.138089
    14  H    0.138085
    15  H    0.131188
    16  H    0.131197
    17  H    0.294143
 Sum of Mulliken charges =  -0.00000

 Dipole moment (field-independent basis, Debye):
    X=              5.3074    Y=             -0.5776    Z=             -0.0003  Tot=              5.3387
 Quadrupole moment (field-independent basis, Debye-Ang):
   XX=            -51.4692   YY=            -55.7369   ZZ=            -50.6492
   XY=              0.8440   XZ=              0.0008   YZ=              0.0001

  Exact polarizability:  89.641   5.425  82.863  -0.000   0.001  47.249
 Approx polarizability: 117.190  14.788 137.274  -0.001   0.001  72.973

                      1                      2                      3
                      A                      A                      A
 Frequencies --     71.1452                98.5835               133.2314
 Red. masses --      3.8756                 4.1447                 2.8482
 Frc consts  --      0.0116                 0.0237                 0.0298
 IR Inten    --      0.0989                 2.9670                10.2017

                      4                      5                      6
                      A                      A                      A
 Frequencies --    147.4677               190.9883               309.0168
 Red. masses --      5.5011                 2.2437                 6.0786
 Frc consts  --      0.0705                 0.0482                 0.3420
 IR Inten    --      1.4066                 2.1754                27.4773

                      7                      8                      9
                      A                      A                      A
 Frequencies --    369.1587               397.7938               405.6064
 Red. masses --      4.9179                 1.1065                 5.8216
 Frc consts  --      0.3949                 0.1032                 0.5643
 IR Inten    --      6.1016                49.1098                 7.7569

                     10                     11                     12
                      A                      A                      A
 Frequencies --    519.8069               574.9311               594.0051
 Red. masses --      2.5671                 2.6105                 3.8013
 Frc consts  --      0.4087                 0.5084                 0.7903
 IR Inten    --      0.6600                30.6451                12.5538

                     13                     14                     15
                      A                      A                      A
 Frequencies --    762.5327               793.8594               797.7308
 Red. masses --      6.8036                 1.1731                 4.6693
 Frc consts  --      2.3308                 0.4356                 1.7507
 IR Inten    --      7.9786                 3.1433                17.1532

                     16                     17                     18
                      A                      A                      A
 Frequencies --    838.3553               924.3349               983.5347
 Red. masses --      1.1215                 2.9211                 2.5545
 Frc consts  --      0.4644                 1.4705                 1.4559
 IR Inten    --     43.6129                35.0044                56.2096

                     19                     20                     21
                      A                      A                      A
 Frequencies --   1019.3724              1024.4655              1060.6045
 Red. masses --      4.9115                 2.1458                 1.7433
 Frc consts  --      3.0070                 1.3269                 1.1554
 IR Inten    --     60.0232                 1.1947                 3.1509

                     22                     23                     24
                      A                      A                      A
 Frequencies --   1133.7114              1157.1264              1170.1930
 Red. masses --      3.9172                 1.2243                 3.0008
 Frc consts  --      2.9664                 0.9658                 2.4211
 IR Inten    --    100.3330                 1.2662                88.6549

                     25                     26                     27
                      A                      A                      A
 Frequencies --   1195.1171              1220.1582              1243.5534
 Red. masses --      1.1466                 1.5840                 1.0781
 Frc consts  --      0.9649                 1.3895                 0.9823
 IR Inten    --      0.0219                28.6747                 0.4640

                     28                     29                     30
                      A                      A                      A
 Frequencies --   1256.4188              1307.3358              1349.5543
 Red. masses --      1.5797                 1.3903                 2.2925
 Frc consts  --      1.4692                 1.4000                 2.4600
 IR Inten    --      2.1590                 3.3101               118.6906

                     31                     32                     33
                      A                      A                      A
 Frequencies --   1405.3346              1463.4513              1471.0134
 Red. masses --      2.8165                 1.1374                 1.1904
 Frc consts  --      3.2774                 1.4352                 1.5177
 IR Inten    --    501.5711                 3.5033                 6.6123

                     34                     35                     36
                      A                      A                      A
 Frequencies --   1494.6756              1519.1107              1757.7695
 Red. masses --      1.5188                 1.1052                10.8622
 Frc consts  --      1.9991                 1.5027                19.7739
 IR Inten    --      6.6794                 5.0667               299.2535

                     37                     38                     39
                      A                      A                      A
 Frequencies --   1783.5911              3003.3438              3021.7140
 Red. masses --      9.5874                 1.0578                 1.1019
 Frc consts  --     17.9697                 5.6215                 5.9279
 IR Inten    --    242.4304                23.2431                17.1979

                     40                     41                     42
                      A                      A                      A
 Frequencies --   3074.1162              3087.4251              3124.0047
 Red. masses --      1.0562                 1.0595                 1.1118
 Frc consts  --      5.8809                 5.9505                 6.3928
 IR Inten    --     26.0043                10.8907                 6.0624

                     43                     44                     45
                      A                      A                      A
 Frequencies --   3144.1705              3507.9088              3690.2608
 Red. masses --      1.1076                 1.0754                 1.0646
 Frc consts  --      6.4512                 7.7972                 8.5421
 IR Inten    --     11.6677                 8.0726                65.5103

 - Thermochemistry -
 -------------------
 Temperature   298.150 Kelvin.  Pressure   1.00000 Atm.
 Atom     1 has atomic number  7 and mass  14.00307

 Molecular mass:   128.05858 amu.
 Principal axes and moments of inertia in atomic units:
                           1         2         3
     Eigenvalues --   581.784391527.669832075.49937
           X            0.99985  -0.01730   0.00000
           Y            0.01730   0.99985   0.00000
           Z           -0.00000  -0.00000   1.00000
 This molecule is an asymmetric top.
 Rotational symmetry number  1.
 Warning -- assumption of classical behavior for rotation
           may cause significant error
 Rotational temperatures (Kelvin)      0.14888     0.05670     0.04173
 Rotational constants (GHZ):           3.10208     1.18137     0.86955
 Zero-point vibrational energy     356472.7 (Joules/Mol)
                                   85.19902 (Kcal/Mol)
 Warning -- explicit consideration of  12 degrees of freedom as
           vibrations may cause significant error
 Vibrational temperatures:    102.36   141.84   191.69   212.17   274.79
          (Kelvin)            444.61   531.14   572.34   583.58   747.89
                              827.20   854.64  1097.11  1142.19  1147.76
                             1206.21  1329.91  1415.09  1466.65  1473.98
                             1525.97  1631.16  1664.85  1683.65  1719.51
                             1755.54  1789.20  1807.71  1880.96  1941.71
                             2021.96  2105.58  2116.46  2150.50  2185.66
                             2529.04  2566.19  4321.14  4347.57  4422.97
                             4442.12  4494.75  4523.76  5047.10  5309.46

 Zero-point correction=                           0.135773 (Hartree/Particle)
 Thermal correction to Energy=                    0.144617
 Thermal correction to Enthalpy=                  0.145561
 Thermal correction to Gibbs Free Energy=         0.101591
 Sum of electronic and zero-point Energies=           -455.169631
 Sum of electronic and thermal Energies=              -455.160787
 Sum of electronic and thermal Enthalpies=            -455.159843
 Sum of electronic and thermal Free Energies=         -455.203814

                     E (Thermal)             CV                S
                      KCal/Mol        Cal/Mol-Kelvin    Cal/Mol-Kelvin
 Total                   90.749             31.731             92.544
 Electronic               0.000              0.000              0.000
 Translational            0.889              2.981             40.455
 Rotational               0.889              2.981             29.002
 Vibrational             88.971             25.770             23.087
 Vibration     1          0.598              1.968              4.121
 Vibration     2          0.604              1.950              3.482
 Vibration     3          0.613              1.920              2.899
 Vibration     4          0.617              1.905              2.705
 Vibration     5          0.634              1.852              2.218
 Vibration     6          0.698              1.657              1.368
 Vibration     7          0.741              1.536              1.083
 Vibration     8          0.764              1.475              0.971
 Vibration     9          0.771              1.458              0.942
 Vibration    10          0.875              1.206              0.610
 Vibration    11          0.931              1.085              0.495
 Vibration    12          0.952              1.045              0.460

 Optimization completed.
    -- Stationary point found.
 Normal termination of Gaussian 16 at Tue Mar  9 01:58:23 2021.
