 Gaussian 16, Revision A.03,
 Gaussian 16:  ES64L-G16RevA.03 25-Dec-2016

 -----------------------------
 # opt freq b3lyp/6-31g(2df,p)
 -----------------------------

 -----
 Title
 -----
 Symbolic Z-matrix:
 Charge =  0 Multiplicity = 1

 SCF Done:  E(RB3LYP) =  -421.883982408     A.U. after   13 cycles
 SCF Done:  E(RB3LYP) =  -421.907465867     A.U. after   12 cycles
 SCF Done:  E(RB3LYP) =  -421.919218901     A.U. after   11 cycles
 SCF Done:  E(RB3LYP) =  -421.921252232     A.U. after   11 cycles
 SCF Done:  E(RB3LYP) =  -421.921489145     A.U. after   10 cycles
 SCF Done:  E(RB3LYP) =  -421.921612360     A.U. after   10 cycles
 SCF Done:  E(RB3LYP) =  -421.921624521     A.U. after    8 cycles
 SCF Done:  E(RB3LYP) =  -421.921631124     A.U. after    8 cycles
 SCF Done:  E(RB3LYP) =  -421.921634073     A.U. after    8 cycles
 SCF Done:  E(RB3LYP) =  -421.921637777     A.U. after    8 cycles
 SCF Done:  E(RB3LYP) =  -421.921640057     A.U. after    8 cycles
 SCF Done:  E(RB3LYP) =  -421.921640286     A.U. after    7 cycles
 Optimization completed.
    -- Stationary point found.
 Normal termination of Gaussian 16 at Thu Feb 18 10:41:07 2021.

 ----------------------------------------------------------------------
 #N Geom=AllCheck Guess=TCheck SCRF=Check GenChk RB3LYP/6-31G(2df,p) Fr
 eq
 ----------------------------------------------------------------------

 Structure from the checkpoint file:  "OC1CdCC2C3OC3C12.chk"
 -----
 Title
 -----
 Charge =  0 Multiplicity = 1

                         Standard orientation:
 ---------------------------------------------------------------------
 Center     Atomic      Atomic             Coordinates (Angstroms)
 Number     Number       Type             X           Y           Z
 ---------------------------------------------------------------------
      1          8           0       -1.709062   -1.474055   -0.407046
      2          6           0       -1.422082   -0.364663    0.447393
      3          6           0       -1.633023    0.983588   -0.210149
      4          6           0       -0.538743    1.741709   -0.199886
      5          6           0        0.642049    1.052911    0.425479
      6          6           0        1.574797    0.366624   -0.597999
      7          8           0        2.350975   -0.601778    0.108349
      8          6           0        1.014205   -0.954135   -0.280777
      9          6           0        0.080531   -0.375776    0.797084
     10          1           0       -2.651882   -1.467915   -0.599378
     11          1           0       -2.030816   -0.449006    1.361747
     12          1           0       -2.592496    1.270790   -0.630087
     13          1           0       -0.469384    2.740226   -0.619698
     14          1           0        1.150567    1.634634    1.199389
     15          1           0        1.983551    0.766505   -1.519369
     16          1           0        0.882834   -1.837879   -0.889650
     17          1           0        0.285914   -0.752243    1.799763
 ---------------------------------------------------------------------

 SCF Done:  E(RB3LYP) =  -421.921640286     A.U. after    1 cycles

 The electronic state is 1-A.
 Alpha  occ. eigenvalues --  -19.14436 -19.13989 -10.23896 -10.23155 -10.22899
 Alpha  occ. eigenvalues --  -10.19550 -10.19056 -10.18962 -10.18546  -1.07112
 Alpha  occ. eigenvalues --   -1.02037  -0.85007  -0.74548  -0.71215  -0.63009
 Alpha  occ. eigenvalues --   -0.62145  -0.56467  -0.53152  -0.51262  -0.50777
 Alpha  occ. eigenvalues --   -0.49217  -0.44248  -0.41233  -0.40201  -0.38961
 Alpha  occ. eigenvalues --   -0.36666  -0.34813  -0.33893  -0.32999  -0.28836
 Alpha  occ. eigenvalues --   -0.27194  -0.25661  -0.24614
 Alpha virt. eigenvalues --    0.00516   0.07545   0.09751   0.10962   0.12724
 Alpha virt. eigenvalues --    0.13287   0.14735   0.15301   0.15950   0.16955
 Alpha virt. eigenvalues --    0.17321   0.18358   0.19331   0.21510   0.24901

 Mulliken charges:
               1
     1  O   -0.431602
     2  C    0.067108
     3  C   -0.102866
     4  C   -0.085969
     5  C   -0.110164
     6  C    0.022742
     7  O   -0.256047
     8  C    0.051339
     9  C   -0.087632
    10  H    0.283666
    11  H    0.072286
    12  H    0.091698
    13  H    0.100129
    14  H    0.084300
    15  H    0.100391
    16  H    0.116064
    17  H    0.084558
 Sum of Mulliken charges =  -0.00000

 Dipole moment (field-independent basis, Debye):
    X=             -2.6529    Y=              1.3371    Z=             -0.4079  Tot=              2.9987
 Quadrupole moment (field-independent basis, Debye-Ang):
   XX=            -50.5305   YY=            -51.0876   ZZ=            -50.6702
   XY=              3.0173   XZ=             -1.0218   YZ=             -0.7367

  Exact polarizability:  83.365   4.784  74.290  -0.102  -2.604  57.621
 Approx polarizability: 126.478  13.394 115.375   1.907  -3.868  88.702

                      1                      2                      3
                      A                      A                      A
 Frequencies --    112.5399               201.7614               233.4415
 Red. masses --      3.6029                 4.6229                 1.1039
 Frc consts  --      0.0269                 0.1109                 0.0354
 IR Inten    --      0.7501                 1.9287               106.7867

                      4                      5                      6
                      A                      A                      A
 Frequencies --    264.7010               332.1370               463.0857
 Red. masses --      4.0619                 3.7097                 4.7518
 Frc consts  --      0.1677                 0.2411                 0.6004
 IR Inten    --      0.7674                 5.7124                 8.6945

                      7                      8                      9
                      A                      A                      A
 Frequencies --    484.5035               544.9676               658.6679
 Red. masses --      4.4228                 5.0111                 4.4452
 Frc consts  --      0.6117                 0.8768                 1.1362
 IR Inten    --      6.2824                 5.3831                 8.4576

                     10                     11                     12
                      A                      A                      A
 Frequencies --    748.2170               812.6651               832.1438
 Red. masses --      1.9159                 2.9537                 2.4865
 Frc consts  --      0.6319                 1.1493                 1.0145
 IR Inten    --     15.0400                15.2763                 7.6125

                     13                     14                     15
                      A                      A                      A
 Frequencies --    839.4859               870.0136               873.9113
 Red. masses --      2.7951                 3.6779                 2.6290
 Frc consts  --      1.1606                 1.6402                 1.1830
 IR Inten    --      9.9710                14.1132                13.7064

                     16                     17                     18
                      A                      A                      A
 Frequencies --    897.1484               957.9686               973.6750
 Red. masses --      2.6632                 2.1473                 1.4763
 Frc consts  --      1.2629                 1.1610                 0.8246
 IR Inten    --      3.6603                12.0826                 4.6384

                     19                     20                     21
                      A                      A                      A
 Frequencies --    990.6060              1007.7177              1029.8872
 Red. masses --      1.9254                 2.2780                 2.2746
 Frc consts  --      1.1132                 1.3629                 1.4215
 IR Inten    --     19.4078                 6.7010                 4.6872

                     22                     23                     24
                      A                      A                      A
 Frequencies --   1065.1029              1076.5254              1088.5457
 Red. masses --      1.8574                 1.5599                 2.8568
 Frc consts  --      1.2415                 1.0651                 1.9945
 IR Inten    --      5.5572                20.5412                54.2290

                     25                     26                     27
                      A                      A                      A
 Frequencies --   1132.5264              1186.9292              1207.0859
 Red. masses --      1.2873                 1.6660                 1.1738
 Frc consts  --      0.9728                 1.3828                 1.0076
 IR Inten    --     26.6143                 7.4767                 6.7873

                     28                     29                     30
                      A                      A                      A
 Frequencies --   1215.1469              1224.2240              1251.1797
 Red. masses --      1.3957                 1.2149                 1.4235
 Frc consts  --      1.2142                 1.0728                 1.3130
 IR Inten    --      5.5208                16.4827                 5.1742

                     31                     32                     33
                      A                      A                      A
 Frequencies --   1291.1771              1315.5573              1341.6059
 Red. masses --      1.5738                 1.6879                 1.3656
 Frc consts  --      1.5459                 1.7212                 1.4482
 IR Inten    --      0.8220                29.6235                13.0170

                     34                     35                     36
                      A                      A                      A
 Frequencies --   1371.3167              1386.2936              1413.6975
 Red. masses --      2.5105                 2.3703                 1.4745
 Frc consts  --      2.7815                 2.6839                 1.7362
 IR Inten    --     19.6880                22.6652                 6.6942

                     37                     38                     39
                      A                      A                      A
 Frequencies --   1687.1959              2963.2467              3070.6438
 Red. masses --      6.6029                 1.0829                 1.0855
 Frc consts  --     11.0742                 5.6024                 6.0303
 IR Inten    --      1.8464                61.7630                26.6952

                     40                     41                     42
                      A                      A                      A
 Frequencies --   3104.2780              3166.8478              3177.6151
 Red. masses --      1.0876                 1.0841                 1.0915
 Frc consts  --      6.1753                 6.4057                 6.4934
 IR Inten    --     29.7221                 7.8686                21.3139

                     43                     44                     45
                      A                      A                      A
 Frequencies --   3193.1018              3221.6404              3821.3383
 Red. masses --      1.1035                 1.0968                 1.0663
 Frc consts  --      6.6291                 6.7071                 9.1744
 IR Inten    --     24.5045                 8.8171                23.6437

 - Thermochemistry -
 -------------------
 Temperature   298.150 Kelvin.  Pressure   1.00000 Atm.
 Atom     1 has atomic number  8 and mass  15.99491

 Molecular mass:   124.05243 amu.
 Principal axes and moments of inertia in atomic units:
                           1         2         3
     Eigenvalues --   602.088341065.845521438.51959
           X            0.99990   0.01320  -0.00497
           Y           -0.01326   0.99985  -0.01100
           Z            0.00482   0.01107   0.99993
 This molecule is an asymmetric top.
 Rotational symmetry number  1.
 Warning -- assumption of classical behavior for rotation
           may cause significant error
 Rotational temperatures (Kelvin)      0.14386     0.08126     0.06021
 Rotational constants (GHZ):           2.99747     1.69325     1.25458
 Zero-point vibrational energy     359490.2 (Joules/Mol)
                                   85.92022 (Kcal/Mol)
 Warning -- explicit consideration of   8 degrees of freedom as
           vibrations may cause significant error
 Vibrational temperatures:    161.92   290.29   335.87   380.85   477.87
          (Kelvin)            666.28   697.09   784.09   947.68  1076.52
                             1169.24  1197.27  1207.83  1251.76  1257.36
                             1290.80  1378.30  1400.90  1425.26  1449.88
                             1481.78  1532.45  1548.88  1566.17  1629.45
                             1707.73  1736.73  1748.33  1761.39  1800.17
                             1857.72  1892.79  1930.27  1973.02  1994.57
                             2034.00  2427.50  4263.45  4417.97  4466.36
                             4556.39  4571.88  4594.16  4635.22  5498.05

 Zero-point correction=                           0.136923 (Hartree/Particle)
 Thermal correction to Energy=                    0.144106
 Thermal correction to Enthalpy=                  0.145050
 Thermal correction to Gibbs Free Energy=         0.105395
 Sum of electronic and zero-point Energies=           -421.784718
 Sum of electronic and thermal Energies=              -421.777534
 Sum of electronic and thermal Enthalpies=            -421.776590
 Sum of electronic and thermal Free Energies=         -421.816245

                     E (Thermal)             CV                S
                      KCal/Mol        Cal/Mol-Kelvin    Cal/Mol-Kelvin
 Total                   90.428             28.546             83.460
 Electronic               0.000              0.000              0.000
 Translational            0.889              2.981             40.360
 Rotational               0.889              2.981             28.314
 Vibrational             88.650             22.584             14.786
 Vibration     1          0.607              1.939              3.225
 Vibration     2          0.639              1.837              2.117
 Vibration     3          0.654              1.790              1.852
 Vibration     4          0.671              1.738              1.631
 Vibration     5          0.714              1.611              1.250
 Vibration     6          0.821              1.332              0.757
 Vibration     7          0.841              1.284              0.698
 Vibration     8          0.900              1.151              0.555

 Optimization completed.
    -- Stationary point found.
 Normal termination of Gaussian 16 at Thu Feb 18 11:08:45 2021.
