 Gaussian 16, Revision A.03,
 Gaussian 16:  ES64L-G16RevA.03 25-Dec-2016

 -----------------------------
 # opt freq b3lyp/6-31g(2df,p)
 -----------------------------

 -----
 Title
 -----
 Symbolic Z-matrix:
 Charge =  0 Multiplicity = 1

 SCF Done:  E(RB3LYP) =  -424.337065034     A.U. after   13 cycles
 SCF Done:  E(RB3LYP) =  -424.347402222     A.U. after   11 cycles
 SCF Done:  E(RB3LYP) =  -424.349031781     A.U. after   11 cycles
 SCF Done:  E(RB3LYP) =  -424.349801320     A.U. after   11 cycles
 SCF Done:  E(RB3LYP) =  -424.350009388     A.U. after   11 cycles
 SCF Done:  E(RB3LYP) =  -424.350023854     A.U. after    8 cycles
 SCF Done:  E(RB3LYP) =  -424.350026579     A.U. after    8 cycles
 SCF Done:  E(RB3LYP) =  -424.350027610     A.U. after    7 cycles
 SCF Done:  E(RB3LYP) =  -424.350027923     A.U. after    7 cycles
 Optimization completed.
    -- Stationary point found.
 Normal termination of Gaussian 16 at Thu Feb 18 11:01:02 2021.

 ----------------------------------------------------------------------
 #N Geom=AllCheck Guess=TCheck SCRF=Check GenChk RB3LYP/6-31G(2df,p) Fr
 eq
 ----------------------------------------------------------------------

 Structure from the checkpoint file:  "OCC1CCdCCOC1.chk"
 -----
 Title
 -----
 Charge =  0 Multiplicity = 1

                         Standard orientation:
 ---------------------------------------------------------------------
 Center     Atomic      Atomic             Coordinates (Angstroms)
 Number     Number       Type             X           Y           Z
 ---------------------------------------------------------------------
      1          8           0        2.711522   -0.759813   -0.298283
      2          6           0        1.770697    0.249173   -0.627367
      3          6           0        0.803532    0.578144    0.520554
      4          6           0       -0.090921    1.826672    0.139577
      5          6           0       -1.477107    1.252567    0.145993
      6          6           0       -1.795085    0.350930   -0.789362
      7          6           0       -2.028972   -1.036784   -0.272119
      8          8           0       -0.693054   -1.494420    0.033071
      9          6           0        0.056820   -0.734272    0.985966
     10          1           0        3.294116   -0.408069    0.382640
     11          1           0        2.274704    1.171003   -0.956753
     12          1           0        1.204480   -0.140930   -1.479090
     13          1           0        1.412592    0.849415    1.396136
     14          1           0        0.192729    2.192299   -0.853984
     15          1           0        0.055196    2.645770    0.849000
     16          1           0       -1.941056    1.160015    1.127966
     17          1           0       -1.293394    0.392782   -1.756639
     18          1           0       -2.413104   -1.759420   -0.995780
     19          1           0       -2.661327   -1.045981    0.627081
     20          1           0        0.848996   -1.423094    1.289593
     21          1           0       -0.555467   -0.518504    1.872075
 ---------------------------------------------------------------------

 SCF Done:  E(RB3LYP) =  -424.350027923     A.U. after    1 cycles

 The electronic state is 1-A.
 Alpha  occ. eigenvalues --  -19.13708 -19.13659 -10.23040 -10.22522 -10.22497
 Alpha  occ. eigenvalues --  -10.19643 -10.19419 -10.18409 -10.17437  -1.02030
 Alpha  occ. eigenvalues --   -1.01508  -0.81880  -0.77859  -0.69680  -0.67444
 Alpha  occ. eigenvalues --   -0.63748  -0.56537  -0.54827  -0.50474  -0.47680
 Alpha  occ. eigenvalues --   -0.47061  -0.46949  -0.45074  -0.42085  -0.41230
 Alpha  occ. eigenvalues --   -0.39230  -0.38130  -0.36144  -0.35310  -0.33410
 Alpha  occ. eigenvalues --   -0.32471  -0.29692  -0.27395  -0.25440  -0.22483
 Alpha virt. eigenvalues --   -0.01480   0.07123   0.09497   0.10166   0.11533
 Alpha virt. eigenvalues --    0.12997   0.13666   0.14912   0.15735   0.16605
 Alpha virt. eigenvalues --    0.17843   0.17902   0.19418   0.20968   0.21781

 Mulliken charges:
               1
     1  O   -0.416220
     2  C   -0.059598
     3  C   -0.018627
     4  C   -0.282443
     5  C   -0.066349
     6  C   -0.078696
     7  C   -0.113110
     8  O   -0.256787
     9  C   -0.057589
    10  H    0.280513
    11  H    0.085367
    12  H    0.124038
    13  H    0.065038
    14  H    0.109489
    15  H    0.098690
    16  H    0.091271
    17  H    0.089368
    18  H    0.109276
    19  H    0.095016
    20  H    0.116889
    21  H    0.084465
 Sum of Mulliken charges =  -0.00000

 Dipole moment (field-independent basis, Debye):
    X=              0.4146    Y=              1.9091    Z=              1.4563  Tot=              2.4367
 Quadrupole moment (field-independent basis, Debye-Ang):
   XX=            -52.9749   YY=            -58.7610   ZZ=            -52.3605
   XY=              5.0537   XZ=              2.6705   YZ=             -0.2000

  Exact polarizability:  87.639   5.215  80.738   3.822   3.201  74.000
 Approx polarizability: 119.717   5.475 127.665   9.031  13.377 120.873

                      1                      2                      3
                      A                      A                      A
 Frequencies --     71.9957               142.4421               182.2392
 Red. masses --      4.3853                 2.4674                 3.6182
 Frc consts  --      0.0134                 0.0295                 0.0708
 IR Inten    --      0.1027                 3.9353                 1.3033

                      4                      5                      6
                      A                      A                      A
 Frequencies --    285.4873               299.0298               327.1654
 Red. masses --      2.1051                 2.0189                 2.2780
 Frc consts  --      0.1011                 0.1064                 0.1437
 IR Inten    --      1.0351                17.8177                31.1121

                      7                      8                      9
                      A                      A                      A
 Frequencies --    332.8526               344.6117               421.7201
 Red. masses --      1.5877                 2.4728                 2.6872
 Frc consts  --      0.1036                 0.1730                 0.2816
 IR Inten    --     87.4115                 0.3052                 1.4061

                     10                     11                     12
                      A                      A                      A
 Frequencies --    504.2256               511.2163               534.6699
 Red. masses --      2.9391                 3.6628                 2.2764
 Frc consts  --      0.4403                 0.5640                 0.3834
 IR Inten    --      9.7713                 5.1896                 5.8237

                     13                     14                     15
                      A                      A                      A
 Frequencies --    663.8736               739.0626               830.0564
 Red. masses --      2.8070                 3.6827                 1.8648
 Frc consts  --      0.7289                 1.1852                 0.7570
 IR Inten    --      6.5529                 1.6536                73.3325

                     16                     17                     18
                      A                      A                      A
 Frequencies --    851.6552               882.7170               914.7262
 Red. masses --      2.5693                 2.1534                 2.3808
 Frc consts  --      1.0980                 0.9886                 1.1737
 IR Inten    --     21.3508                10.4182                 8.7979

                     19                     20                     21
                      A                      A                      A
 Frequencies --    948.6588               981.0768              1019.9990
 Red. masses --      2.0010                 2.1201                 2.2425
 Frc consts  --      1.0610                 1.2023                 1.3746
 IR Inten    --     13.1978                19.8638                39.8201

                     22                     23                     24
                      A                      A                      A
 Frequencies --   1039.9373              1050.0309              1055.1362
 Red. masses --      2.6007                 1.4307                 2.6744
 Frc consts  --      1.6571                 0.9294                 1.7543
 IR Inten    --     39.7956                24.4775                81.0975

                     25                     26                     27
                      A                      A                      A
 Frequencies --   1092.3155              1105.4928              1126.5269
 Red. masses --      3.4995                 2.3796                 1.4586
 Frc consts  --      2.4601                 1.7134                 1.0906
 IR Inten    --     35.9059                27.0084                12.0636

                     28                     29                     30
                      A                      A                      A
 Frequencies --   1170.9130              1228.8053              1236.1488
 Red. masses --      1.4513                 1.3307                 1.2319
 Frc consts  --      1.1723                 1.1839                 1.1091
 IR Inten    --      1.8820                16.1822                10.9281

                     31                     32                     33
                      A                      A                      A
 Frequencies --   1270.5279              1304.7692              1320.1565
 Red. masses --      1.2650                 1.2010                 1.2257
 Frc consts  --      1.2031                 1.2046                 1.2586
 IR Inten    --      1.5097                 3.8117                 3.5684

                     34                     35                     36
                      A                      A                      A
 Frequencies --   1329.0825              1348.5130              1352.9318
 Red. masses --      1.2217                 1.2528                 1.3267
 Frc consts  --      1.2715                 1.3423                 1.4308
 IR Inten    --      0.7266                 3.0663                13.9446

                     37                     38                     39
                      A                      A                      A
 Frequencies --   1367.3887              1392.6623              1406.0976
 Red. masses --      1.2902                 1.2603                 1.2019
 Frc consts  --      1.4213                 1.4402                 1.4000
 IR Inten    --      3.1838                 2.4137                18.8071

                     40                     41                     42
                      A                      A                      A
 Frequencies --   1417.3371              1479.6170              1488.9342
 Red. masses --      1.2495                 1.0795                 1.0998
 Frc consts  --      1.4789                 1.3924                 1.4365
 IR Inten    --     22.5595                 5.4911                 2.3161

                     43                     44                     45
                      A                      A                      A
 Frequencies --   1496.2806              1497.3550              1671.4291
 Red. masses --      1.0920                 1.0945                 5.7494
 Frc consts  --      1.4405                 1.4458                 9.4634
 IR Inten    --      0.3670                 6.0417                 8.0415

                     46                     47                     48
                      A                      A                      A
 Frequencies --   2980.5367              2987.7635              3003.7178
 Red. masses --      1.0734                 1.0779                 1.0665
 Frc consts  --      5.6183                 5.6692                 5.6695
 IR Inten    --     49.3419                31.7146                57.8707

                     49                     50                     51
                      A                      A                      A
 Frequencies --   3010.2221              3037.1616              3085.1429
 Red. masses --      1.0702                 1.0607                 1.0952
 Frc consts  --      5.7135                 5.7648                 6.1420
 IR Inten    --     55.9009                40.1854                 3.1603

                     52                     53                     54
                      A                      A                      A
 Frequencies --   3087.1970              3098.8864              3100.7132
 Red. masses --      1.0986                 1.0941                 1.0952
 Frc consts  --      6.1691                 6.1903                 6.2041
 IR Inten    --     40.8361                20.4177                23.2628

                     55                     56                     57
                      A                      A                      A
 Frequencies --   3118.7405              3123.7376              3811.5844
 Red. masses --      1.0913                 1.0877                 1.0661
 Frc consts  --      6.2537                 6.2532                 9.1257
 IR Inten    --      4.9520                56.8405                19.9525

 - Thermochemistry -
 -------------------
 Temperature   298.150 Kelvin.  Pressure   1.00000 Atm.
 Atom     1 has atomic number  8 and mass  15.99491

 Molecular mass:   128.08373 amu.
 Principal axes and moments of inertia in atomic units:
                           1         2         3
     Eigenvalues --   710.589471328.690561699.22424
           X            0.99935   0.03598  -0.00002
           Y           -0.03598   0.99934  -0.00537
           Z           -0.00018   0.00536   0.99999
 This molecule is an asymmetric top.
 Rotational symmetry number  1.
 Warning -- assumption of classical behavior for rotation
           may cause significant error
 Rotational temperatures (Kelvin)      0.12189     0.06519     0.05097
 Rotational constants (GHZ):           2.53978     1.35829     1.06210
 Zero-point vibrational energy     481396.9 (Joules/Mol)
                                  115.05662 (Kcal/Mol)
 Warning -- explicit consideration of  12 degrees of freedom as
           vibrations may cause significant error
 Vibrational temperatures:    103.59   204.94   262.20   410.75   430.24
          (Kelvin)            470.72   478.90   495.82   606.76   725.47
                              735.53   769.27   955.17  1063.35  1194.27
                             1225.34  1270.03  1316.09  1364.91  1411.55
                             1467.55  1496.24  1510.76  1518.11  1571.60
                             1590.56  1620.82  1684.68  1767.98  1778.54
                             1828.01  1877.27  1899.41  1912.25  1940.21
                             1946.57  1967.37  2003.73  2023.06  2039.23
                             2128.84  2142.24  2152.81  2154.36  2404.81
                             4288.33  4298.73  4321.68  4331.04  4369.80
                             4438.83  4441.79  4458.61  4461.23  4487.17
                             4494.36  5484.02

 Zero-point correction=                           0.183354 (Hartree/Particle)
 Thermal correction to Energy=                    0.192059
 Thermal correction to Enthalpy=                  0.193003
 Thermal correction to Gibbs Free Energy=         0.150132
 Sum of electronic and zero-point Energies=           -424.166674
 Sum of electronic and thermal Energies=              -424.157969
 Sum of electronic and thermal Enthalpies=            -424.157025
 Sum of electronic and thermal Free Energies=         -424.199896

                     E (Thermal)             CV                S
                      KCal/Mol        Cal/Mol-Kelvin    Cal/Mol-Kelvin
 Total                  120.519             33.992             90.230
 Electronic               0.000              0.000              0.000
 Translational            0.889              2.981             40.456
 Rotational               0.889              2.981             28.863
 Vibrational            118.741             28.031             20.911
 Vibration     1          0.598              1.967              4.098
 Vibration     2          0.616              1.911              2.771
 Vibration     3          0.630              1.864              2.305
 Vibration     4          0.683              1.701              1.501
 Vibration     5          0.692              1.676              1.422
 Vibration     6          0.711              1.621              1.274
 Vibration     7          0.715              1.610              1.246
 Vibration     8          0.723              1.586              1.191
 Vibration     9          0.784              1.423              0.886
 Vibration    10          0.860              1.241              0.648
 Vibration    11          0.866              1.225              0.631
 Vibration    12          0.890              1.173              0.577

 Optimization completed.
    -- Stationary point found.
 Normal termination of Gaussian 16 at Thu Feb 18 11:40:53 2021.
