 Gaussian 16, Revision A.03,
 Gaussian 16:  ES64L-G16RevA.03 25-Dec-2016

 -----------------------------------------------
 # opt freq b3lyp/6-31g(2df,p) geom=connectivity
 -----------------------------------------------

 -------------------
 Title Card Required
 -------------------
 Symbolic Z-matrix:
 Charge =  0 Multiplicity = 1

 SCF Done:  E(RB3LYP) =  -425.482185294     A.U. after   12 cycles
 SCF Done:  E(RB3LYP) =  -425.543154636     A.U. after   11 cycles
 SCF Done:  E(RB3LYP) =  -425.586367627     A.U. after   11 cycles
 SCF Done:  E(RB3LYP) =  -425.610465563     A.U. after   11 cycles
 SCF Done:  E(RB3LYP) =  -425.622863132     A.U. after   11 cycles
 SCF Done:  E(RB3LYP) =  -425.628838257     A.U. after   10 cycles
 SCF Done:  E(RB3LYP) =  -425.633203257     A.U. after   11 cycles
 SCF Done:  E(RB3LYP) =  -425.633691041     A.U. after    9 cycles
 SCF Done:  E(RB3LYP) =  -425.633863687     A.U. after    9 cycles
 SCF Done:  E(RB3LYP) =  -425.633918751     A.U. after    9 cycles
 SCF Done:  E(RB3LYP) =  -425.634006152     A.U. after   10 cycles
 SCF Done:  E(RB3LYP) =  -425.634030238     A.U. after    9 cycles
 SCF Done:  E(RB3LYP) =  -425.634033672     A.U. after    7 cycles
 SCF Done:  E(RB3LYP) =  -425.634034234     A.U. after    7 cycles
 SCF Done:  E(RB3LYP) =  -425.634034594     A.U. after    7 cycles
 SCF Done:  E(RB3LYP) =  -425.634034760     A.U. after    7 cycles
 Optimization completed.
    -- Stationary point found.
 Normal termination of Gaussian 16 at Thu Feb 18 00:52:39 2021.

 ----------------------------------------------------------------------
 #N Geom=AllCheck Guess=TCheck SCRF=Check GenChk RB3LYP/6-31G(2df,p) Fr
 eq
 ----------------------------------------------------------------------

 Structure from the checkpoint file:  "OCC1CCCOCC1.chk"
 -------------------
 Title Card Required
 -------------------
 Charge =  0 Multiplicity = 1

                         Standard orientation:
 ---------------------------------------------------------------------
 Center     Atomic      Atomic             Coordinates (Angstroms)
 Number     Number       Type             X           Y           Z
 ---------------------------------------------------------------------
      1          6           0        0.331105   -0.962585    0.628174
      2          1           0        1.173243   -1.660023    0.677676
      3          1           0        0.112699   -0.666913    1.662715
      4          6           0        0.757671    0.290897   -0.160714
      5          1           0        0.646769    0.090458   -1.234610
      6          6           0       -0.094616    1.518235    0.216307
      7          1           0        0.354603    2.420484   -0.218682
      8          1           0       -0.041581    1.650516    1.306796
      9          6           0       -1.567103    1.460739   -0.213950
     10          1           0       -2.095401    2.328449    0.202240
     11          1           0       -1.635838    1.543949   -1.305552
     12          6           0       -2.317905    0.186412    0.182954
     13          1           0       -3.382491    0.305962   -0.051045
     14          1           0       -2.244874   -0.002160    1.265187
     15          8           0       -1.867026   -0.927426   -0.567722
     16          6           0       -0.859718   -1.725876    0.029411
     17          1           0       -0.511717   -2.374439   -0.781622
     18          1           0       -1.297846   -2.377522    0.803922
     19          6           0        2.236485    0.600264    0.082842
     20          1           0        2.512302    1.519400   -0.457965
     21          1           0        2.402695    0.789251    1.157097
     22          8           0        3.012207   -0.501989   -0.367585
     23          1           0        3.930483   -0.340613   -0.133849
 ---------------------------------------------------------------------

 SCF Done:  E(RB3LYP) =  -425.634034760     A.U. after    1 cycles

 The electronic state is 1-A.
 Alpha  occ. eigenvalues --  -19.13402 -19.12515 -10.22338 -10.21911 -10.21700
 Alpha  occ. eigenvalues --  -10.18113 -10.17857 -10.17542 -10.17018  -1.01783
 Alpha  occ. eigenvalues --   -1.01441  -0.80760  -0.77000  -0.70369  -0.67180
 Alpha  occ. eigenvalues --   -0.62464  -0.56896  -0.55214  -0.50624  -0.48932
 Alpha  occ. eigenvalues --   -0.47489  -0.45073  -0.44314  -0.42140  -0.40889
 Alpha  occ. eigenvalues --   -0.39965  -0.39151  -0.35558  -0.34498  -0.34179
 Alpha  occ. eigenvalues --   -0.32147  -0.31844  -0.30603  -0.28930  -0.26636
 Alpha  occ. eigenvalues --   -0.23921
 Alpha virt. eigenvalues --    0.07540   0.09249   0.10614   0.11399   0.12833
 Alpha virt. eigenvalues --    0.14427   0.15318   0.15769   0.16175   0.16588
 Alpha virt. eigenvalues --    0.17053   0.18953   0.19465   0.20468   0.20813

 Mulliken charges:
               1
     1  C   -0.231688
     2  H    0.116123
     3  H    0.087691
     4  C    0.050319
     5  H    0.088458
     6  C   -0.201777
     7  H    0.088827
     8  H    0.090042
     9  C   -0.199711
    10  H    0.087274
    11  H    0.105970
    12  C   -0.070349
    13  H    0.099779
    14  H    0.085088
    15  O   -0.243798
    16  C   -0.077625
    17  H    0.109888
    18  H    0.082366
    19  C   -0.093921
    20  H    0.083476
    21  H    0.080365
    22  O   -0.423432
    23  H    0.286634
 Sum of Mulliken charges =  -0.00000

 Dipole moment (field-independent basis, Debye):
    X=              1.3304    Y=              1.3877    Z=              1.5150  Tot=              2.4476
 Quadrupole moment (field-independent basis, Debye-Ang):
   XX=            -50.8945   YY=            -56.0348   ZZ=            -57.0228
   XY=              0.0362   XZ=             -0.2059   YZ=             -1.4512

  Exact polarizability:  92.514  -2.317  84.217  -0.481  -0.830  69.308
 Approx polarizability: 115.289  -3.686 115.467  -0.245   1.149 111.358

                      1                      2                      3
                      A                      A                      A
 Frequencies --     88.8454               127.7645               147.5007
 Red. masses --      3.7584                 3.0777                 2.3316
 Frc consts  --      0.0175                 0.0296                 0.0299
 IR Inten    --      1.1186                 4.0910                 2.3301

                      4                      5                      6
                      A                      A                      A
 Frequencies --    208.4871               240.7557               259.1424
 Red. masses --      2.2279                 1.3371                 1.9632
 Frc consts  --      0.0571                 0.0457                 0.0777
 IR Inten    --     18.2946                47.4050                26.9858

                      7                      8                      9
                      A                      A                      A
 Frequencies --    273.9221               355.7064               378.8206
 Red. masses --      2.4798                 3.7632                 2.4079
 Frc consts  --      0.1096                 0.2805                 0.2036
 IR Inten    --     11.7857                 0.5847                 2.2833

                     10                     11                     12
                      A                      A                      A
 Frequencies --    426.8153               463.4471               521.0854
 Red. masses --      2.0271                 3.7747                 1.7461
 Frc consts  --      0.2176                 0.4777                 0.2793
 IR Inten    --      4.4595                 4.5647                 7.9140

                     13                     14                     15
                      A                      A                      A
 Frequencies --    591.0771               786.7499               809.1303
 Red. masses --      2.5156                 2.5667                 1.6858
 Frc consts  --      0.5178                 0.9361                 0.6503
 IR Inten    --      3.7995                 3.8413                 3.5839

                     16                     17                     18
                      A                      A                      A
 Frequencies --    860.4994               885.2336               897.3484
 Red. masses --      2.1410                 1.5407                 2.9588
 Frc consts  --      0.9341                 0.7114                 1.4038
 IR Inten    --      0.7547                 3.7742                 6.3237

                     19                     20                     21
                      A                      A                      A
 Frequencies --    915.9672               977.6309              1032.3112
 Red. masses --      2.1131                 1.5871                 2.6848
 Frc consts  --      1.0446                 0.8937                 1.6857
 IR Inten    --      3.7056                 2.7627                 7.7160

                     22                     23                     24
                      A                      A                      A
 Frequencies --   1035.6905              1052.9692              1063.0339
 Red. masses --      1.4029                 2.7762                 2.1734
 Frc consts  --      0.8866                 1.8136                 1.4470
 IR Inten    --     13.2512                19.9946                25.8605

                     25                     26                     27
                      A                      A                      A
 Frequencies --   1094.4958              1120.1793              1141.9416
 Red. masses --      3.3813                 2.4786                 2.2457
 Frc consts  --      2.3865                 1.8325                 1.7254
 IR Inten    --     77.6337                19.5181                14.7104

                     28                     29                     30
                      A                      A                      A
 Frequencies --   1175.4807              1207.0144              1245.9746
 Red. masses --      3.3202                 1.2589                 1.1751
 Frc consts  --      2.7030                 1.0806                 1.0748
 IR Inten    --     70.5369                18.3134                22.4235

                     31                     32                     33
                      A                      A                      A
 Frequencies --   1249.6518              1269.9289              1282.6223
 Red. masses --      1.3833                 1.2974                 1.1351
 Frc consts  --      1.2727                 1.2327                 1.1002
 IR Inten    --      1.1963                34.8265                 8.0086

                     34                     35                     36
                      A                      A                      A
 Frequencies --   1285.5504              1326.0606              1329.4848
 Red. masses --      1.2728                 1.2381                 1.2039
 Frc consts  --      1.2393                 1.2827                 1.2538
 IR Inten    --      4.4912                11.8572                 5.7926

                     37                     38                     39
                      A                      A                      A
 Frequencies --   1348.8128              1384.6138              1391.1571
 Red. masses --      1.2409                 1.3790                 1.3730
 Frc consts  --      1.3302                 1.5576                 1.5656
 IR Inten    --      1.3481                 0.8705                 0.6213

                     40                     41                     42
                      A                      A                      A
 Frequencies --   1397.5744              1407.5737              1424.3422
 Red. masses --      1.3276                 1.4540                 1.2974
 Frc consts  --      1.5278                 1.6973                 1.5508
 IR Inten    --      5.5144                 7.4579                 7.7340

                     43                     44                     45
                      A                      A                      A
 Frequencies --   1455.0147              1473.0943              1484.5314
 Red. masses --      1.4266                 1.0879                 1.0880
 Frc consts  --      1.7794                 1.3909                 1.4127
 IR Inten    --      5.4616                 1.9688                 2.4401

                     46                     47                     48
                      A                      A                      A
 Frequencies --   1492.8021              1500.8542              1513.2686
 Red. masses --      1.0919                 1.0804                 1.0935
 Frc consts  --      1.4336                 1.4339                 1.4754
 IR Inten    --      1.6237                 1.8227                 4.2122

                     49                     50                     51
                      A                      A                      A
 Frequencies --   1519.6800              2954.2786              2961.8153
 Red. masses --      1.0842                 1.0571                 1.0716
 Frc consts  --      1.4752                 5.4358                 5.5387
 IR Inten    --      2.9032                48.1224                80.2029

                     52                     53                     54
                      A                      A                      A
 Frequencies --   2985.9794              2986.8160              2999.1298
 Red. masses --      1.0693                 1.0971                 1.0634
 Frc consts  --      5.6173                 5.7663                 5.6357
 IR Inten    --     18.6973                66.8433                25.4842

                     55                     56                     57
                      A                      A                      A
 Frequencies --   3017.4435              3018.4304              3029.6804
 Red. masses --      1.0668                 1.0692                 1.0797
 Frc consts  --      5.7230                 5.7393                 5.8390
 IR Inten    --     15.9681                 9.3672                33.7801

                     58                     59                     60
                      A                      A                      A
 Frequencies --   3043.4991              3051.6866              3062.3886
 Red. masses --      1.0960                 1.0955                 1.0896
 Frc consts  --      5.9812                 6.0112                 6.0205
 IR Inten    --     54.4152                69.9986                16.8907

                     61                     62                     63
                      A                      A                      A
 Frequencies --   3066.3829              3085.6669              3835.4721
 Red. masses --      1.1018                 1.0959                 1.0665
 Frc consts  --      6.1037                 6.1475                 9.2434
 IR Inten    --     60.6604                32.5752                24.0365

 - Thermochemistry -
 -------------------
 Temperature   298.150 Kelvin.  Pressure   1.00000 Atm.
 Atom     1 has atomic number  6 and mass  12.00000

 Molecular mass:   130.09938 amu.
 Principal axes and moments of inertia in atomic units:
                           1         2         3
     Eigenvalues --   659.091781621.522982090.28702
           X            0.99999  -0.00346  -0.00107
           Y            0.00345   0.99988  -0.01510
           Z            0.00112   0.01510   0.99989
 This molecule is an asymmetric top.
 Rotational symmetry number  1.
 Warning -- assumption of classical behavior for rotation
           may cause significant error
 Rotational temperatures (Kelvin)      0.13141     0.05342     0.04144
 Rotational constants (GHZ):           2.73822     1.11299     0.86339
 Zero-point vibrational energy     544422.3 (Joules/Mol)
                                  130.12006 (Kcal/Mol)
 Warning -- explicit consideration of  13 degrees of freedom as
           vibrations may cause significant error
 Vibrational temperatures:    127.83   183.82   212.22   299.97   346.39
          (Kelvin)            372.85   394.11   511.78   545.04   614.09
                              666.80   749.73   850.43  1131.96  1164.16
                             1238.07  1273.65  1291.08  1317.87  1406.59
                             1485.27  1490.13  1514.99  1529.47  1574.74
                             1611.69  1643.00  1691.25  1736.62  1792.68
                             1797.97  1827.14  1845.41  1849.62  1907.91
                             1912.83  1940.64  1992.15  2001.56  2010.80
                             2025.18  2049.31  2093.44  2119.45  2135.91
                             2147.81  2159.39  2177.26  2186.48  4250.55
                             4261.39  4296.16  4297.36  4315.08  4341.43
                             4342.85  4359.03  4378.92  4390.70  4406.09
                             4411.84  4439.59  5518.39

 Zero-point correction=                           0.207360 (Hartree/Particle)
 Thermal correction to Energy=                    0.216667
 Thermal correction to Enthalpy=                  0.217611
 Thermal correction to Gibbs Free Energy=         0.173368
 Sum of electronic and zero-point Energies=           -425.426675
 Sum of electronic and thermal Energies=              -425.417368
 Sum of electronic and thermal Enthalpies=            -425.416423
 Sum of electronic and thermal Free Energies=         -425.460667

                     E (Thermal)             CV                S
                      KCal/Mol        Cal/Mol-Kelvin    Cal/Mol-Kelvin
 Total                  135.961             35.499             93.118
 Electronic               0.000              0.000              0.000
 Translational            0.889              2.981             40.502
 Rotational               0.889              2.981             29.192
 Vibrational            134.183             29.537             23.423
 Vibration     1          0.602              1.957              3.685
 Vibration     2          0.611              1.925              2.979
 Vibration     3          0.617              1.905              2.704
 Vibration     4          0.642              1.828              2.057
 Vibration     5          0.658              1.778              1.797
 Vibration     6          0.668              1.747              1.668
 Vibration     7          0.676              1.721              1.571
 Vibration     8          0.731              1.564              1.141
 Vibration     9          0.749              1.515              1.044
 Vibration    10          0.788              1.412              0.869
 Vibration    11          0.821              1.331              0.756
 Vibration    12          0.876              1.203              0.607
 Vibration    13          0.948              1.051              0.465

 Optimization completed.
    -- Stationary point found.
 Normal termination of Gaussian 16 at Thu Feb 18 01:47:35 2021.
