 Gaussian 16, Revision A.03,
 Gaussian 16:  ES64L-G16RevA.03 25-Dec-2016

 -----------------------------
 # opt freq b3lyp/6-31g(2df,p)
 -----------------------------

 -------------------
 Title Card Required
 -------------------
 Symbolic Z-matrix:
 Charge =  0 Multiplicity = 1

 SCF Done:  E(RB3LYP) =  -386.000942478     A.U. after   13 cycles
 SCF Done:  E(RB3LYP) =  -386.033101721     A.U. after   13 cycles
 SCF Done:  E(RB3LYP) =  -386.048222712     A.U. after   13 cycles
 SCF Done:  E(RB3LYP) =  -386.051017231     A.U. after   13 cycles
 SCF Done:  E(RB3LYP) =  -386.052313033     A.U. after   13 cycles
 SCF Done:  E(RB3LYP) =  -386.052453900     A.U. after   10 cycles
 SCF Done:  E(RB3LYP) =  -386.052537964     A.U. after    9 cycles
 SCF Done:  E(RB3LYP) =  -386.052551662     A.U. after    8 cycles
 SCF Done:  E(RB3LYP) =  -386.052555869     A.U. after    8 cycles
 SCF Done:  E(RB3LYP) =  -386.052557578     A.U. after    8 cycles
 SCF Done:  E(RB3LYP) =  -386.052558136     A.U. after    8 cycles
 SCF Done:  E(RB3LYP) =  -386.052558253     A.U. after    7 cycles
 Optimization completed.
    -- Stationary point found.
 Normal termination of Gaussian 16 at Tue Mar  9 01:13:45 2021.

 ----------------------------------------------------------------------
 #N Geom=AllCheck Guess=TCheck SCRF=Check GenChk RB3LYP/6-31G(2df,p) Fr
 eq
 ----------------------------------------------------------------------

 Structure from the checkpoint file:  "OdC1CC23CCCC12C3.chk"
 -------------------
 Title Card Required
 -------------------
 Charge =  0 Multiplicity = 1

                         Standard orientation:
 ---------------------------------------------------------------------
 Center     Atomic      Atomic             Coordinates (Angstroms)
 Number     Number       Type             X           Y           Z
 ---------------------------------------------------------------------
      1          8           0       -2.372434    1.047166   -0.372552
      2          6           0       -1.531067    0.262084   -0.029826
      3          6           0       -1.266119   -1.220267   -0.437290
      4          6           0        0.188367   -0.978669    0.011801
      5          6           0        1.437831   -0.816248   -0.827456
      6          6           0        2.074052    0.520469   -0.336919
      7          6           0        0.902035    1.434221    0.147026
      8          6           0       -0.167833    0.447138    0.560569
      9          6           0        0.212341   -0.710030    1.470701
     10          1           0       -1.399935   -1.334176   -1.516782
     11          1           0       -1.813442   -2.015274    0.076332
     12          1           0        1.147596   -0.735701   -1.881682
     13          1           0        2.144305   -1.649863   -0.752421
     14          1           0        2.672702    0.998510   -1.117058
     15          1           0        2.756589    0.320954    0.495535
     16          1           0        0.517909    2.048854   -0.673958
     17          1           0        1.225650    2.116839    0.938605
     18          1           0       -0.545942   -1.159189    2.104283
     19          1           0        1.176402   -0.600464    1.955925
 ---------------------------------------------------------------------

 SCF Done:  E(RB3LYP) =  -386.052558253     A.U. after    1 cycles

 The electronic state is 1-A.
 Alpha  occ. eigenvalues --  -19.12109 -10.26364 -10.20969 -10.20728 -10.19843
 Alpha  occ. eigenvalues --  -10.19810 -10.19456 -10.19440 -10.19367  -1.03231
 Alpha  occ. eigenvalues --   -0.92186  -0.78984  -0.73054  -0.71434  -0.63401
 Alpha  occ. eigenvalues --   -0.60315  -0.55396  -0.50760  -0.47706  -0.47108
 Alpha  occ. eigenvalues --   -0.44843  -0.44136  -0.42180  -0.41886  -0.39853
 Alpha  occ. eigenvalues --   -0.37494  -0.36080  -0.35150  -0.34443  -0.34024
 Alpha  occ. eigenvalues --   -0.30458  -0.25197  -0.23273
 Alpha virt. eigenvalues --   -0.00141   0.07305   0.08303   0.09437   0.12095
 Alpha virt. eigenvalues --    0.12853   0.13616   0.14588   0.15538   0.16272
 Alpha virt. eigenvalues --    0.17262   0.18717   0.19188   0.20936   0.22169

 Mulliken charges:
               1
     1  O   -0.322283
     2  C    0.346793
     3  C   -0.420858
     4  C    0.276145
     5  C   -0.292926
     6  C   -0.220036
     7  C   -0.298732
     8  C    0.145415
     9  C   -0.371528
    10  H    0.128975
    11  H    0.116796
    12  H    0.108865
    13  H    0.107135
    14  H    0.107934
    15  H    0.109943
    16  H    0.120807
    17  H    0.108096
    18  H    0.122961
    19  H    0.126498
 Sum of Mulliken charges =  -0.00000

 Dipole moment (field-independent basis, Debye):
    X=              2.9784    Y=             -1.7053    Z=              0.4151  Tot=              3.4571
 Quadrupole moment (field-independent basis, Debye-Ang):
   XX=            -58.8938   YY=            -54.6094   ZZ=            -51.0520
   XY=              5.4495   XZ=             -1.3021   YZ=              0.1159

  Exact polarizability:  88.449   0.333  77.968   2.646  -0.349  71.275
 Approx polarizability: 128.568  -9.904 123.918   6.991  -0.986 110.719

                      1                      2                      3
                      A                      A                      A
 Frequencies --     91.4188               205.0031               237.1052
 Red. masses --      4.9109                 2.0427                 2.2253
 Frc consts  --      0.0242                 0.0506                 0.0737
 IR Inten    --      3.6878                 0.5541                 1.0652

                      4                      5                      6
                      A                      A                      A
 Frequencies --    322.9709               396.4009               433.8777
 Red. masses --      2.1569                 2.8567                 2.6336
 Frc consts  --      0.1326                 0.2645                 0.2921
 IR Inten    --      0.3803                 1.1763                 0.4406

                      7                      8                      9
                      A                      A                      A
 Frequencies --    527.2017               571.9614               583.2100
 Red. masses --      3.2329                 2.5310                 3.8346
 Frc consts  --      0.5294                 0.4878                 0.7685
 IR Inten    --      2.9595                 5.2456                 4.6160

                     10                     11                     12
                      A                      A                      A
 Frequencies --    628.6136               673.8809               743.7557
 Red. masses --      2.8882                 3.3109                 2.2066
 Frc consts  --      0.6724                 0.8858                 0.7192
 IR Inten    --      5.4819                 3.1850                14.2149

                     13                     14                     15
                      A                      A                      A
 Frequencies --    774.4566               846.6478               856.5807
 Red. masses --      5.1910                 2.4026                 2.6258
 Frc consts  --      1.8344                 1.0147                 1.1351
 IR Inten    --      7.4128                 8.2336                 4.4976

                     16                     17                     18
                      A                      A                      A
 Frequencies --    876.0442               913.5053               955.9965
 Red. masses --      1.5671                 2.1055                 2.3360
 Frc consts  --      0.7086                 1.0352                 1.2579
 IR Inten    --      2.4328                 2.0554                 4.6505

                     19                     20                     21
                      A                      A                      A
 Frequencies --    961.9874               975.1813               997.5515
 Red. masses --      1.5144                 2.3403                 1.8339
 Frc consts  --      0.8257                 1.3112                 1.0752
 IR Inten    --      3.8549                 9.7837                 8.3399

                     22                     23                     24
                      A                      A                      A
 Frequencies --   1047.3898              1061.3846              1088.2829
 Red. masses --      1.8008                 1.9205                 1.3838
 Frc consts  --      1.1639                 1.2747                 0.9656
 IR Inten    --     21.9202                 6.9072                 1.3818

                     25                     26                     27
                      A                      A                      A
 Frequencies --   1095.3497              1179.8115              1204.4928
 Red. masses --      1.3967                 1.2880                 1.3869
 Frc consts  --      0.9873                 1.0563                 1.1855
 IR Inten    --      4.2792                 0.6852                 3.9520

                     28                     29                     30
                      A                      A                      A
 Frequencies --   1217.6680              1226.7852              1260.9019
 Red. masses --      1.8446                 1.6148                 1.7234
 Frc consts  --      1.6114                 1.4318                 1.6143
 IR Inten    --      3.0449                 3.2943                 4.2748

                     31                     32                     33
                      A                      A                      A
 Frequencies --   1282.6455              1330.2311              1335.4707
 Red. masses --      1.5843                 1.5160                 1.6603
 Frc consts  --      1.5356                 1.5805                 1.7447
 IR Inten    --      3.8933                 4.1203                 0.9467

                     34                     35                     36
                      A                      A                      A
 Frequencies --   1353.2954              1370.0752              1455.9917
 Red. masses --      2.3156                 2.8087                 1.1043
 Frc consts  --      2.4986                 3.1063                 1.3793
 IR Inten    --      5.2381                 3.0001                 3.0004

                     37                     38                     39
                      A                      A                      A
 Frequencies --   1487.7028              1492.1753              1497.7490
 Red. masses --      1.1881                 1.0849                 1.1110
 Frc consts  --      1.5492                 1.4232                 1.4684
 IR Inten    --      2.9973                 2.7525                 4.2446

                     40                     41                     42
                      A                      A                      A
 Frequencies --   1514.1819              1855.6385              3034.6338
 Red. masses --      1.1174                12.6716                 1.0596
 Frc consts  --      1.5094                25.7081                 5.7491
 IR Inten    --      0.5077               392.0692                35.2988

                     43                     44                     45
                      A                      A                      A
 Frequencies --   3047.0335              3050.5701              3056.8820
 Red. masses --      1.0599                 1.0689                 1.0585
 Frc consts  --      5.7980                 5.8605                 5.8278
 IR Inten    --     20.5095                28.0556                22.1574

                     46                     47                     48
                      A                      A                      A
 Frequencies --   3073.1349              3084.0279              3101.4310
 Red. masses --      1.0980                 1.1019                 1.1044
 Frc consts  --      6.1097                 6.1749                 6.2588
 IR Inten    --     32.7950                17.3415                33.4742

                     49                     50                     51
                      A                      A                      A
 Frequencies --   3112.4682              3127.5635              3210.6844
 Red. masses --      1.1066                 1.0561                 1.1159
 Frc consts  --      6.3159                 6.0866                 6.7778
 IR Inten    --     12.5907                16.8087                 5.1084

 - Thermochemistry -
 -------------------
 Temperature   298.150 Kelvin.  Pressure   1.00000 Atm.
 Atom     1 has atomic number  8 and mass  15.99491

 Molecular mass:   122.07317 amu.
 Principal axes and moments of inertia in atomic units:
                           1         2         3
     Eigenvalues --   621.621661129.018851309.92069
           X            0.99835   0.05699  -0.00721
           Y           -0.05692   0.99834   0.00926
           Z            0.00773  -0.00883   0.99993
 This molecule is an asymmetric top.
 Rotational symmetry number  1.
 Warning -- assumption of classical behavior for rotation
           may cause significant error
 Rotational temperatures (Kelvin)      0.13934     0.07672     0.06612
 Rotational constants (GHZ):           2.90328     1.59850     1.37775
 Zero-point vibrational energy     423651.5 (Joules/Mol)
                                  101.25515 (Kcal/Mol)
 Warning -- explicit consideration of   9 degrees of freedom as
           vibrations may cause significant error
 Vibrational temperatures:    131.53   294.95   341.14   464.68   570.33
          (Kelvin)            624.25   758.53   822.92   839.11   904.43
                              969.56  1070.10  1114.27  1218.14  1232.43
                             1260.43  1314.33  1375.47  1384.09  1403.07
                             1435.25  1506.96  1527.10  1565.80  1575.96
                             1697.49  1733.00  1751.95  1765.07  1814.16
                             1845.44  1913.91  1921.44  1947.09  1971.23
                             2094.85  2140.47  2146.91  2154.93  2178.57
                             2669.85  4366.16  4384.00  4389.09  4398.17
                             4421.56  4437.23  4462.27  4478.15  4499.87
                             4619.46

 Zero-point correction=                           0.161360 (Hartree/Particle)
 Thermal correction to Energy=                    0.168655
 Thermal correction to Enthalpy=                  0.169599
 Thermal correction to Gibbs Free Energy=         0.129792
 Sum of electronic and zero-point Energies=           -385.891198
 Sum of electronic and thermal Energies=              -385.883903
 Sum of electronic and thermal Enthalpies=            -385.882959
 Sum of electronic and thermal Free Energies=         -385.922766

                     E (Thermal)             CV                S
                      KCal/Mol        Cal/Mol-Kelvin    Cal/Mol-Kelvin
 Total                  105.833             29.730             83.782
 Electronic               0.000              0.000              0.000
 Translational            0.889              2.981             40.313
 Rotational               0.889              2.981             28.310
 Vibrational            104.055             23.768             15.160
 Vibration     1          0.602              1.955              3.629
 Vibration     2          0.640              1.833              2.088
 Vibration     3          0.656              1.784              1.824
 Vibration     4          0.708              1.629              1.295
 Vibration     5          0.763              1.478              0.976
 Vibration     6          0.795              1.396              0.846
 Vibration     7          0.882              1.190              0.593
 Vibration     8          0.928              1.092              0.500
 Vibration     9          0.940              1.068              0.479

 Optimization completed.
    -- Stationary point found.
 Normal termination of Gaussian 16 at Tue Mar  9 01:46:14 2021.
