 Gaussian 16, Revision A.03,
 Gaussian 16:  ES64L-G16RevA.03 25-Dec-2016

 -----------------------------
 # opt freq b3lyp/6-31g(2df,p)
 -----------------------------

 -----
 Title
 -----
 Symbolic Z-matrix:
 Charge =  0 Multiplicity = 1

 SCF Done:  E(RB3LYP) =  -438.014990985     A.U. after   14 cycles
 SCF Done:  E(RB3LYP) =  -438.028809957     A.U. after   12 cycles
 SCF Done:  E(RB3LYP) =  -438.029232939     A.U. after   12 cycles
 SCF Done:  E(RB3LYP) =  -438.030637782     A.U. after   11 cycles
 SCF Done:  E(RB3LYP) =  -438.030683382     A.U. after    9 cycles
 SCF Done:  E(RB3LYP) =  -438.030686170     A.U. after    8 cycles
 SCF Done:  E(RB3LYP) =  -438.030686751     A.U. after    8 cycles
 SCF Done:  E(RB3LYP) =  -438.030687992     A.U. after    7 cycles
 SCF Done:  E(RB3LYP) =  -438.030688029     A.U. after    7 cycles
 SCF Done:  E(RB3LYP) =  -438.030688989     A.U. after   10 cycles
 SCF Done:  E(RB3LYP) =  -438.039525134     A.U. after   14 cycles
 SCF Done:  E(RB3LYP) =  -438.040563925     A.U. after   10 cycles
 SCF Done:  E(RB3LYP) =  -438.040520539     A.U. after   13 cycles
 SCF Done:  E(RB3LYP) =  -438.040610761     A.U. after   12 cycles
 SCF Done:  E(RB3LYP) =  -438.040618363     A.U. after   11 cycles
 SCF Done:  E(RB3LYP) =  -438.040628504     A.U. after   11 cycles
 SCF Done:  E(RB3LYP) =  -438.040640485     A.U. after   10 cycles
 SCF Done:  E(RB3LYP) =  -438.040643453     A.U. after   10 cycles
 SCF Done:  E(RB3LYP) =  -438.040644257     A.U. after    8 cycles
 Optimization completed.
    -- Stationary point found.
 Normal termination of Gaussian 16 at Thu Feb 18 15:01:54 2021.

 ----------------------------------------------------------------------
 #N Geom=AllCheck Guess=TCheck SCRF=Check GenChk RB3LYP/6-31G(2df,p) Fr
 eq
 ----------------------------------------------------------------------

 Structure from the checkpoint file:  "OdCCn1cccc1O.chk"
 -----
 Title
 -----
 Charge =  0 Multiplicity = 1

                         Standard orientation:
 ---------------------------------------------------------------------
 Center     Atomic      Atomic             Coordinates (Angstroms)
 Number     Number       Type             X           Y           Z
 ---------------------------------------------------------------------
      1          8           0       -3.360402   -0.216133   -0.311775
      2          6           0       -2.180434   -0.054267   -0.466736
      3          6           0       -1.201504    0.155493    0.687520
      4          7           0        0.155411   -0.188082    0.338799
      5          6           0        0.667924   -1.475293    0.231404
      6          6           0        1.972067   -1.379310   -0.172257
      7          6           0        2.283727    0.006408   -0.332523
      8          6           0        1.140617    0.696945   -0.012015
      9          8           0        0.829675    2.020290    0.018455
     10          1           0       -1.706970   -0.033866   -1.473988
     11          1           0       -1.542172   -0.423736    1.550853
     12          1           0       -1.233669    1.214528    0.964270
     13          1           0        0.050527   -2.325970    0.469502
     14          1           0        2.644475   -2.207000   -0.336571
     15          1           0        3.224499    0.436490   -0.639222
     16          1           0        1.626865    2.523019   -0.172239
 ---------------------------------------------------------------------

 SCF Done:  E(RB3LYP) =  -438.040644257     A.U. after    1 cycles

 The electronic state is 1-A.
 Alpha  occ. eigenvalues --  -19.18513 -19.15036 -14.37847 -10.28100 -10.25998
 Alpha  occ. eigenvalues --  -10.23958 -10.19502 -10.16788 -10.16387  -1.07875
 Alpha  occ. eigenvalues --   -1.05825  -0.97973  -0.81475  -0.71895  -0.71223
 Alpha  occ. eigenvalues --   -0.60556  -0.60125  -0.56544  -0.54820  -0.48073
 Alpha  occ. eigenvalues --   -0.46845  -0.46538  -0.45339  -0.42524  -0.42321
 Alpha  occ. eigenvalues --   -0.41146  -0.38874  -0.36992  -0.36316  -0.34863
 Alpha  occ. eigenvalues --   -0.27071  -0.23472  -0.19267
 Alpha virt. eigenvalues --   -0.03328   0.04550   0.05842   0.09344   0.10754
 Alpha virt. eigenvalues --    0.12221   0.13585   0.14522   0.16584   0.17420
 Alpha virt. eigenvalues --    0.18474   0.22004   0.22628   0.25897   0.26443

 Mulliken charges:
               1
     1  O   -0.228155
     2  C    0.149372
     3  C   -0.265836
     4  N   -0.042790
     5  C   -0.121518
     6  C   -0.141380
     7  C   -0.307702
     8  C    0.365881
     9  O   -0.442337
    10  H    0.098722
    11  H    0.146626
    12  H    0.167450
    13  H    0.120657
    14  H    0.098848
    15  H    0.090937
    16  H    0.311225
 Sum of Mulliken charges =  -0.00000

 Dipole moment (field-independent basis, Debye):
    X=              2.2024    Y=              1.3148    Z=              0.2549  Tot=              2.5776
 Quadrupole moment (field-independent basis, Debye-Ang):
   XX=            -59.1482   YY=            -45.6670   ZZ=            -52.0479
   XY=              3.4132   XZ=             -2.9161   YZ=             -1.1866

  Exact polarizability:  94.474   0.098  74.544  -9.014  -1.165  47.954
 Approx polarizability: 142.122   1.663 119.135 -17.826  -2.210  73.812

                      1                      2                      3
                      A                      A                      A
 Frequencies --     31.4655                71.8402                94.7344
 Red. masses --      5.1926                 3.6046                 2.8401
 Frc consts  --      0.0030                 0.0110                 0.0150
 IR Inten    --      3.0132                 3.3710                 5.3723

                      4                      5                      6
                      A                      A                      A
 Frequencies --    199.4423               266.6155               278.7865
 Red. masses --      1.1144                 4.6801                 3.0131
 Frc consts  --      0.0261                 0.1960                 0.1380
 IR Inten    --    103.6850                 0.6579                 7.0254

                      7                      8                      9
                      A                      A                      A
 Frequencies --    354.8534               413.3712               492.9774
 Red. masses --      5.2502                 3.5307                 4.4526
 Frc consts  --      0.3895                 0.3555                 0.6376
 IR Inten    --      7.3555                 5.7562                 7.4237

                     10                     11                     12
                      A                      A                      A
 Frequencies --    613.3774               631.7680               658.9387
 Red. masses --      4.0710                 1.8773                 2.6356
 Frc consts  --      0.9024                 0.4415                 0.6742
 IR Inten    --      1.1105                18.2009                 9.3433

                     13                     14                     15
                      A                      A                      A
 Frequencies --    689.0549               721.9059               728.7894
 Red. masses --      1.9471                 1.4439                 2.1552
 Frc consts  --      0.5447                 0.4433                 0.6744
 IR Inten    --     23.8684                43.1697                10.8721

                     16                     17                     18
                      A                      A                      A
 Frequencies --    803.1500               818.9807               908.4332
 Red. masses --      3.8825                 1.1845                 3.9685
 Frc consts  --      1.4756                 0.4681                 1.9296
 IR Inten    --      6.3826                 0.2186                 4.1468

                     19                     20                     21
                      A                      A                      A
 Frequencies --   1025.6991              1033.9998              1064.1231
 Red. masses --      1.6622                 3.3506                 1.7625
 Frc consts  --      1.0303                 2.1107                 1.1759
 IR Inten    --     25.1752                24.2879                 3.9770

                     22                     23                     24
                      A                      A                      A
 Frequencies --   1095.1978              1141.6809              1200.5652
 Red. masses --      1.5539                 1.6019                 1.4437
 Frc consts  --      1.0982                 1.2302                 1.2260
 IR Inten    --     40.6136                52.2759                23.2380

                     25                     26                     27
                      A                      A                      A
 Frequencies --   1252.2290              1307.6012              1330.8855
 Red. masses --      1.8574                 1.3518                 3.3674
 Frc consts  --      1.7160                 1.3618                 3.5142
 IR Inten    --      4.8298                34.8474                45.6229

                     28                     29                     30
                      A                      A                      A
 Frequencies --   1339.9342              1405.3320              1408.0051
 Red. masses --      1.4852                 2.3285                 1.3400
 Frc consts  --      1.5711                 2.7095                 1.5652
 IR Inten    --      9.1431                 4.7702                10.7483

                     31                     32                     33
                      A                      A                      A
 Frequencies --   1446.1672              1529.9483              1552.6068
 Red. masses --      1.1319                 5.7247                 3.4727
 Frc consts  --      1.3947                 7.8950                 4.9322
 IR Inten    --      9.9379                37.6196                73.8328

                     34                     35                     36
                      A                      A                      A
 Frequencies --   1609.3189              1841.1688              2889.6887
 Red. masses --      6.6651                10.5771                 1.0850
 Frc consts  --     10.1705                21.1254                 5.3378
 IR Inten    --    134.9000               187.3149                72.9719

                     37                     38                     39
                      A                      A                      A
 Frequencies --   3057.4145              3107.7413              3241.8321
 Red. masses --      1.0581                 1.1040                 1.0899
 Frc consts  --      5.8275                 6.2822                 6.7488
 IR Inten    --     21.2055                 2.7157                 7.0003

                     40                     41                     42
                      A                      A                      A
 Frequencies --   3253.8140              3273.4039              3852.7817
 Red. masses --      1.0946                 1.1043                 1.0661
 Frc consts  --      6.8278                 6.9715                 9.3236
 IR Inten    --      1.1656                 1.1356                87.7134

 - Thermochemistry -
 -------------------
 Temperature   298.150 Kelvin.  Pressure   1.00000 Atm.
 Atom     1 has atomic number  8 and mass  15.99491

 Molecular mass:   125.04768 amu.
 Principal axes and moments of inertia in atomic units:
                           1         2         3
     Eigenvalues --   572.517531584.355592013.58337
           X            0.99994  -0.00439  -0.01046
           Y            0.00435   0.99998  -0.00402
           Z            0.01048   0.00398   0.99994
 This molecule is an asymmetric top.
 Rotational symmetry number  1.
 Warning -- assumption of classical behavior for rotation
           may cause significant error
 Rotational temperatures (Kelvin)      0.15129     0.05467     0.04301
 Rotational constants (GHZ):           3.15229     1.13910     0.89628
 Zero-point vibrational energy     323228.7 (Joules/Mol)
                                   77.25352 (Kcal/Mol)
 Warning -- explicit consideration of  10 degrees of freedom as
           vibrations may cause significant error
 Vibrational temperatures:     45.27   103.36   136.30   286.95   383.60
          (Kelvin)            401.11   510.55   594.75   709.28   882.51
                              908.97   948.07   991.40  1038.66  1048.57
                             1155.55  1178.33  1307.03  1475.75  1487.70
                             1531.04  1575.75  1642.62  1727.35  1801.68
                             1881.35  1914.85  1927.87  2021.96  2025.81
                             2080.71  2201.25  2233.85  2315.45  2649.03
                             4157.62  4398.94  4471.35  4664.27  4681.51
                             4709.70  5543.29

 Zero-point correction=                           0.123111 (Hartree/Particle)
 Thermal correction to Energy=                    0.131894
 Thermal correction to Enthalpy=                  0.132838
 Thermal correction to Gibbs Free Energy=         0.088186
 Sum of electronic and zero-point Energies=           -437.917533
 Sum of electronic and thermal Energies=              -437.908750
 Sum of electronic and thermal Enthalpies=            -437.907806
 Sum of electronic and thermal Free Energies=         -437.952458

                     E (Thermal)             CV                S
                      KCal/Mol        Cal/Mol-Kelvin    Cal/Mol-Kelvin
 Total                   82.765             31.291             93.978
 Electronic               0.000              0.000              0.000
 Translational            0.889              2.981             40.384
 Rotational               0.889              2.981             28.992
 Vibrational             80.987             25.329             24.602
 Vibration     1          0.594              1.983              5.735
 Vibration     2          0.598              1.967              4.102
 Vibration     3          0.603              1.953              3.560
 Vibration     4          0.638              1.841              2.138
 Vibration     5          0.672              1.734              1.618
 Vibration     6          0.679              1.713              1.541
 Vibration     7          0.731              1.565              1.145
 Vibration     8          0.777              1.441              0.915
 Vibration     9          0.849              1.266              0.676
 Vibration    10          0.973              1.004              0.427

                           ! Non-Optimized Parameters !
 Normal termination of Gaussian 16 at Thu Feb 18 15:25:15 2021.
