 Gaussian 16, Revision A.03,
 Gaussian 16:  ES64L-G16RevA.03 25-Dec-2016

 -----------------------------
 # opt freq b3lyp/6-31g(2df,p)
 -----------------------------

 -------------------
 Title Card Required
 -------------------
 Symbolic Z-matrix:
 Charge =  0 Multiplicity = 1

 SCF Done:  E(RB3LYP) =  -457.677492704     A.U. after   17 cycles
 SCF Done:  E(RB3LYP) =  -457.718472959     A.U. after   14 cycles
 SCF Done:  E(RB3LYP) =  -457.748815363     A.U. after   14 cycles
 SCF Done:  E(RB3LYP) =  -457.764252279     A.U. after   13 cycles
 SCF Done:  E(RB3LYP) =  -457.777733378     A.U. after   14 cycles
 SCF Done:  E(RB3LYP) =  -457.781597279     A.U. after   14 cycles
 SCF Done:  E(RB3LYP) =  -457.786231928     A.U. after   13 cycles
 SCF Done:  E(RB3LYP) =  -457.788550367     A.U. after   13 cycles
 SCF Done:  E(RB3LYP) =  -457.789001592     A.U. after   13 cycles
 SCF Done:  E(RB3LYP) =  -457.789122009     A.U. after   13 cycles
 SCF Done:  E(RB3LYP) =  -457.789187656     A.U. after   12 cycles
 SCF Done:  E(RB3LYP) =  -457.789237079     A.U. after   12 cycles
 SCF Done:  E(RB3LYP) =  -457.789248353     A.U. after   12 cycles
 SCF Done:  E(RB3LYP) =  -457.789256291     A.U. after    9 cycles
 SCF Done:  E(RB3LYP) =  -457.789258751     A.U. after    8 cycles
 SCF Done:  E(RB3LYP) =  -457.789259215     A.U. after    8 cycles
 SCF Done:  E(RB3LYP) =  -457.789259483     A.U. after    8 cycles
 Optimization completed.
    -- Stationary point found.
 Normal termination of Gaussian 16 at Tue Mar  9 01:34:05 2021.

 ----------------------------------------------------------------------
 #N Geom=AllCheck Guess=TCheck SCRF=Check GenChk RB3LYP/6-31G(2df,p) Fr
 eq
 ----------------------------------------------------------------------

 Structure from the checkpoint file:  "OdCC12CCC1CpdOpO2.chk"
 -------------------
 Title Card Required
 -------------------
 Charge =  0 Multiplicity = 1

                         Standard orientation:
 ---------------------------------------------------------------------
 Center     Atomic      Atomic             Coordinates (Angstroms)
 Number     Number       Type             X           Y           Z
 ---------------------------------------------------------------------
      1          8           0        0.538970    2.125737   -0.446448
      2          6           0       -0.459656    1.535646   -0.138283
      3          6           0       -0.453570    0.161485    0.536993
      4          6           0       -1.936652   -0.369864    0.620088
      5          6           0       -1.676564   -0.904554   -0.865927
      6          6           0       -0.181561   -0.987190   -0.372168
      7          6           0        1.323272   -0.652757   -0.056469
      8          8           0        2.429091   -0.872865   -0.392031
      9          8           0        0.885808   -0.004166    1.135810
     10          1           0       -1.467962    1.969309   -0.317793
     11          1           0       -2.715722    0.384024    0.757388
     12          1           0       -2.078070   -1.193462    1.319318
     13          1           0       -1.870586   -0.138574   -1.618995
     14          1           0       -2.155951   -1.840462   -1.151618
     15          1           0       -0.234264   -1.867071    0.287654
 ---------------------------------------------------------------------

 SCF Done:  E(RB3LYP) =  -457.789259483     A.U. after    1 cycles

 The electronic state is 1-A.
 Alpha  occ. eigenvalues --  -19.19060 -19.16264 -19.15571 -10.33186 -10.28861
 Alpha  occ. eigenvalues --  -10.26859 -10.24059 -10.23863 -10.23094  -1.11112
 Alpha  occ. eigenvalues --   -1.07006  -1.04635  -0.88586  -0.72408  -0.70507
 Alpha  occ. eigenvalues --   -0.64985  -0.59825  -0.55298  -0.53388  -0.49281
 Alpha  occ. eigenvalues --   -0.47800  -0.46085  -0.45436  -0.44685  -0.41192
 Alpha  occ. eigenvalues --   -0.40101  -0.39571  -0.38130  -0.37114  -0.32081
 Alpha  occ. eigenvalues --   -0.30455  -0.28280  -0.26740
 Alpha virt. eigenvalues --   -0.06172  -0.00068   0.03609   0.05662   0.07425
 Alpha virt. eigenvalues --    0.09495   0.10944   0.13413   0.14341   0.15877
 Alpha virt. eigenvalues --    0.17740   0.21474   0.22128   0.23485   0.26269

 Mulliken charges:
               1
     1  O   -0.231379
     2  C    0.136703
     3  C    0.287615
     4  C   -0.329718
     5  C   -0.312785
     6  C   -0.112845
     7  C    0.365865
     8  O   -0.279572
     9  O   -0.296916
    10  H    0.087593
    11  H    0.124721
    12  H    0.142064
    13  H    0.140906
    14  H    0.134004
    15  H    0.143745
 Sum of Mulliken charges =  -0.00000

 Dipole moment (field-independent basis, Debye):
    X=             -5.6208    Y=             -1.5684    Z=              0.1665  Tot=              5.8378
 Quadrupole moment (field-independent basis, Debye-Ang):
   XX=            -54.4905   YY=            -51.7197   ZZ=            -51.5026
   XY=             -0.1902   XZ=              0.7186   YZ=              0.1391

  Exact polarizability:  84.762   0.126  65.846  -1.091  -0.264  52.110
 Approx polarizability: 134.936   2.125  99.419  -4.096   0.800  86.598

                      1                      2                      3
                      A                      A                      A
 Frequencies --     55.8516               140.1877               242.6525
 Red. masses --      4.7919                 6.7769                 3.5565
 Frc consts  --      0.0088                 0.0785                 0.1234
 IR Inten    --      5.6124                 1.1272                 1.0755

                      4                      5                      6
                      A                      A                      A
 Frequencies --    259.6611               314.6094               373.7771
 Red. masses --      2.9055                 5.8010                 4.5885
 Frc consts  --      0.1154                 0.3383                 0.3777
 IR Inten    --      2.6392                 2.9225                 3.8116

                      7                      8                      9
                      A                      A                      A
 Frequencies --    430.1308               532.5478               629.3993
 Red. masses --      2.6381                 5.3837                 7.2977
 Frc consts  --      0.2876                 0.8996                 1.7033
 IR Inten    --      0.6809                 8.5383                 4.3274

                     10                     11                     12
                      A                      A                      A
 Frequencies --    647.3394               675.1164               742.7859
 Red. masses --      6.0057                 3.7339                 8.8050
 Frc consts  --      1.4828                 1.0027                 2.8623
 IR Inten    --      5.6649                17.3049               114.2354

                     13                     14                     15
                      A                      A                      A
 Frequencies --    784.3512               801.8519               850.1364
 Red. masses --      2.1036                 3.7913                 1.8080
 Frc consts  --      0.7625                 1.4362                 0.7699
 IR Inten    --      2.0815                 2.5304                 4.8657

                     16                     17                     18
                      A                      A                      A
 Frequencies --    873.9894               943.6865               981.3931
 Red. masses --      3.0270                 2.8530                 2.4928
 Frc consts  --      1.3623                 1.4969                 1.4146
 IR Inten    --     27.0120                49.2298                16.6692

                     19                     20                     21
                      A                      A                      A
 Frequencies --   1046.8101              1062.9309              1075.8678
 Red. masses --      1.7114                 3.4860                 2.5316
 Frc consts  --      1.1050                 2.3205                 1.7265
 IR Inten    --      7.4197                20.8472                 3.4592

                     22                     23                     24
                      A                      A                      A
 Frequencies --   1119.4105              1147.9536              1200.7606
 Red. masses --      3.2272                 1.6139                 1.2578
 Frc consts  --      2.3826                 1.2530                 1.0685
 IR Inten    --     14.9710                 7.8822                 0.4559

                     25                     26                     27
                      A                      A                      A
 Frequencies --   1215.0695              1222.8170              1258.7136
 Red. masses --      2.3970                 1.3530                 1.5030
 Frc consts  --      2.0851                 1.1920                 1.4030
 IR Inten    --     13.9422                 2.2557                 6.5496

                     28                     29                     30
                      A                      A                      A
 Frequencies --   1422.1318              1437.0836              1480.8913
 Red. masses --      1.1785                 1.1123                 1.0974
 Frc consts  --      1.4043                 1.3534                 1.4179
 IR Inten    --      6.8232                 0.4623                 3.6804

                     31                     32                     33
                      A                      A                      A
 Frequencies --   1493.2188              1833.0347              1965.8124
 Red. masses --      1.1037                11.1301                12.9282
 Frc consts  --      1.4499                22.0338                29.4355
 IR Inten    --      0.7119               103.0133               527.2251

                     34                     35                     36
                      A                      A                      A
 Frequencies --   2888.1615              2974.1602              3074.8639
 Red. masses --      1.0841                 1.0803                 1.0601
 Frc consts  --      5.3281                 5.6303                 5.9055
 IR Inten    --     89.3972                 8.5903                23.5295

                     37                     38                     39
                      A                      A                      A
 Frequencies --   3087.2603              3148.5588              3160.5209
 Red. masses --      1.0576                 1.1092                 1.1088
 Frc consts  --      5.9390                 6.4788                 6.5258
 IR Inten    --     23.1225                 4.2338                19.5824

 - Thermochemistry -
 -------------------
 Temperature   298.150 Kelvin.  Pressure   1.00000 Atm.
 Atom     1 has atomic number  8 and mass  15.99491

 Molecular mass:   126.03169 amu.
 Principal axes and moments of inertia in atomic units:
                           1         2         3
     Eigenvalues --   733.341891035.600591399.21289
           X            0.99917   0.04022   0.00622
           Y           -0.04022   0.99919  -0.00067
           Z           -0.00624   0.00042   0.99998
 This molecule is an asymmetric top.
 Rotational symmetry number  1.
 Warning -- assumption of classical behavior for rotation
           may cause significant error
 Rotational temperatures (Kelvin)      0.11811     0.08364     0.06190
 Rotational constants (GHZ):           2.46098     1.74270     1.28983
 Zero-point vibrational energy     290665.6 (Joules/Mol)
                                   69.47075 (Kcal/Mol)
 Warning -- explicit consideration of   8 degrees of freedom as
           vibrations may cause significant error
 Vibrational temperatures:     80.36   201.70   349.12   373.59   452.65
          (Kelvin)            537.78   618.86   766.22   905.57   931.38
                              971.34  1068.70  1128.51  1153.69  1223.16
                             1257.48  1357.75  1412.01  1506.13  1529.32
                             1547.93  1610.58  1651.65  1727.63  1748.21
                             1759.36  1811.01  2046.13  2067.64  2130.67
                             2148.41  2637.33  2828.37  4155.42  4279.15
                             4424.04  4441.88  4530.07  4547.28

 Zero-point correction=                           0.110709 (Hartree/Particle)
 Thermal correction to Energy=                    0.118303
 Thermal correction to Enthalpy=                  0.119247
 Thermal correction to Gibbs Free Energy=         0.078180
 Sum of electronic and zero-point Energies=           -457.678551
 Sum of electronic and thermal Energies=              -457.670957
 Sum of electronic and thermal Enthalpies=            -457.670013
 Sum of electronic and thermal Free Energies=         -457.711079

                     E (Thermal)             CV                S
                      KCal/Mol        Cal/Mol-Kelvin    Cal/Mol-Kelvin
 Total                   74.236             28.523             86.432
 Electronic               0.000              0.000              0.000
 Translational            0.889              2.981             40.408
 Rotational               0.889              2.981             28.454
 Vibrational             72.459             22.562             17.570
 Vibration     1          0.596              1.975              4.599
 Vibration     2          0.615              1.913              2.801
 Vibration     3          0.659              1.775              1.783
 Vibration     4          0.668              1.746              1.664
 Vibration     5          0.702              1.646              1.338
 Vibration     6          0.745              1.526              1.064
 Vibration     7          0.791              1.405              0.858
 Vibration     8          0.888              1.178              0.582

                           ! Non-Optimized Parameters !
 Normal termination of Gaussian 16 at Tue Mar  9 01:55:53 2021.
