 Gaussian 16, Revision A.03,
 Gaussian 16:  ES64L-G16RevA.03 25-Dec-2016

 -----------------------------
 # opt freq b3lyp/6-31g(2df,p)
 -----------------------------

 -------------------
 Title Card Required
 -------------------
 Symbolic Z-matrix:
 Charge =  0 Multiplicity = 1

 SCF Done:  E(RB3LYP) =  -401.966240467     A.U. after   14 cycles
 SCF Done:  E(RB3LYP) =  -402.012860050     A.U. after   13 cycles
 SCF Done:  E(RB3LYP) =  -402.056103987     A.U. after   13 cycles
 SCF Done:  E(RB3LYP) =  -402.070947744     A.U. after   13 cycles
 SCF Done:  E(RB3LYP) =  -402.076138854     A.U. after   14 cycles
 SCF Done:  E(RB3LYP) =  -402.077088551     A.U. after   13 cycles
 SCF Done:  E(RB3LYP) =  -402.079305398     A.U. after   13 cycles
 SCF Done:  E(RB3LYP) =  -402.079712953     A.U. after   12 cycles
 SCF Done:  E(RB3LYP) =  -402.080011030     A.U. after   13 cycles
 SCF Done:  E(RB3LYP) =  -402.080137804     A.U. after   12 cycles
 SCF Done:  E(RB3LYP) =  -402.080391419     A.U. after   12 cycles
 SCF Done:  E(RB3LYP) =  -402.079446013     A.U. after   12 cycles
 SCF Done:  E(RB3LYP) =  -402.081111968     A.U. after   14 cycles
 SCF Done:  E(RB3LYP) =  -402.081463698     A.U. after   15 cycles
 SCF Done:  E(RB3LYP) =  -402.081644180     A.U. after   12 cycles
 SCF Done:  E(RB3LYP) =  -402.081199545     A.U. after   13 cycles
 SCF Done:  E(RB3LYP) =  -402.081689490     A.U. after   13 cycles
 SCF Done:  E(RB3LYP) =  -402.081694044     A.U. after   11 cycles
 SCF Done:  E(RB3LYP) =  -402.081694951     A.U. after   10 cycles
 Optimization completed.
    -- Stationary point found.
 Normal termination of Gaussian 16 at Tue Mar  9 02:07:06 2021.

 ----------------------------------------------------------------------
 #N Geom=AllCheck Guess=TCheck SCRF=Check GenChk RB3LYP/6-31G(2df,p) Fr
 eq
 ----------------------------------------------------------------------

 Structure from the checkpoint file:  "OdCCC12CdCCN1C2.chk"
 -------------------
 Title Card Required
 -------------------
 Charge =  0 Multiplicity = 1

                         Standard orientation:
 ---------------------------------------------------------------------
 Center     Atomic      Atomic             Coordinates (Angstroms)
 Number     Number       Type             X           Y           Z
 ---------------------------------------------------------------------
      1          8           0        3.388162   -0.084624    0.000247
      2          6           0        2.257147   -0.184048   -0.402973
      3          6           0        1.188034    0.872797   -0.201408
      4          6           0       -0.153569    0.322889    0.249712
      5          6           0       -1.337407    1.236775    0.294872
      6          6           0       -2.423495    0.613061   -0.158833
      7          6           0       -2.082033   -0.794563   -0.596027
      8          7           0       -0.640316   -0.965968   -0.306129
      9          6           0       -0.287526   -0.884829    1.117685
     10          1           0        1.920008   -1.070636   -0.979721
     11          1           0        1.052274    1.375663   -1.171028
     12          1           0        1.565458    1.617656    0.506549
     13          1           0       -1.281502    2.255471    0.658750
     14          1           0       -3.425934    1.022657   -0.199489
     15          1           0       -2.255513   -0.944385   -1.669964
     16          1           0       -2.668093   -1.560232   -0.071907
     17          1           0        0.590138   -1.465707    1.394045
     18          1           0       -1.086829   -0.884213    1.855520
 ---------------------------------------------------------------------

 SCF Done:  E(RB3LYP) =  -402.081694951     A.U. after    1 cycles

 The electronic state is 1-A.
 Alpha  occ. eigenvalues --  -19.13597 -14.33607 -10.26727 -10.23328 -10.21925
 Alpha  occ. eigenvalues --  -10.21610 -10.19761 -10.19498 -10.19408  -1.04235
 Alpha  occ. eigenvalues --   -0.98318  -0.79546  -0.77805  -0.71905  -0.63242
 Alpha  occ. eigenvalues --   -0.59620  -0.56086  -0.54977  -0.51468  -0.47860
 Alpha  occ. eigenvalues --   -0.46436  -0.44145  -0.43357  -0.42446  -0.40823
 Alpha  occ. eigenvalues --   -0.38855  -0.37251  -0.35924  -0.34041  -0.31658
 Alpha  occ. eigenvalues --   -0.27934  -0.24842  -0.22918
 Alpha virt. eigenvalues --   -0.02027   0.00294   0.09666   0.10838   0.12636
 Alpha virt. eigenvalues --    0.12877   0.13193   0.13750   0.14659   0.15150
 Alpha virt. eigenvalues --    0.16935   0.17396   0.19132   0.20970   0.21742

 Mulliken charges:
               1
     1  O   -0.246963
     2  C    0.149292
     3  C   -0.377745
     4  C    0.288291
     5  C   -0.137306
     6  C   -0.092015
     7  C   -0.215493
     8  N   -0.135044
     9  C   -0.275906
    10  H    0.104797
    11  H    0.127747
    12  H    0.124580
    13  H    0.105437
    14  H    0.106504
    15  H    0.117942
    16  H    0.118485
    17  H    0.122775
    18  H    0.114622
 Sum of Mulliken charges =  -0.00000

 Dipole moment (field-independent basis, Debye):
    X=             -3.4810    Y=              0.9072    Z=              0.1404  Tot=              3.6000
 Quadrupole moment (field-independent basis, Debye-Ang):
   XX=            -61.0347   YY=            -51.4716   ZZ=            -51.4834
   XY=              0.7404   XZ=             -1.0962   YZ=             -0.9938

  Exact polarizability:  97.083   2.063  73.206   7.616   1.807  61.884
 Approx polarizability: 138.557   8.422 113.041  17.354   5.207  99.898

                      1                      2                      3
                      A                      A                      A
 Frequencies --     57.1256                69.8213               182.8403
 Red. masses --      4.8798                 3.2373                 2.8901
 Frc consts  --      0.0094                 0.0093                 0.0569
 IR Inten    --      5.6599                 1.7552                 3.4272

                      4                      5                      6
                      A                      A                      A
 Frequencies --    221.0817               282.7903               395.9915
 Red. masses --      2.7227                 2.4987                 3.3910
 Frc consts  --      0.0784                 0.1177                 0.3133
 IR Inten    --      2.3927                 2.2580                 2.0473

                      7                      8                      9
                      A                      A                      A
 Frequencies --    443.0890               448.7222               508.9343
 Red. masses --      2.4968                 3.3133                 2.0063
 Frc consts  --      0.2888                 0.3931                 0.3062
 IR Inten    --      2.0100                 9.2080                 5.6431

                     10                     11                     12
                      A                      A                      A
 Frequencies --    645.4467               737.0290               748.1483
 Red. masses --      2.6075                 3.2372                 1.5561
 Frc consts  --      0.6400                 1.0361                 0.5132
 IR Inten    --     16.9375                 0.3789                19.3440

                     13                     14                     15
                      A                      A                      A
 Frequencies --    762.5385               787.9276               828.0142
 Red. masses --      3.1101                 4.3975                 1.9004
 Frc consts  --      1.0655                 1.6085                 0.7677
 IR Inten    --      8.7815                 3.6376                 5.7513

                     16                     17                     18
                      A                      A                      A
 Frequencies --    920.1025               924.6780               953.5118
 Red. masses --      1.8730                 4.2057                 1.2524
 Frc consts  --      0.9342                 2.1187                 0.6709
 IR Inten    --     10.2282                12.1312                 0.4387

                     19                     20                     21
                      A                      A                      A
 Frequencies --    968.1002              1003.9087              1029.9145
 Red. masses --      1.7664                 1.8214                 2.1591
 Frc consts  --      0.9754                 1.0815                 1.3493
 IR Inten    --      2.3815                 1.8084                 9.0410

                     22                     23                     24
                      A                      A                      A
 Frequencies --   1063.4917              1091.4280              1111.6090
 Red. masses --      2.4811                 2.3528                 1.1916
 Frc consts  --      1.6533                 1.6513                 0.8675
 IR Inten    --     22.8215                15.1566                 1.0517

                     25                     26                     27
                      A                      A                      A
 Frequencies --   1124.4935              1162.6392              1192.9425
 Red. masses --      1.2984                 1.9770                 1.9118
 Frc consts  --      0.9673                 1.5745                 1.6030
 IR Inten    --      3.3023                15.9392                 7.6528

                     28                     29                     30
                      A                      A                      A
 Frequencies --   1219.5219              1227.0225              1313.0425
 Red. masses --      1.2058                 1.2439                 1.4121
 Frc consts  --      1.0566                 1.1034                 1.4345
 IR Inten    --      0.7156                 9.1497                 1.1834

                     31                     32                     33
                      A                      A                      A
 Frequencies --   1335.3301              1355.1773              1372.6903
 Red. masses --      2.4036                 2.2034                 2.2054
 Frc consts  --      2.5252                 2.3842                 2.4484
 IR Inten    --      8.6736                 7.3484                20.1111

                     34                     35                     36
                      A                      A                      A
 Frequencies --   1418.9567              1455.4439              1487.2395
 Red. masses --      1.2266                 1.0901                 1.1008
 Frc consts  --      1.4551                 1.3605                 1.4345
 IR Inten    --      6.3603                 4.5684                 0.7480

                     37                     38                     39
                      A                      A                      A
 Frequencies --   1503.1462              1671.1479              1829.1083
 Red. masses --      1.1655                 6.4277                 9.8640
 Frc consts  --      1.5515                10.5763                19.4438
 IR Inten    --      5.9404                 2.1451               180.7184

                     40                     41                     42
                      A                      A                      A
 Frequencies --   2920.8760              3003.8451              3013.3216
 Red. masses --      1.0841                 1.0658                 1.0619
 Frc consts  --      5.4494                 5.6662                 5.6809
 IR Inten    --     54.3613                12.6656                54.1395

                     43                     44                     45
                      A                      A                      A
 Frequencies --   3045.8151              3085.0038              3090.8975
 Red. masses --      1.1008                 1.0940                 1.0518
 Frc consts  --      6.0167                 6.1344                 5.9203
 IR Inten    --     19.0947                10.4125                21.4589

                     46                     47                     48
                      A                      A                      A
 Frequencies --   3178.9446              3195.2267              3219.8872
 Red. masses --      1.1187                 1.0853                 1.1052
 Frc consts  --      6.6607                 6.5283                 6.7510
 IR Inten    --     14.6161                 3.9337                13.5151

 - Thermochemistry -
 -------------------
 Temperature   298.150 Kelvin.  Pressure   1.00000 Atm.
 Atom     1 has atomic number  8 and mass  15.99491

 Molecular mass:   123.06841 amu.
 Principal axes and moments of inertia in atomic units:
                           1         2         3
     Eigenvalues --   422.870691726.530491889.28483
           X            0.99999   0.00517   0.00060
           Y           -0.00517   0.99994  -0.00989
           Z           -0.00065   0.00989   0.99995
 This molecule is an asymmetric top.
 Rotational symmetry number  1.
 Rotational temperatures (Kelvin)      0.20482     0.05017     0.04584
 Rotational constants (GHZ):           4.26783     1.04530     0.95525
 Zero-point vibrational energy     386441.4 (Joules/Mol)
                                   92.36172 (Kcal/Mol)
 Warning -- explicit consideration of   9 degrees of freedom as
           vibrations may cause significant error
 Vibrational temperatures:     82.19   100.46   263.07   318.09   406.87
          (Kelvin)            569.74   637.51   645.61   732.24   928.65
                             1060.42  1076.42  1097.12  1133.65  1191.33
                             1323.82  1330.41  1371.89  1392.88  1444.40
                             1481.82  1530.13  1570.32  1599.36  1617.90
                             1672.78  1716.38  1754.62  1765.41  1889.18
                             1921.24  1949.80  1975.00  2041.56  2094.06
                             2139.81  2162.69  2404.41  2631.68  4202.49
                             4321.86  4335.50  4382.25  4438.63  4447.11
                             4573.79  4597.22  4632.70

 Zero-point correction=                           0.147188 (Hartree/Particle)
 Thermal correction to Energy=                    0.155317
 Thermal correction to Enthalpy=                  0.156262
 Thermal correction to Gibbs Free Energy=         0.113727
 Sum of electronic and zero-point Energies=           -401.934507
 Sum of electronic and thermal Energies=              -401.926378
 Sum of electronic and thermal Enthalpies=            -401.925433
 Sum of electronic and thermal Free Energies=         -401.967968

                     E (Thermal)             CV                S
                      KCal/Mol        Cal/Mol-Kelvin    Cal/Mol-Kelvin
 Total                   97.463             30.530             89.522
 Electronic               0.000              0.000              0.000
 Translational            0.889              2.981             40.337
 Rotational               0.889              2.981             28.713
 Vibrational             95.686             24.568             20.472
 Vibration     1          0.596              1.975              4.554
 Vibration     2          0.598              1.969              4.158
 Vibration     3          0.630              1.863              2.299
 Vibration     4          0.648              1.809              1.950
 Vibration     5          0.682              1.706              1.517
 Vibration     6          0.763              1.479              0.977
 Vibration     7          0.803              1.376              0.817
 Vibration     8          0.808              1.364              0.800
 Vibration     9          0.864              1.230              0.636

 Optimization completed.
    -- Stationary point found.
 Normal termination of Gaussian 16 at Tue Mar  9 02:33:05 2021.
