 Gaussian 16, Revision A.03,
 Gaussian 16:  ES64L-G16RevA.03 25-Dec-2016

 -----------------------------------------------
 # opt freq b3lyp/6-31g(2df,p) geom=connectivity
 -----------------------------------------------

 -------------------
 Title Card Required
 -------------------
 Symbolic Z-matrix:
 Charge =  0 Multiplicity = 1

 SCF Done:  E(RB3LYP) =  -289.168251929     A.U. after   20 cycles
 SCF Done:  E(RB3LYP) =  -289.418282512     A.U. after   17 cycles
 SCF Done:  E(RB3LYP) =  -289.643505003     A.U. after   17 cycles
 SCF Done:  E(RB3LYP) =  -289.710449839     A.U. after   17 cycles
 SCF Done:  E(RB3LYP) =  -289.785182670     A.U. after   15 cycles
 SCF Done:  E(RB3LYP) =  -289.830188717     A.U. after   15 cycles
 SCF Done:  E(RB3LYP) =  -289.876186281     A.U. after   15 cycles
 SCF Done:  E(RB3LYP) =  -289.914261118     A.U. after   14 cycles
 SCF Done:  E(RB3LYP) =  -289.949912503     A.U. after   13 cycles
 SCF Done:  E(RB3LYP) =  -289.978942105     A.U. after   12 cycles
 SCF Done:  E(RB3LYP) =  -290.009929323     A.U. after   11 cycles
 SCF Done:  E(RB3LYP) =  -290.010423353     A.U. after   11 cycles
 SCF Done:  E(RB3LYP) =  -290.010602593     A.U. after   11 cycles
 SCF Done:  E(RB3LYP) =  -290.010802749     A.U. after   10 cycles
 SCF Done:  E(RB3LYP) =  -290.010853002     A.U. after   10 cycles
 SCF Done:  E(RB3LYP) =  -290.010856721     A.U. after    8 cycles
 SCF Done:  E(RB3LYP) =  -290.010859129     A.U. after    7 cycles
 SCF Done:  E(RB3LYP) =  -290.010859470     A.U. after    7 cycles
 SCF Done:  E(RB3LYP) =  -290.010859552     A.U. after    6 cycles
 Optimization completed.
    -- Stationary point found.
 Normal termination of Gaussian 16 at Fri Feb 12 01:12:33 2021.

 ----------------------------------------------------------------------
 #N Geom=AllCheck Guess=TCheck SCRF=Check GenChk RB3LYP/6-31G(2df,p) Fr
 eq
 ----------------------------------------------------------------------

 Structure from the checkpoint file:  "qm9900.chk"
 -------------------
 Title Card Required
 -------------------
 Charge =  0 Multiplicity = 1

                         Standard orientation:
 ---------------------------------------------------------------------
 Center     Atomic      Atomic             Coordinates (Angstroms)
 Number     Number       Type             X           Y           Z
 ---------------------------------------------------------------------
      1          6           0       -1.137544   -0.166033   -0.018422
      2          6           0       -2.553004   -0.629129   -0.112080
      3          1           0       -2.617360   -1.721552   -0.118445
      4          1           0       -3.158956   -0.265987    0.730450
      5          1           0       -3.041949   -0.260487   -1.024017
      6          6           0       -0.733376    1.296639    0.059096
      7          1           0       -1.023853    1.728639    1.028782
      8          1           0       -1.190037    1.924639   -0.713886
      9          6           0        0.802207    1.217451   -0.084614
     10          1           0        1.089012    1.358670   -1.141712
     11          1           0        1.342754    1.958888    0.511489
     12          7           0        1.137776   -0.152543    0.338918
     13          6           0       -0.034067   -0.904116    0.149812
     14          1           0        0.032470   -1.984543    0.209043
     15          6           0        2.389704   -0.680995   -0.160773
     16          1           0        3.223759   -0.084398    0.223102
     17          1           0        2.524935   -1.708653    0.189482
     18          1           0        2.451266   -0.680315   -1.264834
 ---------------------------------------------------------------------

 SCF Done:  E(RB3LYP) =  -290.010859552     A.U. after    1 cycles

 The electronic state is 1-A.
 Alpha  occ. eigenvalues --  -14.32398 -10.20325 -10.20240 -10.18935 -10.17768
 Alpha  occ. eigenvalues --  -10.17307 -10.16209  -0.93528  -0.78852  -0.72820
 Alpha  occ. eigenvalues --   -0.69372  -0.64915  -0.57472  -0.53199  -0.48085
 Alpha  occ. eigenvalues --   -0.46968  -0.42738  -0.41653  -0.40410  -0.39695
 Alpha  occ. eigenvalues --   -0.37518  -0.36662  -0.35174  -0.34373  -0.32539
 Alpha  occ. eigenvalues --   -0.28651  -0.17330
 Alpha virt. eigenvalues --    0.04699   0.09629   0.10970   0.13100   0.13812
 Alpha virt. eigenvalues --    0.14645   0.16250   0.16919   0.18102   0.18321
 Alpha virt. eigenvalues --    0.18610   0.19458   0.21591   0.22064   0.23508

 Mulliken charges:
               1
     1  C    0.247385
     2  C   -0.490642
     3  H    0.116711
     4  H    0.115910
     5  H    0.115714
     6  C   -0.310165
     7  H    0.101359
     8  H    0.099047
     9  C   -0.151217
    10  H    0.084126
    11  H    0.101567
    12  N   -0.051541
    13  C   -0.092799
    14  H    0.096787
    15  C   -0.321274
    16  H    0.120337
    17  H    0.121685
    18  H    0.097009
 Sum of Mulliken charges =  -0.00000

 Dipole moment (field-independent basis, Debye):
    X=              0.4067    Y=              0.0061    Z=             -0.4307  Tot=              0.5924
 Quadrupole moment (field-independent basis, Debye-Ang):
   XX=            -42.2006   YY=            -41.5889   ZZ=            -45.6984
   XY=             -0.4717   XZ=             -0.4497   YZ=             -0.0551

  Exact polarizability:  94.273  -3.960  70.953  -0.577  -0.351  52.492
 Approx polarizability: 127.560 -11.188 102.058   2.666  -1.688  81.205

                      1                      2                      3
                      A                      A                      A
 Frequencies --    144.1228               166.7379               198.4341
 Red. masses --      2.1880                 1.7269                 1.0786
 Frc consts  --      0.0268                 0.0283                 0.0250
 IR Inten    --      3.1542                 1.3395                 0.1771

                      4                      5                      6
                      A                      A                      A
 Frequencies --    229.9404               264.0835               331.3190
 Red. masses --      1.1831                 2.3901                 2.7305
 Frc consts  --      0.0369                 0.0982                 0.1766
 IR Inten    --      0.7620                 1.7401                 3.1493

                      7                      8                      9
                      A                      A                      A
 Frequencies --    381.8582               485.6809               590.8120
 Red. masses --      2.3564                 2.2584                 3.9823
 Frc consts  --      0.2024                 0.3139                 0.8190
 IR Inten    --      0.4192                14.1519                 4.1263

                     10                     11                     12
                      A                      A                      A
 Frequencies --    606.6325               802.9967               883.5887
 Red. masses --      3.8319                 1.5765                 1.3546
 Frc consts  --      0.8308                 0.5989                 0.6231
 IR Inten    --      4.1392                 6.2670                14.8819

                     13                     14                     15
                      A                      A                      A
 Frequencies --    888.8504               940.6587               969.8728
 Red. masses --      4.3355                 2.1855                 2.3302
 Frc consts  --      2.0181                 1.1394                 1.2915
 IR Inten    --      3.6513                 8.9819                 0.4062

                     16                     17                     18
                      A                      A                      A
 Frequencies --   1025.8010              1027.5081              1061.0575
 Red. masses --      1.4046                 1.4740                 1.9031
 Frc consts  --      0.8708                 0.9169                 1.2624
 IR Inten    --      7.9383                 4.3465                30.5681

                     19                     20                     21
                      A                      A                      A
 Frequencies --   1099.6822              1145.4842              1154.5414
 Red. masses --      1.6496                 1.4134                 1.9741
 Frc consts  --      1.1753                 1.0927                 1.5504
 IR Inten    --      0.5648                20.3717                14.2940

                     22                     23                     24
                      A                      A                      A
 Frequencies --   1197.3562              1220.1995              1270.4186
 Red. masses --      1.3410                 1.3573                 2.1703
 Frc consts  --      1.1328                 1.1907                 2.0638
 IR Inten    --     24.3550                 7.2695                 2.6134

                     25                     26                     27
                      A                      A                      A
 Frequencies --   1295.0497              1311.3677              1333.6207
 Red. masses --      1.6841                 1.7152                 1.9648
 Frc consts  --      1.6642                 1.7378                 2.0589
 IR Inten    --     32.8887                38.7234                 6.0898

                     28                     29                     30
                      A                      A                      A
 Frequencies --   1403.7270              1421.6463              1459.9192
 Red. masses --      1.7060                 1.3810                 1.1883
 Frc consts  --      1.9806                 1.6444                 1.4922
 IR Inten    --     42.6317                 1.4309                 2.1105

                     31                     32                     33
                      A                      A                      A
 Frequencies --   1476.5353              1484.6002              1490.3569
 Red. masses --      1.0440                 1.0510                 1.0891
 Frc consts  --      1.3411                 1.3648                 1.4253
 IR Inten    --      5.4225                17.4228                 1.2675

                     34                     35                     36
                      A                      A                      A
 Frequencies --   1496.9804              1506.8108              1521.0660
 Red. masses --      1.0648                 1.0712                 1.1012
 Frc consts  --      1.4059                 1.4330                 1.5011
 IR Inten    --      5.0403                 4.6987                 3.5899

                     37                     38                     39
                      A                      A                      A
 Frequencies --   1723.4391              2932.5588              2942.7932
 Red. masses --      6.2579                 1.0602                 1.0730
 Frc consts  --     10.9514                 5.3718                 5.4749
 IR Inten    --     32.9618                90.4583                95.0773

                     40                     41                     42
                      A                      A                      A
 Frequencies --   2987.8052              2998.5238              3036.3655
 Red. masses --      1.0689                 1.0419                 1.0971
 Frc consts  --      5.6221                 5.5195                 5.9594
 IR Inten    --     39.3826                78.3433                31.1973

                     43                     44                     45
                      A                      A                      A
 Frequencies --   3053.0947              3060.2739              3071.0902
 Red. masses --      1.0897                 1.0726                 1.0906
 Frc consts  --      5.9847                 5.9187                 6.0602
 IR Inten    --     38.8166                35.3166                46.3989

                     46                     47                     48
                      A                      A                      A
 Frequencies --   3095.9818              3104.6502              3198.3304
 Red. masses --      1.0968                 1.1022                 1.0950
 Frc consts  --      6.1942                 6.2593                 6.5995
 IR Inten    --     23.4145                21.7734                12.3305

 - Thermochemistry -
 -------------------
 Temperature   298.150 Kelvin.  Pressure   1.00000 Atm.
 Atom     1 has atomic number  6 and mass  12.00000

 Molecular mass:    97.08915 amu.
 Principal axes and moments of inertia in atomic units:
                           1         2         3
     Eigenvalues --   323.81128 922.355511182.24314
           X            0.99998  -0.00074  -0.00634
           Y            0.00076   0.99999   0.00316
           Z            0.00633  -0.00317   0.99997
 This molecule is an asymmetric top.
 Rotational symmetry number  1.
 Rotational temperatures (Kelvin)      0.26748     0.09391     0.07326
 Rotational constants (GHZ):           5.57344     1.95667     1.52654
 Zero-point vibrational energy     421649.1 (Joules/Mol)
                                  100.77655 (Kcal/Mol)
 Warning -- explicit consideration of  10 degrees of freedom as
           vibrations may cause significant error
 Vibrational temperatures:    207.36   239.90   285.50   330.83   379.96
          (Kelvin)            476.69   549.41   698.79   850.05   872.81
                             1155.33  1271.29  1278.86  1353.40  1395.43
                             1475.90  1478.36  1526.63  1582.20  1648.10
                             1661.13  1722.73  1755.59  1827.85  1863.29
                             1886.77  1918.78  2019.65  2045.43  2100.50
                             2124.41  2136.01  2144.29  2153.82  2167.96
                             2188.47  2479.64  4219.30  4234.02  4298.79
                             4314.21  4368.65  4392.72  4403.05  4418.61
                             4454.43  4466.90  4601.68

 Zero-point correction=                           0.160598 (Hartree/Particle)
 Thermal correction to Energy=                    0.168079
 Thermal correction to Enthalpy=                  0.169024
 Thermal correction to Gibbs Free Energy=         0.129494
 Sum of electronic and zero-point Energies=           -289.850262
 Sum of electronic and thermal Energies=              -289.842780
 Sum of electronic and thermal Enthalpies=            -289.841836
 Sum of electronic and thermal Free Energies=         -289.881366

                     E (Thermal)             CV                S
                      KCal/Mol        Cal/Mol-Kelvin    Cal/Mol-Kelvin
 Total                  105.471             27.686             83.198
 Electronic               0.000              0.000              0.000
 Translational            0.889              2.981             39.630
 Rotational               0.889              2.981             27.359
 Vibrational            103.694             21.724             16.209
 Vibration     1          0.616              1.909              2.748
 Vibration     2          0.624              1.883              2.472
 Vibration     3          0.637              1.842              2.148
 Vibration     4          0.652              1.795              1.879
 Vibration     5          0.671              1.739              1.635
 Vibration     6          0.714              1.613              1.254
 Vibration     7          0.751              1.509              1.032
 Vibration     8          0.842              1.282              0.695
 Vibration     9          0.948              1.051              0.466
 Vibration    10          0.965              1.018              0.438

 Optimization completed.
    -- Stationary point found.
 Normal termination of Gaussian 16 at Fri Feb 12 01:37:08 2021.
