 Gaussian 16, Revision A.03,
 Gaussian 16:  ES64L-G16RevA.03 25-Dec-2016

 -----------------------------
 # opt freq b3lyp/6-31g(2df,p)
 -----------------------------

 -------------------
 Title Card Required
 -------------------
 Symbolic Z-matrix:
 Charge =  0 Multiplicity = 1

 SCF Done:  E(RB3LYP) =  -365.990505478     A.U. after   13 cycles
 SCF Done:  E(RB3LYP) =  -366.032281841     A.U. after   11 cycles
 SCF Done:  E(RB3LYP) =  -366.061837891     A.U. after   11 cycles
 SCF Done:  E(RB3LYP) =  -366.064615320     A.U. after    9 cycles
 SCF Done:  E(RB3LYP) =  -366.068092244     A.U. after   10 cycles
 SCF Done:  E(RB3LYP) =  -366.070732981     A.U. after   10 cycles
 SCF Done:  E(RB3LYP) =  -366.081358967     A.U. after   11 cycles
 SCF Done:  E(RB3LYP) =  -366.103110877     A.U. after   11 cycles
 SCF Done:  E(RB3LYP) =  -366.119655948     A.U. after   11 cycles
 SCF Done:  E(RB3LYP) =  -366.143593845     A.U. after   11 cycles
 SCF Done:  E(RB3LYP) =  -366.160850155     A.U. after   10 cycles
 SCF Done:  E(RB3LYP) =  -366.167440071     A.U. after   10 cycles
 SCF Done:  E(RB3LYP) =  -366.168559838     A.U. after   10 cycles
 SCF Done:  E(RB3LYP) =  -366.168703908     A.U. after   10 cycles
 SCF Done:  E(RB3LYP) =  -366.169093446     A.U. after   10 cycles
 SCF Done:  E(RB3LYP) =  -366.169106582     A.U. after    7 cycles
 SCF Done:  E(RB3LYP) =  -366.169110448     A.U. after    7 cycles
 SCF Done:  E(RB3LYP) =  -366.169111248     A.U. after    6 cycles
 Optimization completed.
    -- Stationary point found.
 Normal termination of Gaussian 16 at Mon Jul  4 00:30:21 2022.

 ----------------------------------------------------------------------
 #N Geom=AllCheck Guess=TCheck SCRF=Check GenChk RB3LYP/6-31G(2df,p) Fr
 eq
 ----------------------------------------------------------------------

 Structure from the checkpoint file:  "C1C2C3CN1CC1C2C31.chk"
 -------------------
 Title Card Required
 -------------------
 Charge =  0 Multiplicity = 1

                         Standard orientation:
 ---------------------------------------------------------------------
 Center     Atomic      Atomic             Coordinates (Angstroms)
 Number     Number       Type             X           Y           Z
 ---------------------------------------------------------------------
      1          6           0       -1.125663   -0.361552   -1.155021
      2          6           0        0.170520   -1.100032   -0.788594
      3          6           0        0.170558   -1.099984    0.788581
      4          6           0       -1.125894   -0.361703    1.154896
      5          7           0       -1.377730    0.533746   -0.000036
      6          6           0       -0.358868    1.605172    0.000045
      7          6           0        1.067235    1.069101    0.000127
      8          6           0        1.414309   -0.187723   -0.762932
      9          6           0        1.414231   -0.187449    0.762961
     10          1           0       -1.968586   -1.056559   -1.249921
     11          1           0       -1.055457    0.220727   -2.078755
     12          1           0        0.318217   -2.067230   -1.269466
     13          1           0        0.318512   -2.067009    1.269904
     14          1           0       -1.056043    0.220558    2.078676
     15          1           0       -1.968792   -1.056767    1.249378
     16          1           0       -0.529405    2.235110    0.881987
     17          1           0       -0.529263    2.235245   -0.881858
     18          1           0        1.850188    1.823304   -0.000217
     19          1           0        2.253184   -0.238971   -1.446926
     20          1           0        2.252994   -0.239619    1.447071
 ---------------------------------------------------------------------

 SCF Done:  E(RB3LYP) =  -366.169111248     A.U. after    1 cycles

 The electronic state is 1-A.
 Alpha  occ. eigenvalues --  -14.30965 -10.19748 -10.19327 -10.19326 -10.18505
 Alpha  occ. eigenvalues --  -10.18421 -10.18402 -10.18148 -10.18132  -0.94188
 Alpha  occ. eigenvalues --   -0.86204  -0.76237  -0.72017  -0.65576  -0.60980
 Alpha  occ. eigenvalues --   -0.60872  -0.53556  -0.52027  -0.50605  -0.45807
 Alpha  occ. eigenvalues --   -0.44419  -0.44289  -0.42202  -0.39287  -0.38160
 Alpha  occ. eigenvalues --   -0.36349  -0.34997  -0.33584  -0.31711  -0.30361
 Alpha  occ. eigenvalues --   -0.26388  -0.26240  -0.19988
 Alpha virt. eigenvalues --    0.09080   0.10441   0.10675   0.13275   0.13448
 Alpha virt. eigenvalues --    0.14146   0.15831   0.16114   0.16992   0.17253
 Alpha virt. eigenvalues --    0.18097   0.19298   0.19539   0.20071   0.21128

 Mulliken charges:
               1
     1  C   -0.185771
     2  C   -0.041206
     3  C   -0.041218
     4  C   -0.185782
     5  N   -0.091828
     6  C   -0.199117
     7  C   -0.033555
     8  C   -0.080775
     9  C   -0.080762
    10  H    0.094081
    11  H    0.097894
    12  H    0.063850
    13  H    0.063855
    14  H    0.097891
    15  H    0.094102
    16  H    0.096349
    17  H    0.096359
    18  H    0.080149
    19  H    0.077756
    20  H    0.077730
 Sum of Mulliken charges =  -0.00000

 Dipole moment (field-independent basis, Debye):
    X=              1.1512    Y=             -0.5014    Z=              0.0001  Tot=              1.2556
 Quadrupole moment (field-independent basis, Debye-Ang):
   XX=            -56.3019   YY=            -52.6273   ZZ=            -52.5640
   XY=              2.3560   XZ=             -0.0005   YZ=             -0.0012

  Exact polarizability:  79.219   2.673  80.954  -0.001  -0.001  78.119
 Approx polarizability: 113.944   2.642 121.504  -0.004   0.002 122.714

                      1                      2                      3
                      A                      A                      A
 Frequencies --    297.7270               401.7678               420.4286
 Red. masses --      2.0279                 2.6842                 1.8527
 Frc consts  --      0.1059                 0.2553                 0.1930
 IR Inten    --      0.0434                 0.0924                 0.4299

                      4                      5                      6
                      A                      A                      A
 Frequencies --    481.8422               485.2079               629.3041
 Red. masses --      1.7819                 5.7990                 4.6352
 Frc consts  --      0.2437                 0.8044                 1.0815
 IR Inten    --      0.4725                 0.7576                 0.1042

                      7                      8                      9
                      A                      A                      A
 Frequencies --    632.0187               744.5175               760.8772
 Red. masses --      4.6588                 2.2051                 3.5910
 Frc consts  --      1.0964                 0.7202                 1.2249
 IR Inten    --      0.1621                 1.7235                 3.6183

                     10                     11                     12
                      A                      A                      A
 Frequencies --    784.6532               793.2605               838.8280
 Red. masses --      1.8613                 3.5797                 2.8318
 Frc consts  --      0.6752                 1.3272                 1.1740
 IR Inten    --      4.1825                24.7851                 0.6268

                     13                     14                     15
                      A                      A                      A
 Frequencies --    857.6978               878.6973               894.3845
 Red. masses --      3.4821                 1.8830                 2.0311
 Frc consts  --      1.5092                 0.8566                 0.9573
 IR Inten    --      1.1266                21.0387                 4.9450

                     16                     17                     18
                      A                      A                      A
 Frequencies --    931.8100               962.8490               981.6381
 Red. masses --      1.6854                 1.8877                 1.6534
 Frc consts  --      0.8622                 1.0311                 0.9387
 IR Inten    --      3.8338                 0.9392                 0.3583

                     19                     20                     21
                      A                      A                      A
 Frequencies --    992.1995              1025.6880              1031.2228
 Red. masses --      2.1030                 3.0327                 1.9631
 Frc consts  --      1.2198                 1.8798                 1.2300
 IR Inten    --      2.6427                 9.9461                 9.9527

                     22                     23                     24
                      A                      A                      A
 Frequencies --   1044.4685              1060.2960              1068.4444
 Red. masses --      1.8641                 1.3186                 2.1972
 Frc consts  --      1.1981                 0.8734                 1.4779
 IR Inten    --      2.5532                 0.6829                 3.6217

                     25                     26                     27
                      A                      A                      A
 Frequencies --   1088.8248              1112.3183              1130.5931
 Red. masses --      1.7045                 1.7688                 1.3472
 Frc consts  --      1.1906                 1.2894                 1.0146
 IR Inten    --      0.6049                 0.9062                 3.1248

                     28                     29                     30
                      A                      A                      A
 Frequencies --   1161.9567              1188.0202              1238.4556
 Red. masses --      2.3483                 1.2219                 1.3869
 Frc consts  --      1.8681                 1.0161                 1.2533
 IR Inten    --      2.7005                 1.5547                 0.4211

                     31                     32                     33
                      A                      A                      A
 Frequencies --   1277.0220              1279.3083              1293.0298
 Red. masses --      1.9229                 1.4989                 1.7499
 Frc consts  --      1.8476                 1.4454                 1.7237
 IR Inten    --      0.4856                 3.5112                 0.8261

                     34                     35                     36
                      A                      A                      A
 Frequencies --   1307.7724              1311.2170              1323.9156
 Red. masses --      1.4482                 1.3241                 1.4972
 Frc consts  --      1.4593                 1.3413                 1.5462
 IR Inten    --      1.0891                 3.1296                 4.8004

                     37                     38                     39
                      A                      A                      A
 Frequencies --   1336.7697              1355.2378              1372.3153
 Red. masses --      1.3972                 1.5384                 1.5552
 Frc consts  --      1.4711                 1.6648                 1.7256
 IR Inten    --      0.0068                 1.4221                 7.6053

                     40                     41                     42
                      A                      A                      A
 Frequencies --   1433.2331              1484.1374              1485.1259
 Red. masses --      2.1934                 1.0885                 1.0921
 Frc consts  --      2.6546                 1.4127                 1.4192
 IR Inten    --      0.5667                 3.0752                 1.9510

                     43                     44                     45
                      A                      A                      A
 Frequencies --   1501.3117              3014.4875              3025.2338
 Red. masses --      1.1110                 1.0580                 1.0626
 Frc consts  --      1.4754                 5.6644                 5.7295
 IR Inten    --      1.3818                65.6688                34.3894

                     46                     47                     48
                      A                      A                      A
 Frequencies --   3031.1383              3052.0222              3086.1677
 Red. masses --      1.0642                 1.1055                 1.1012
 Frc consts  --      5.7606                 6.0672                 6.1793
 IR Inten    --     64.1352                25.5801                32.6280

                     49                     50                     51
                      A                      A                      A
 Frequencies --   3088.5839              3099.1881              3109.0317
 Red. masses --      1.1030                 1.0887                 1.0883
 Frc consts  --      6.1994                 6.1611                 6.1982
 IR Inten    --     24.9457                15.2296                56.3757

                     52                     53                     54
                      A                      A                      A
 Frequencies --   3140.2870              3169.4645              3182.0243
 Red. masses --      1.0873                 1.0884                 1.0978
 Frc consts  --      6.3176                 6.4416                 6.5492
 IR Inten    --     19.3795                24.2601                31.8204

 - Thermochemistry -
 -------------------
 Temperature   298.150 Kelvin.  Pressure   1.00000 Atm.
 Atom     1 has atomic number  6 and mass  12.00000

 Molecular mass:   121.08915 amu.
 Principal axes and moments of inertia in atomic units:
                           1         2         3
     Eigenvalues --   670.70339 811.91543 898.36233
           X            0.99831   0.05805  -0.00001
           Y           -0.05805   0.99831  -0.00008
           Z            0.00000   0.00008   1.00000
 This molecule is an asymmetric top.
 Rotational symmetry number  1.
 Warning -- assumption of classical behavior for rotation
           may cause significant error
 Rotational temperatures (Kelvin)      0.12914     0.10668     0.09641
 Rotational constants (GHZ):           2.69082     2.22282     2.00892
 Zero-point vibrational energy     464617.8 (Joules/Mol)
                                  111.04631 (Kcal/Mol)
 Warning -- explicit consideration of   5 degrees of freedom as
           vibrations may cause significant error
 Vibrational temperatures:    428.36   578.05   604.90   693.26   698.11
          (Kelvin)            905.43   909.33  1071.19  1094.73  1128.94
                             1141.32  1206.89  1234.04  1264.25  1286.82
                             1340.67  1385.32  1412.36  1427.55  1475.74
                             1483.70  1502.76  1525.53  1537.25  1566.58
                             1600.38  1626.67  1671.80  1709.30  1781.86
                             1837.35  1840.64  1860.38  1881.59  1886.55
                             1904.82  1923.31  1949.88  1974.46  2062.10
                             2135.34  2136.76  2160.05  4337.18  4352.64
                             4361.13  4391.18  4440.31  4443.78  4459.04
                             4473.20  4518.17  4560.15  4578.22

 Zero-point correction=                           0.176964 (Hartree/Particle)
 Thermal correction to Energy=                    0.182734
 Thermal correction to Enthalpy=                  0.183679
 Thermal correction to Gibbs Free Energy=         0.147366
 Sum of electronic and zero-point Energies=           -365.992148
 Sum of electronic and thermal Energies=              -365.986377
 Sum of electronic and thermal Enthalpies=            -365.985433
 Sum of electronic and thermal Free Energies=         -366.021745

                     E (Thermal)             CV                S
                      KCal/Mol        Cal/Mol-Kelvin    Cal/Mol-Kelvin
 Total                  114.668             26.371             76.426
 Electronic               0.000              0.000              0.000
 Translational            0.889              2.981             40.288
 Rotational               0.889              2.981             27.683
 Vibrational            112.890             20.409              8.455
 Vibration     1          0.691              1.678              1.430
 Vibration     2          0.767              1.466              0.956
 Vibration     3          0.783              1.426              0.891
 Vibration     4          0.838              1.290              0.705
 Vibration     5          0.841              1.283              0.696

 Optimization completed.
    -- Stationary point found.
 Normal termination of Gaussian 16 at Mon Jul  4 01:08:18 2022.
