 Gaussian 16, Revision A.03,
 Gaussian 16:  ES64L-G16RevA.03 25-Dec-2016

 -----------------------------
 # opt freq b3lyp/6-31g(2df,p)
 -----------------------------

 -------------------
 Title Card Required
 -------------------
 Symbolic Z-matrix:
 Charge =  0 Multiplicity = 1

 SCF Done:  E(RB3LYP) =  -367.358493474     A.U. after   12 cycles
 SCF Done:  E(RB3LYP) =  -367.381091509     A.U. after   10 cycles
 SCF Done:  E(RB3LYP) =  -367.386992619     A.U. after   10 cycles
 SCF Done:  E(RB3LYP) =  -367.388205822     A.U. after    9 cycles
 SCF Done:  E(RB3LYP) =  -367.388679303     A.U. after   10 cycles
 SCF Done:  E(RB3LYP) =  -367.388815452     A.U. after    9 cycles
 SCF Done:  E(RB3LYP) =  -367.388836773     A.U. after    8 cycles
 SCF Done:  E(RB3LYP) =  -367.388843070     A.U. after    8 cycles
 SCF Done:  E(RB3LYP) =  -367.388843489     A.U. after    6 cycles
 SCF Done:  E(RB3LYP) =  -367.388843688     A.U. after    6 cycles
 SCF Done:  E(RB3LYP) =  -367.391484409     A.U. after   10 cycles
 SCF Done:  E(RB3LYP) =  -367.391738026     A.U. after   10 cycles
 SCF Done:  E(RB3LYP) =  -367.391782556     A.U. after    9 cycles
 SCF Done:  E(RB3LYP) =  -367.391793199     A.U. after    9 cycles
 SCF Done:  E(RB3LYP) =  -367.391795527     A.U. after    7 cycles
 SCF Done:  E(RB3LYP) =  -367.391796765     A.U. after    7 cycles
 SCF Done:  E(RB3LYP) =  -367.391797481     A.U. after    7 cycles
 SCF Done:  E(RB3LYP) =  -367.391797923     A.U. after    7 cycles
 SCF Done:  E(RB3LYP) =  -367.391798054     A.U. after    6 cycles
 Optimization completed.
    -- Stationary point found.
 Normal termination of Gaussian 16 at Thu Aug  4 14:21:57 2022.

 ----------------------------------------------------------------------
 #N Geom=AllCheck Guess=TCheck SCRF=Check GenChk RB3LYP/6-31G(2df,p) Fr
 eq
 ----------------------------------------------------------------------

 Structure from the checkpoint file:  "C1CC2C1NC1CCC12.chk"
 -------------------
 Title Card Required
 -------------------
 Charge =  0 Multiplicity = 1

                         Standard orientation:
 ---------------------------------------------------------------------
 Center     Atomic      Atomic             Coordinates (Angstroms)
 Number     Number       Type             X           Y           Z
 ---------------------------------------------------------------------
      1          6           0        2.399651    0.361783   -0.259552
      2          6           0        1.936757   -0.941089    0.451259
      3          6           0        0.580475   -0.852165   -0.314918
      4          6           0        0.921080    0.631152   -0.650519
      5          7           0        0.188862    1.369180    0.381971
      6          6           0       -1.030579    0.651737    0.718264
      7          6           0       -2.205430    0.567447   -0.319065
      8          6           0       -2.032157   -0.976063   -0.369277
      9          6           0       -0.729436   -0.862112    0.474716
     10          1           0        3.020900    0.152654   -1.135654
     11          1           0        2.883127    1.127499    0.350462
     12          1           0        1.805831   -0.804133    1.527221
     13          1           0        2.536685   -1.838641    0.283205
     14          1           0        0.558180   -1.510437   -1.187104
     15          1           0        0.735688    0.987564   -1.672672
     16          1           0        0.033534    2.340997    0.141978
     17          1           0       -1.368498    0.922273    1.723155
     18          1           0       -1.970939    1.068418   -1.262837
     19          1           0       -3.176453    0.929095    0.028711
     20          1           0       -1.919014   -1.421725   -1.361897
     21          1           0       -2.828691   -1.511590    0.153345
     22          1           0       -0.674545   -1.510362    1.352841
 ---------------------------------------------------------------------

 SCF Done:  E(RB3LYP) =  -367.391798054     A.U. after    1 cycles

 The electronic state is 1-A.
 Alpha  occ. eigenvalues --  -14.30325 -10.19896 -10.19794 -10.17645 -10.17509
 Alpha  occ. eigenvalues --  -10.17364 -10.17071 -10.16984 -10.16759  -0.91654
 Alpha  occ. eigenvalues --   -0.81297  -0.80111  -0.68524  -0.65281  -0.61697
 Alpha  occ. eigenvalues --   -0.61168  -0.53116  -0.52909  -0.49925  -0.48478
 Alpha  occ. eigenvalues --   -0.45455  -0.42649  -0.42174  -0.38837  -0.37254
 Alpha  occ. eigenvalues --   -0.35605  -0.34680  -0.33260  -0.32234  -0.31684
 Alpha  occ. eigenvalues --   -0.28979  -0.28337  -0.27721  -0.20598
 Alpha virt. eigenvalues --    0.08188   0.08778   0.10224   0.12302   0.13306
 Alpha virt. eigenvalues --    0.13760   0.14840   0.15405   0.16370   0.16898
 Alpha virt. eigenvalues --    0.17571   0.18585   0.19725   0.20222   0.21112

 Mulliken charges:
               1
     1  C   -0.214046
     2  C   -0.239031
     3  C    0.023219
     4  C   -0.004510
     5  N   -0.306096
     6  C    0.030978
     7  C   -0.237650
     8  C   -0.236547
     9  C   -0.029853
    10  H    0.089452
    11  H    0.094985
    12  H    0.105793
    13  H    0.091492
    14  H    0.063697
    15  H    0.048828
    16  H    0.212567
    17  H    0.066131
    18  H    0.093413
    19  H    0.092037
    20  H    0.091998
    21  H    0.098078
    22  H    0.065065
 Sum of Mulliken charges =  -0.00000

 Dipole moment (field-independent basis, Debye):
    X=             -0.4998    Y=              0.1502    Z=             -0.5763  Tot=              0.7775
 Quadrupole moment (field-independent basis, Debye-Ang):
   XX=            -56.1895   YY=            -53.6854   ZZ=            -55.5216
   XY=             -0.9061   XZ=             -1.6044   YZ=             -0.9082

  Exact polarizability:  98.630  -0.443  81.249  -1.657  -0.430  75.043
 Approx polarizability: 125.184  -0.078 119.864  -2.942   0.279 116.877

                      1                      2                      3
                      A                      A                      A
 Frequencies --     78.8972               133.6988               230.6627
 Red. masses --      2.0939                 2.5225                 2.2691
 Frc consts  --      0.0077                 0.0266                 0.0711
 IR Inten    --      0.2987                 0.5543                 0.1001

                      4                      5                      6
                      A                      A                      A
 Frequencies --    302.2225               363.8482               404.4287
 Red. masses --      2.2024                 2.9661                 2.1186
 Frc consts  --      0.1185                 0.2313                 0.2042
 IR Inten    --      0.1462                 7.8214                13.1275

                      7                      8                      9
                      A                      A                      A
 Frequencies --    595.4181               613.1024               665.3802
 Red. masses --      2.6489                 3.5186                 1.8405
 Frc consts  --      0.5533                 0.7793                 0.4801
 IR Inten    --     45.0360                 0.9897                 4.1430

                     10                     11                     12
                      A                      A                      A
 Frequencies --    717.7482               734.7569               770.2768
 Red. masses --      1.8463                 1.6008                 1.5053
 Frc consts  --      0.5604                 0.5092                 0.5262
 IR Inten    --      4.6760                 9.7987                23.2963

                     13                     14                     15
                      A                      A                      A
 Frequencies --    797.8960               851.6793               871.0786
 Red. masses --      1.7298                 3.0038                 2.4067
 Frc consts  --      0.6488                 1.2837                 1.0759
 IR Inten    --      0.1281                 0.2783                 0.3904

                     16                     17                     18
                      A                      A                      A
 Frequencies --    886.3023               905.4665               944.6825
 Red. masses --      2.1661                 2.3942                 1.8781
 Frc consts  --      1.0025                 1.1565                 0.9875
 IR Inten    --      4.0710                 0.7009                 2.4200

                     19                     20                     21
                      A                      A                      A
 Frequencies --    950.3555               957.9095               978.9897
 Red. masses --      2.1717                 2.6066                 2.9928
 Frc consts  --      1.1556                 1.4092                 1.6900
 IR Inten    --      3.0405                 0.1575                 2.9839

                     22                     23                     24
                      A                      A                      A
 Frequencies --   1016.6116              1018.5938              1057.0675
 Red. masses --      2.1903                 1.5047                 1.6663
 Frc consts  --      1.3337                 0.9198                 1.0970
 IR Inten    --      0.9458                 9.4536                 5.2801

                     25                     26                     27
                      A                      A                      A
 Frequencies --   1084.8987              1094.4054              1160.8278
 Red. masses --      2.2050                 1.6458                 2.0532
 Frc consts  --      1.5291                 1.1614                 1.6301
 IR Inten    --      1.2944                11.7097                11.1979

                     28                     29                     30
                      A                      A                      A
 Frequencies --   1167.2510              1177.6406              1188.3249
 Red. masses --      1.7239                 1.5719                 1.3868
 Frc consts  --      1.3839                 1.2844                 1.1538
 IR Inten    --      8.0413                 1.1759                 1.2997

                     31                     32                     33
                      A                      A                      A
 Frequencies --   1223.6097              1234.4319              1249.5400
 Red. masses --      1.3209                 1.3902                 1.4000
 Frc consts  --      1.1652                 1.2481                 1.2878
 IR Inten    --      4.4515                 0.7429                 5.6547

                     34                     35                     36
                      A                      A                      A
 Frequencies --   1257.5111              1262.4172              1265.5511
 Red. masses --      1.3667                 1.4193                 1.4460
 Frc consts  --      1.2734                 1.3327                 1.3646
 IR Inten    --      2.8608                 0.3260                 2.6637

                     37                     38                     39
                      A                      A                      A
 Frequencies --   1272.7714              1281.9241              1304.4518
 Red. masses --      1.5079                 1.5518                 1.3710
 Frc consts  --      1.4392                 1.5025                 1.3745
 IR Inten    --      0.6666                 2.7134                 6.9344

                     40                     41                     42
                      A                      A                      A
 Frequencies --   1327.4158              1340.5478              1379.7965
 Red. masses --      1.3270                 1.5854                 1.4647
 Frc consts  --      1.3776                 1.6787                 1.6430
 IR Inten    --     36.1198                 0.5724                 4.1244

                     43                     44                     45
                      A                      A                      A
 Frequencies --   1426.0503              1470.4261              1474.3011
 Red. masses --      1.3649                 1.0893                 1.0840
 Frc consts  --      1.6354                 1.3877                 1.3882
 IR Inten    --     10.2621                 0.7384                 1.0611

                     46                     47                     48
                      A                      A                      A
 Frequencies --   1488.4264              1493.2895              2994.6536
 Red. masses --      1.1273                 1.1194                 1.0853
 Frc consts  --      1.4715                 1.4707                 5.7344
 IR Inten    --      0.6315                 3.8646                61.8009

                     49                     50                     51
                      A                      A                      A
 Frequencies --   3047.8021              3050.8133              3054.0907
 Red. masses --      1.0578                 1.0850                 1.0598
 Frc consts  --      5.7893                 5.9500                 5.8242
 IR Inten    --     37.6471                38.3085                54.4850

                     52                     53                     54
                      A                      A                      A
 Frequencies --   3054.9444              3062.7761              3069.4938
 Red. masses --      1.0630                 1.0608                 1.0874
 Frc consts  --      5.8450                 5.8627                 6.0361
 IR Inten    --     39.2067                35.6498                31.7218

                     55                     56                     57
                      A                      A                      A
 Frequencies --   3074.7789              3092.9047              3107.5388
 Red. masses --      1.0866                 1.1067                 1.1063
 Frc consts  --      6.0529                 6.2377                 6.2945
 IR Inten    --     23.1986                 4.8374                 7.2927

                     58                     59                     60
                      A                      A                      A
 Frequencies --   3112.7281              3122.6685              3545.8836
 Red. masses --      1.1066                 1.1073                 1.0746
 Frc consts  --      6.3173                 6.3616                 7.9609
 IR Inten    --     65.1770                52.2360                 0.5718

 - Thermochemistry -
 -------------------
 Temperature   298.150 Kelvin.  Pressure   1.00000 Atm.
 Atom     1 has atomic number  6 and mass  12.00000

 Molecular mass:   123.10480 amu.
 Principal axes and moments of inertia in atomic units:
                           1         2         3
     Eigenvalues --   516.696301257.173841490.03449
           X            0.99999  -0.00348   0.00178
           Y            0.00351   0.99985  -0.01703
           Z           -0.00172   0.01704   0.99985
 This molecule is an asymmetric top.
 Rotational symmetry number  1.
 Warning -- assumption of classical behavior for rotation
           may cause significant error
 Rotational temperatures (Kelvin)      0.16763     0.06890     0.05813
 Rotational constants (GHZ):           3.49285     1.43555     1.21121
 Zero-point vibrational energy     519561.9 (Joules/Mol)
                                  124.17827 (Kcal/Mol)
 Warning -- explicit consideration of   8 degrees of freedom as
           vibrations may cause significant error
 Vibrational temperatures:    113.52   192.36   331.87   434.83   523.50
          (Kelvin)            581.88   856.67   882.12   957.33  1032.68
                             1057.15  1108.26  1147.99  1225.38  1253.29
                             1275.19  1302.76  1359.19  1367.35  1378.22
                             1408.55  1462.68  1465.53  1520.88  1560.93
                             1574.61  1670.17  1679.41  1694.36  1709.73
                             1760.50  1776.07  1797.81  1809.28  1816.34
                             1820.85  1831.23  1844.40  1876.82  1909.86
                             1928.75  1985.22  2051.77  2115.62  2121.19
                             2141.51  2148.51  4308.64  4385.11  4389.44
                             4394.16  4395.38  4406.65  4416.32  4423.92
                             4450.00  4471.06  4478.52  4492.82  5101.74

 Zero-point correction=                           0.197891 (Hartree/Particle)
 Thermal correction to Energy=                    0.205375
 Thermal correction to Enthalpy=                  0.206319
 Thermal correction to Gibbs Free Energy=         0.165881
 Sum of electronic and zero-point Energies=           -367.193907
 Sum of electronic and thermal Energies=              -367.186423
 Sum of electronic and thermal Enthalpies=            -367.185479
 Sum of electronic and thermal Free Energies=         -367.225917

                     E (Thermal)             CV                S
                      KCal/Mol        Cal/Mol-Kelvin    Cal/Mol-Kelvin
 Total                  128.875             30.816             85.111
 Electronic               0.000              0.000              0.000
 Translational            0.889              2.981             40.338
 Rotational               0.889              2.981             28.361
 Vibrational            127.097             24.854             16.412
 Vibration     1          0.600              1.963              3.918
 Vibration     2          0.613              1.920              2.892
 Vibration     3          0.652              1.794              1.874
 Vibration     4          0.694              1.669              1.405
 Vibration     5          0.737              1.547              1.106
 Vibration     6          0.770              1.461              0.947
 Vibration     7          0.953              1.042              0.458
 Vibration     8          0.972              1.004              0.428

 Optimization completed.
    -- Stationary point found.
 Normal termination of Gaussian 16 at Thu Aug  4 15:02:54 2022.
