 Gaussian 16, Revision A.03,
 Gaussian 16:  ES64L-G16RevA.03 25-Dec-2016

 -----------------------------
 # opt freq b3lyp/6-31g(2df,p)
 -----------------------------

 -------------------
 Title Card Required
 -------------------
 Symbolic Z-matrix:
 Charge =  0 Multiplicity = 1

 SCF Done:  E(RB3LYP) =  -411.867414588     A.U. after   15 cycles
 SCF Done:  E(RB3LYP) =  -411.870906882     A.U. after   12 cycles
 SCF Done:  E(RB3LYP) =  -411.871364209     A.U. after   12 cycles
 SCF Done:  E(RB3LYP) =  -411.871428922     A.U. after   10 cycles
 SCF Done:  E(RB3LYP) =  -411.871437732     A.U. after    9 cycles
 SCF Done:  E(RB3LYP) =  -411.871439962     A.U. after    9 cycles
 Optimization completed.
    -- Stationary point found.
 Normal termination of Gaussian 16 at Thu Aug  4 02:28:13 2022.

 ----------------------------------------------------------------------
 #N Geom=AllCheck Guess=TCheck SCRF=Check GenChk RB3LYP/6-31G(2df,p) Fr
 eq
 ----------------------------------------------------------------------

 Structure from the checkpoint file:  "c1cc2cpnn1pCNdN2.chk"
 -------------------
 Title Card Required
 -------------------
 Charge =  0 Multiplicity = 1

                         Standard orientation:
 ---------------------------------------------------------------------
 Center     Atomic      Atomic             Coordinates (Angstroms)
 Number     Number       Type             X           Y           Z
 ---------------------------------------------------------------------
      1          6           0        2.114517    0.532373    0.000003
      2          6           0        1.000202    1.382084    0.000018
      3          6           0       -0.203273    0.718375    0.000019
      4          6           0       -0.203659   -0.678406    0.000038
      5          7           0        0.881067   -1.433893   -0.000004
      6          7           0        2.062196   -0.803207   -0.000017
      7          6           0       -1.644322   -1.063941   -0.000045
      8          7           0       -2.351490    0.245368    0.000064
      9          7           0       -1.543300    1.208353   -0.000082
     10          1           0        3.120235    0.940918   -0.000001
     11          1           0        1.090846    2.461747    0.000007
     12          1           0       -1.965563   -1.630868    0.881049
     13          1           0       -1.965617   -1.631053   -0.880981
 ---------------------------------------------------------------------

 SCF Done:  E(RB3LYP) =  -411.871439962     A.U. after    1 cycles

 The electronic state is 1-A.
 Alpha  occ. eigenvalues --  -14.40187 -14.40135 -14.37922 -14.37674 -10.24956
 Alpha  occ. eigenvalues --  -10.24901 -10.24618 -10.24337 -10.23718  -1.07032
 Alpha  occ. eigenvalues --   -1.02743  -0.85155  -0.84390  -0.78914  -0.70453
 Alpha  occ. eigenvalues --   -0.65557  -0.61465  -0.55013  -0.51903  -0.50490
 Alpha  occ. eigenvalues --   -0.50365  -0.45592  -0.43176  -0.42715  -0.39758
 Alpha  occ. eigenvalues --   -0.36905  -0.32885  -0.31257  -0.30071  -0.26796
 Alpha  occ. eigenvalues --   -0.24744
 Alpha virt. eigenvalues --   -0.09590  -0.05228  -0.01249   0.08534   0.10367
 Alpha virt. eigenvalues --    0.11717   0.14043   0.15001   0.16778   0.18512
 Alpha virt. eigenvalues --    0.20858   0.21950   0.25934   0.28730   0.31164

 Mulliken charges:
               1
     1  C    0.049671
     2  C   -0.242796
     3  C    0.346548
     4  C    0.312317
     5  N   -0.283342
     6  N   -0.204266
     7  C   -0.267126
     8  N   -0.119156
     9  N   -0.211735
    10  H    0.134266
    11  H    0.141728
    12  H    0.171939
    13  H    0.171951
 Sum of Mulliken charges =  -0.00000

 Dipole moment (field-independent basis, Debye):
    X=              0.2656    Y=              1.1077    Z=              0.0000  Tot=              1.1391
 Quadrupole moment (field-independent basis, Debye-Ang):
   XX=            -55.5090   YY=            -51.5562   ZZ=            -48.7129
   XY=             12.8672   XZ=              0.0004   YZ=              0.0002

  Exact polarizability:  98.952   8.343  78.271  -0.001  -0.000  37.683
 Approx polarizability: 173.226  10.302 151.138  -0.003  -0.002  62.941

                      1                      2                      3
                      A                      A                      A
 Frequencies --    206.6278               215.2468               393.8516
 Red. masses --      4.5847                 3.5363                 3.9524
 Frc consts  --      0.1153                 0.0965                 0.3612
 IR Inten    --     20.1762                 4.8859                 2.1091

                      4                      5                      6
                      A                      A                      A
 Frequencies --    409.9395               427.7467               545.0809
 Red. masses --      5.6791                 2.3838                 8.9708
 Frc consts  --      0.5623                 0.2570                 1.5704
 IR Inten    --      5.3906                 0.0377                 0.3272

                      7                      8                      9
                      A                      A                      A
 Frequencies --    620.6505               650.7040               773.9268
 Red. masses --      5.3258                 7.7664                 7.7004
 Frc consts  --      1.2087                 1.9375                 2.7175
 IR Inten    --      0.3301                 4.3635                 2.6978

                     10                     11                     12
                      A                      A                      A
 Frequencies --    790.1189               864.8610               878.3451
 Red. masses --      3.3764                 6.0037                 1.5142
 Frc consts  --      1.2419                 2.6458                 0.6883
 IR Inten    --      0.1253                 3.4893                18.4105

                     13                     14                     15
                      A                      A                      A
 Frequencies --    899.8974               928.0264               952.8840
 Red. masses --      5.1746                 2.2428                 6.0548
 Frc consts  --      2.4690                 1.1381                 3.2391
 IR Inten    --      8.9847                 1.1808                18.5545

                     16                     17                     18
                      A                      A                      A
 Frequencies --   1001.4894              1034.9108              1111.9989
 Red. masses --      1.3902                 2.8642                 2.4454
 Frc consts  --      0.8215                 1.8074                 1.7816
 IR Inten    --      0.3864                 6.9799                 3.7466

                     19                     20                     21
                      A                      A                      A
 Frequencies --   1131.5654              1202.8123              1229.0009
 Red. masses --      1.1914                 4.1603                 3.6394
 Frc consts  --      0.8988                 3.5463                 3.2388
 IR Inten    --      3.0182                 3.7155                 6.8952

                     22                     23                     24
                      A                      A                      A
 Frequencies --   1253.2569              1254.7037              1405.5974
 Red. masses --      2.6383                 2.0026                 1.2659
 Frc consts  --      2.4415                 1.8575                 1.4736
 IR Inten    --      4.7556                14.4390                23.3693

                     25                     26                     27
                      A                      A                      A
 Frequencies --   1416.4063              1445.9832              1527.8417
 Red. masses --      2.6436                 2.1469                 8.7846
 Frc consts  --      3.1248                 2.6448                12.0817
 IR Inten    --      9.0207                 5.8913                 7.6099

                     28                     29                     30
                      A                      A                      A
 Frequencies --   1603.9080              1647.0217              3057.0191
 Red. masses --      8.2455                 8.0271                 1.0608
 Frc consts  --     12.4976                12.8294                 5.8410
 IR Inten    --      1.1402                 4.1203                 0.4283

                     31                     32                     33
                      A                      A                      A
 Frequencies --   3093.6621              3183.9313              3210.5417
 Red. masses --      1.1017                 1.0892                 1.0954
 Frc consts  --      6.2121                 6.5059                 6.6526
 IR Inten    --      0.0017                 6.9383                 3.5867

 - Thermochemistry -
 -------------------
 Temperature   298.150 Kelvin.  Pressure   1.00000 Atm.
 Atom     1 has atomic number  6 and mass  12.00000

 Molecular mass:   120.04360 amu.
 Principal axes and moments of inertia in atomic units:
                           1         2         3
     Eigenvalues --   442.289961076.575921507.69186
           X            0.99772   0.06746  -0.00000
           Y           -0.06746   0.99772   0.00000
           Z            0.00000  -0.00000   1.00000
 This molecule is an asymmetric top.
 Rotational symmetry number  1.
 Warning -- assumption of classical behavior for rotation
           may cause significant error
 Rotational temperatures (Kelvin)      0.19583     0.08045     0.05745
 Rotational constants (GHZ):           4.08045     1.67637     1.19702
 Zero-point vibrational energy     241463.6 (Joules/Mol)
                                   57.71118 (Kcal/Mol)
 Warning -- explicit consideration of   7 degrees of freedom as
           vibrations may cause significant error
 Vibrational temperatures:    297.29   309.69   566.66   589.81   615.43
          (Kelvin)            784.25   892.98   936.22  1113.51  1136.80
                             1244.34  1263.74  1294.75  1335.22  1370.99
                             1440.92  1489.01  1599.92  1628.07  1730.58
                             1768.26  1803.16  1805.24  2022.34  2037.89
                             2080.45  2198.22  2307.67  2369.70  4398.37
                             4451.09  4580.97  4619.25

 Zero-point correction=                           0.091969 (Hartree/Particle)
 Thermal correction to Energy=                    0.097901
 Thermal correction to Enthalpy=                  0.098846
 Thermal correction to Gibbs Free Energy=         0.061710
 Sum of electronic and zero-point Energies=           -411.779471
 Sum of electronic and thermal Energies=              -411.773539
 Sum of electronic and thermal Enthalpies=            -411.772594
 Sum of electronic and thermal Free Energies=         -411.809730

                     E (Thermal)             CV                S
                      KCal/Mol        Cal/Mol-Kelvin    Cal/Mol-Kelvin
 Total                   61.434             23.287             78.158
 Electronic               0.000              0.000              0.000
 Translational            0.889              2.981             40.263
 Rotational               0.889              2.981             28.064
 Vibrational             59.657             17.325              9.831
 Vibration     1          0.641              1.830              2.073
 Vibration     2          0.645              1.818              1.999
 Vibration     3          0.761              1.483              0.986
 Vibration     4          0.774              1.449              0.927
 Vibration     5          0.789              1.410              0.866
 Vibration     6          0.900              1.150              0.554
 Vibration     7          0.981              0.988              0.415

 Optimization completed.
    -- Stationary point found.
 Normal termination of Gaussian 16 at Thu Aug  4 02:48:26 2022.
