 Gaussian 16, Revision A.03,
 Gaussian 16:  ES64L-G16RevA.03 25-Dec-2016

 -----------------------------
 # opt freq b3lyp/6-31g(2df,p)
 -----------------------------

 -------------------
 Title Card Required
 -------------------
 Symbolic Z-matrix:
 Charge =  0 Multiplicity = 1

 SCF Done:  E(RB3LYP) =  -458.586373308     A.U. after   13 cycles
 SCF Done:  E(RB3LYP) =  -458.609091737     A.U. after   12 cycles
 SCF Done:  E(RB3LYP) =  -458.616560797     A.U. after   12 cycles
 SCF Done:  E(RB3LYP) =  -458.617868350     A.U. after   11 cycles
 SCF Done:  E(RB3LYP) =  -458.618260601     A.U. after   10 cycles
 SCF Done:  E(RB3LYP) =  -458.618366323     A.U. after   10 cycles
 SCF Done:  E(RB3LYP) =  -458.618393130     A.U. after    8 cycles
 SCF Done:  E(RB3LYP) =  -458.618402001     A.U. after    8 cycles
 Optimization completed.
    -- Stationary point found.
 Normal termination of Gaussian 16 at Wed Aug  3 02:08:36 2022.

 ----------------------------------------------------------------------
 #N Geom=AllCheck Guess=TCheck SCRF=Check GenChk RB3LYP/6-31G(2df,p) Fr
 eq
 ----------------------------------------------------------------------

 Structure from the checkpoint file:  "C1CC2NC1NCC1OC21.chk"
 -------------------
 Title Card Required
 -------------------
 Charge =  0 Multiplicity = 1

                         Standard orientation:
 ---------------------------------------------------------------------
 Center     Atomic      Atomic             Coordinates (Angstroms)
 Number     Number       Type             X           Y           Z
 ---------------------------------------------------------------------
      1          6           0       -1.657966    0.495976   -0.865272
      2          6           0       -1.800526   -1.020242   -0.547808
      3          6           0       -0.680741   -1.239530    0.492506
      4          7           0       -0.914261   -0.031611    1.305684
      5          6           0       -0.930967    1.118432    0.364645
      6          7           0        0.320786    1.855358    0.020492
      7          6           0        1.549932    1.199734   -0.498692
      8          6           0        1.593014   -0.134764    0.219171
      9          8           0        2.020005   -1.462942   -0.119957
     10          6           0        0.633877   -1.090337   -0.305104
     11          1           0       -2.629806    0.969001   -1.018519
     12          1           0       -1.076328    0.673779   -1.772502
     13          1           0       -1.695544   -1.653757   -1.432374
     14          1           0       -2.767714   -1.227871   -0.085700
     15          1           0       -0.784909   -2.150344    1.086143
     16          1           0       -0.258056    0.089227    2.067173
     17          1           0       -1.546182    1.901370    0.817557
     18          1           0        0.567862    2.439453    0.808652
     19          1           0        2.389384    1.871374   -0.291251
     20          1           0        1.496993    1.064191   -1.584622
     21          1           0        1.611645   -0.002319    1.300974
     22          1           0        0.447199   -1.012417   -1.375782
 ---------------------------------------------------------------------

 SCF Done:  E(RB3LYP) =  -458.618402001     A.U. after    1 cycles

 The electronic state is 1-A.
 Alpha  occ. eigenvalues --  -19.15225 -14.32071 -14.31082 -10.23975 -10.22612
 Alpha  occ. eigenvalues --  -10.22153 -10.21774 -10.21733 -10.18433 -10.18369
 Alpha  occ. eigenvalues --   -1.06118  -0.93497  -0.87614  -0.76428  -0.75063
 Alpha  occ. eigenvalues --   -0.69190  -0.65619  -0.59534  -0.57361  -0.56800
 Alpha  occ. eigenvalues --   -0.51533  -0.50029  -0.49393  -0.46797  -0.44758
 Alpha  occ. eigenvalues --   -0.41076  -0.40394  -0.39733  -0.37358  -0.37331
 Alpha  occ. eigenvalues --   -0.36509  -0.34346  -0.34077  -0.33258  -0.28234
 Alpha  occ. eigenvalues --   -0.27265  -0.24494  -0.20813
 Alpha virt. eigenvalues --    0.06190   0.07725   0.08578   0.09403   0.10922
 Alpha virt. eigenvalues --    0.12197   0.14754   0.15018   0.15991   0.16355
 Alpha virt. eigenvalues --    0.17227   0.18110   0.18673   0.19932   0.20484

 Mulliken charges:
               1
     1  C   -0.213129
     2  C   -0.191718
     3  C   -0.092426
     4  N   -0.286655
     5  C    0.030302
     6  N   -0.297892
     7  C   -0.247648
     8  C    0.098481
     9  O   -0.293451
    10  C    0.090411
    11  H    0.107997
    12  H    0.114412
    13  H    0.099601
    14  H    0.107780
    15  H    0.083572
    16  H    0.206569
    17  H    0.084803
    18  H    0.217991
    19  H    0.102536
    20  H    0.114331
    21  H    0.073698
    22  H    0.090433
 Sum of Mulliken charges =  -0.00000

 Dipole moment (field-independent basis, Debye):
    X=             -0.7420    Y=              1.3079    Z=              0.5337  Tot=              1.5957
 Quadrupole moment (field-independent basis, Debye-Ang):
   XX=            -63.4798   YY=            -61.5921   ZZ=            -57.6481
   XY=              5.5017   XZ=              2.9130   YZ=              2.5181

  Exact polarizability:  89.932   3.864  86.109   1.090   1.764  74.977
 Approx polarizability: 129.477   0.683 129.958   0.535   4.739 119.006

                      1                      2                      3
                      A                      A                      A
 Frequencies --    169.9292               201.7707               294.4022
 Red. masses --      2.8480                 2.4139                 2.7507
 Frc consts  --      0.0485                 0.0579                 0.1405
 IR Inten    --      2.8718                 0.2669                 1.0805

                      4                      5                      6
                      A                      A                      A
 Frequencies --    355.4323               375.3732               389.5516
 Red. masses --      5.4492                 3.2060                 2.8665
 Frc consts  --      0.4056                 0.2662                 0.2563
 IR Inten    --      6.4083                 3.8158                 0.2551

                      7                      8                      9
                      A                      A                      A
 Frequencies --    414.3484               469.4102               526.7734
 Red. masses --      3.2516                 2.8999                 2.7496
 Frc consts  --      0.3289                 0.3765                 0.4495
 IR Inten    --      9.1320                21.0063                 4.5574

                     10                     11                     12
                      A                      A                      A
 Frequencies --    560.2539               627.0857               645.9882
 Red. masses --      3.7471                 1.5912                 2.4764
 Frc consts  --      0.6930                 0.3687                 0.6089
 IR Inten    --     45.4472                80.2923                 2.7071

                     13                     14                     15
                      A                      A                      A
 Frequencies --    717.4586               774.1872               820.5691
 Red. masses --      2.8398                 2.6318                 2.5271
 Frc consts  --      0.8613                 0.9294                 1.0025
 IR Inten    --     82.1888                 5.7202                46.3236

                     16                     17                     18
                      A                      A                      A
 Frequencies --    847.2446               882.7362               899.4176
 Red. masses --      1.8278                 3.3330                 3.3804
 Frc consts  --      0.7730                 1.5302                 1.6112
 IR Inten    --     15.6608                 5.7576                14.4097

                     19                     20                     21
                      A                      A                      A
 Frequencies --    909.4335               925.3254               946.7643
 Red. masses --      2.5629                 3.3816                 2.2455
 Frc consts  --      1.2489                 1.7059                 1.1859
 IR Inten    --      3.4317                54.1370                 4.5166

                     22                     23                     24
                      A                      A                      A
 Frequencies --    969.9858               994.0794              1032.4268
 Red. masses --      2.3380                 2.4151                 2.3475
 Frc consts  --      1.2960                 1.4061                 1.4743
 IR Inten    --      6.7176                26.6233                16.5066

                     25                     26                     27
                      A                      A                      A
 Frequencies --   1045.2944              1074.7027              1094.0888
 Red. masses --      1.8659                 3.3729                 2.1575
 Frc consts  --      1.2012                 2.2953                 1.5216
 IR Inten    --      8.1008                18.0209                12.0580

                     28                     29                     30
                      A                      A                      A
 Frequencies --   1100.2305              1127.4019              1159.4565
 Red. masses --      3.3581                 1.3374                 1.5851
 Frc consts  --      2.3950                 1.0016                 1.2555
 IR Inten    --     36.3011                 6.3800                 0.1367

                     31                     32                     33
                      A                      A                      A
 Frequencies --   1180.5364              1194.1280              1230.7586
 Red. masses --      1.2570                 1.5321                 1.2217
 Frc consts  --      1.0322                 1.2872                 1.0904
 IR Inten    --     13.4168                 7.2815                 0.5830

                     34                     35                     36
                      A                      A                      A
 Frequencies --   1244.2468              1270.5234              1307.8055
 Red. masses --      1.2365                 1.3330                 1.3495
 Frc consts  --      1.1279                 1.2678                 1.3599
 IR Inten    --      3.5893                 6.3888                 1.1459

                     37                     38                     39
                      A                      A                      A
 Frequencies --   1319.0658              1331.1229              1337.0153
 Red. masses --      1.3029                 1.3097                 1.4502
 Frc consts  --      1.3357                 1.3673                 1.5274
 IR Inten    --      2.1449                 1.4258                 3.5631

                     40                     41                     42
                      A                      A                      A
 Frequencies --   1352.7968              1401.6198              1411.6323
 Red. masses --      1.3705                 1.1741                 1.3638
 Frc consts  --      1.4777                 1.3589                 1.6012
 IR Inten    --      4.6917                 1.5704                23.4505

                     43                     44                     45
                      A                      A                      A
 Frequencies --   1428.8699              1478.8598              1489.5856
 Red. masses --      1.1843                 1.9488                 1.1392
 Frc consts  --      1.4247                 2.5112                 1.4893
 IR Inten    --      3.4103                 8.8770                 0.6623

                     46                     47                     48
                      A                      A                      A
 Frequencies --   1503.6087              1507.6114              1512.0612
 Red. masses --      1.1910                 1.1088                 1.1625
 Frc consts  --      1.5865                 1.4848                 1.5659
 IR Inten    --      7.6493                 1.3796                 7.2619

                     49                     50                     51
                      A                      A                      A
 Frequencies --   3034.7845              3054.0192              3065.3348
 Red. masses --      1.0592                 1.0869                 1.0602
 Frc consts  --      5.7475                 5.9727                 5.8696
 IR Inten    --     45.7692                32.1855                22.3965

                     52                     53                     54
                      A                      A                      A
 Frequencies --   3074.9590              3077.3100              3090.5774
 Red. masses --      1.1013                 1.0633                 1.0872
 Frc consts  --      6.1353                 5.9329                 6.1182
 IR Inten    --     17.1711                22.1450                31.5723

                     55                     56                     57
                      A                      A                      A
 Frequencies --   3093.2674              3102.2963              3107.1003
 Red. masses --      1.0870                 1.0882                 1.1056
 Frc consts  --      6.1280                 6.1706                 6.2885
 IR Inten    --      1.5763                59.9983                 7.1385

                     58                     59                     60
                      A                      A                      A
 Frequencies --   3125.7602              3553.2977              3560.6010
 Red. masses --      1.1045                 1.0746                 1.0752
 Frc consts  --      6.3583                 7.9941                 8.0313
 IR Inten    --     45.5168                 0.4490                 1.0153

 - Thermochemistry -
 -------------------
 Temperature   298.150 Kelvin.  Pressure   1.00000 Atm.
 Atom     1 has atomic number  6 and mass  12.00000

 Molecular mass:   140.09496 amu.
 Principal axes and moments of inertia in atomic units:
                           1         2         3
     Eigenvalues --   903.216941176.288991614.27667
           X            0.99364   0.11117   0.01796
           Y           -0.11132   0.99376   0.00763
           Z           -0.01700  -0.00958   0.99981
 This molecule is an asymmetric top.
 Rotational symmetry number  1.
 Warning -- assumption of classical behavior for rotation
           may cause significant error
 Rotational temperatures (Kelvin)      0.09589     0.07363     0.05365
 Rotational constants (GHZ):           1.99813     1.53427     1.11799
 Zero-point vibrational energy     507170.5 (Joules/Mol)
                                  121.21665 (Kcal/Mol)
 Warning -- explicit consideration of  10 degrees of freedom as
           vibrations may cause significant error
 Vibrational temperatures:    244.49   290.30   423.58   511.39   540.08
          (Kelvin)            560.48   596.15   675.38   757.91   806.08
                              902.24   929.43  1032.26  1113.88  1180.62
                             1219.00  1270.06  1294.06  1308.47  1331.34
                             1362.18  1395.59  1430.26  1485.43  1503.95
                             1546.26  1574.15  1582.99  1622.08  1668.20
                             1698.53  1718.08  1770.79  1790.19  1828.00
                             1881.64  1897.84  1915.19  1923.67  1946.37
                             2016.62  2031.02  2055.83  2127.75  2143.18
                             2163.36  2169.12  2175.52  4366.38  4394.05
                             4410.33  4424.18  4427.56  4446.65  4450.52
                             4463.51  4470.42  4497.27  5112.40  5122.91

 Zero-point correction=                           0.193171 (Hartree/Particle)
 Thermal correction to Energy=                    0.200844
 Thermal correction to Enthalpy=                  0.201788
 Thermal correction to Gibbs Free Energy=         0.161387
 Sum of electronic and zero-point Energies=           -458.425231
 Sum of electronic and thermal Energies=              -458.417558
 Sum of electronic and thermal Enthalpies=            -458.416614
 Sum of electronic and thermal Free Energies=         -458.457015

                     E (Thermal)             CV                S
                      KCal/Mol        Cal/Mol-Kelvin    Cal/Mol-Kelvin
 Total                  126.032             33.151             85.033
 Electronic               0.000              0.000              0.000
 Translational            0.889              2.981             40.723
 Rotational               0.889              2.981             28.930
 Vibrational            124.254             27.190             15.380
 Vibration     1          0.625              1.879              2.436
 Vibration     2          0.639              1.837              2.117
 Vibration     3          0.689              1.684              1.449
 Vibration     4          0.731              1.564              1.142
 Vibration     5          0.746              1.523              1.058
 Vibration     6          0.757              1.493              1.002
 Vibration     7          0.778              1.439              0.911
 Vibration     8          0.827              1.318              0.739
 Vibration     9          0.882              1.191              0.594
 Vibration    10          0.916              1.117              0.523

                           ! Non-Optimized Parameters !
 Normal termination of Gaussian 16 at Wed Aug  3 02:58:19 2022.
