 Gaussian 16, Revision A.03,
 Gaussian 16:  ES64L-G16RevA.03 25-Dec-2016

 -----------------------------
 # opt freq b3lyp/6-31g(2df,p)
 -----------------------------

 -------------------
 Title Card Required
 -------------------
 Symbolic Z-matrix:
 Charge =  0 Multiplicity = 1

 SCF Done:  E(RB3LYP) =  -423.143658704     A.U. after   13 cycles
 SCF Done:  E(RB3LYP) =  -423.158171473     A.U. after   11 cycles
 SCF Done:  E(RB3LYP) =  -423.162777677     A.U. after   11 cycles
 SCF Done:  E(RB3LYP) =  -423.164824265     A.U. after   11 cycles
 SCF Done:  E(RB3LYP) =  -423.165296666     A.U. after   11 cycles
 SCF Done:  E(RB3LYP) =  -423.165378358     A.U. after   10 cycles
 SCF Done:  E(RB3LYP) =  -423.165401470     A.U. after   10 cycles
 SCF Done:  E(RB3LYP) =  -423.165404890     A.U. after    8 cycles
 SCF Done:  E(RB3LYP) =  -423.165405400     A.U. after    7 cycles
 Optimization completed.
    -- Stationary point found.
 Normal termination of Gaussian 16 at Thu Aug  4 08:05:24 2022.

 ----------------------------------------------------------------------
 #N Geom=AllCheck Guess=TCheck SCRF=Check GenChk RB3LYP/6-31G(2df,p) Fr
 eq
 ----------------------------------------------------------------------

 Structure from the checkpoint file:  "C1CC2OC2C2COC12.chk"
 -------------------
 Title Card Required
 -------------------
 Charge =  0 Multiplicity = 1

                         Standard orientation:
 ---------------------------------------------------------------------
 Center     Atomic      Atomic             Coordinates (Angstroms)
 Number     Number       Type             X           Y           Z
 ---------------------------------------------------------------------
      1          6           0        0.217712    1.527374    0.343923
      2          6           0        1.614478    1.142885   -0.168156
      3          6           0        1.812466   -0.360699   -0.155462
      4          8           0        1.184534   -1.071826    0.918992
      5          6           0        0.674198   -1.260060   -0.408470
      6          6           0       -0.679935   -0.677908   -0.717632
      7          6           0       -1.846539   -0.848674    0.282375
      8          8           0       -2.078306    0.576566    0.314325
      9          6           0       -0.885325    0.837886   -0.461814
     10          1           0        0.086466    2.613353    0.315584
     11          1           0        0.125363    1.211924    1.385906
     12          1           0        2.381661    1.617430    0.454285
     13          1           0        1.779249    1.505616   -1.192159
     14          1           0        2.815120   -0.714606   -0.397094
     15          1           0        0.874095   -2.252727   -0.813568
     16          1           0       -0.961124   -0.965224   -1.734462
     17          1           0       -1.542898   -1.236170    1.262251
     18          1           0       -2.723707   -1.399879   -0.073956
     19          1           0       -1.126387    1.417537   -1.361905
 ---------------------------------------------------------------------

 SCF Done:  E(RB3LYP) =  -423.165405400     A.U. after    1 cycles

 The electronic state is 1-A.
 Alpha  occ. eigenvalues --  -19.15132 -19.12622 -10.23956 -10.23854 -10.23176
 Alpha  occ. eigenvalues --  -10.22664 -10.19578 -10.19285 -10.17959  -1.07209
 Alpha  occ. eigenvalues --   -1.03147  -0.79872  -0.76034  -0.70525  -0.66543
 Alpha  occ. eigenvalues --   -0.61963  -0.58555  -0.53292  -0.52027  -0.49314
 Alpha  occ. eigenvalues --   -0.47980  -0.44972  -0.43182  -0.41744  -0.40035
 Alpha  occ. eigenvalues --   -0.38332  -0.37305  -0.36370  -0.35438  -0.32640
 Alpha  occ. eigenvalues --   -0.29654  -0.28091  -0.26817  -0.24244
 Alpha virt. eigenvalues --    0.08060   0.08195   0.08777   0.11116   0.11768
 Alpha virt. eigenvalues --    0.13214   0.14368   0.15605   0.16186   0.16712
 Alpha virt. eigenvalues --    0.17623   0.18370   0.19790   0.20777   0.22224

 Mulliken charges:
               1
     1  C   -0.227388
     2  C   -0.256566
     3  C    0.061760
     4  O   -0.253696
     5  C    0.020688
     6  C   -0.077260
     7  C   -0.091625
     8  O   -0.293349
     9  C    0.120796
    10  H    0.097939
    11  H    0.128254
    12  H    0.112226
    13  H    0.104811
    14  H    0.090322
    15  H    0.091198
    16  H    0.082171
    17  H    0.114374
    18  H    0.101332
    19  H    0.074011
 Sum of Mulliken charges =  -0.00000

 Dipole moment (field-independent basis, Debye):
    X=              1.3538    Y=             -0.2892    Z=             -2.1964  Tot=              2.5963
 Quadrupole moment (field-independent basis, Debye-Ang):
   XX=            -55.0048   YY=            -51.4154   ZZ=            -53.6695
   XY=              4.3584   XZ=             -0.3450   YZ=              1.4317

  Exact polarizability:  80.979   5.866  76.352  -0.045   0.441  62.701
 Approx polarizability: 109.475   6.784 107.815  -0.068  -1.518 102.608

                      1                      2                      3
                      A                      A                      A
 Frequencies --     96.0595               174.0432               253.9284
 Red. masses --      3.4408                 2.9503                 2.4454
 Frc consts  --      0.0187                 0.0527                 0.0929
 IR Inten    --      2.7615                 1.1797                 4.2410

                      4                      5                      6
                      A                      A                      A
 Frequencies --    336.0497               391.9504               423.1011
 Red. masses --      3.3085                 3.2348                 3.6626
 Frc consts  --      0.2201                 0.2928                 0.3863
 IR Inten    --      4.2500                 2.4313                 2.0428

                      7                      8                      9
                      A                      A                      A
 Frequencies --    466.5268               608.8618               663.7963
 Red. masses --      4.1256                 3.8860                 2.3201
 Frc consts  --      0.5290                 0.8488                 0.6023
 IR Inten    --      2.3548                 6.3154                 7.7720

                     10                     11                     12
                      A                      A                      A
 Frequencies --    717.6031               782.4323               801.0184
 Red. masses --      3.0717                 2.9141                 2.9037
 Frc consts  --      0.9320                 1.0511                 1.0977
 IR Inten    --      2.9937                 6.1505                 3.0582

                     13                     14                     15
                      A                      A                      A
 Frequencies --    852.3884               884.2425               925.6338
 Red. masses --      2.3033                 3.0702                 3.1897
 Frc consts  --      0.9860                 1.4144                 1.6102
 IR Inten    --     14.7755                 7.6469                15.3040

                     16                     17                     18
                      A                      A                      A
 Frequencies --    952.4918               978.4148               985.9999
 Red. masses --      1.4845                 3.1749                 2.6988
 Frc consts  --      0.7935                 1.7907                 1.5459
 IR Inten    --      4.1663                17.8503                 5.5126

                     19                     20                     21
                      A                      A                      A
 Frequencies --   1024.8277              1050.1603              1067.4175
 Red. masses --      7.6014                 1.7246                 2.0750
 Frc consts  --      4.7038                 1.1206                 1.3930
 IR Inten    --     77.8404                 7.1672                13.3530

                     22                     23                     24
                      A                      A                      A
 Frequencies --   1079.5659              1089.6077              1138.6753
 Red. masses --      1.8307                 2.0729                 1.4590
 Frc consts  --      1.2571                 1.4500                 1.1146
 IR Inten    --      8.3874                 3.9761                 3.5754

                     25                     26                     27
                      A                      A                      A
 Frequencies --   1162.1312              1169.0649              1196.1005
 Red. masses --      1.4669                 1.1572                 1.5903
 Frc consts  --      1.1672                 0.9318                 1.3405
 IR Inten    --      0.7696                 2.0116                 3.5888

                     28                     29                     30
                      A                      A                      A
 Frequencies --   1225.4655              1264.9997              1280.7247
 Red. masses --      1.3391                 1.3667                 1.3182
 Frc consts  --      1.1848                 1.2886                 1.2739
 IR Inten    --      3.4606                 0.8789                 5.5291

                     31                     32                     33
                      A                      A                      A
 Frequencies --   1293.5990              1340.5637              1345.7803
 Red. masses --      1.3300                 1.3586                 1.2949
 Frc consts  --      1.3113                 1.4385                 1.3818
 IR Inten    --      0.6759                 0.2520                 3.2481

                     34                     35                     36
                      A                      A                      A
 Frequencies --   1367.2824              1377.7802              1393.7878
 Red. masses --      1.5001                 1.8056                 1.4759
 Frc consts  --      1.6523                 2.0194                 1.6893
 IR Inten    --      1.3612                 1.0276                 2.7940

                     37                     38                     39
                      A                      A                      A
 Frequencies --   1397.7696              1463.8308              1486.5010
 Red. masses --      1.4449                 2.1522                 1.2143
 Frc consts  --      1.6633                 2.7171                 1.5809
 IR Inten    --     11.6240                11.8647                 1.8894

                     40                     41                     42
                      A                      A                      A
 Frequencies --   1492.1339              1522.0230              3013.5915
 Red. masses --      1.1377                 1.1141                 1.0817
 Frc consts  --      1.4924                 1.5206                 5.7877
 IR Inten    --      4.3112                 1.0735                55.4277

                     43                     44                     45
                      A                      A                      A
 Frequencies --   3019.1278              3023.4335              3055.2363
 Red. masses --      1.0634                 1.0590                 1.0747
 Frc consts  --      5.7110                 5.7035                 5.9106
 IR Inten    --     45.2964                35.6566                13.9036

                     46                     47                     48
                      A                      A                      A
 Frequencies --   3061.7788              3064.5089              3077.1633
 Red. masses --      1.0966                 1.0857                 1.0993
 Frc consts  --      6.0569                 6.0075                 6.1327
 IR Inten    --      4.5573                39.1176                44.9595

                     49                     50                     51
                      A                      A                      A
 Frequencies --   3096.8810              3109.9755              3112.5917
 Red. masses --      1.0860                 1.0925                 1.1005
 Frc consts  --      6.1365                 6.2255                 6.2817
 IR Inten    --     32.4373                58.1710                22.3068

 - Thermochemistry -
 -------------------
 Temperature   298.150 Kelvin.  Pressure   1.00000 Atm.
 Atom     1 has atomic number  6 and mass  12.00000

 Molecular mass:   126.06808 amu.
 Principal axes and moments of inertia in atomic units:
                           1         2         3
     Eigenvalues --   625.653491050.561791392.13381
           X            0.99774   0.06696  -0.00506
           Y           -0.06686   0.99760   0.01829
           Z            0.00627  -0.01791   0.99982
 This molecule is an asymmetric top.
 Rotational symmetry number  1.
 Warning -- assumption of classical behavior for rotation
           may cause significant error
 Rotational temperatures (Kelvin)      0.13844     0.08245     0.06222
 Rotational constants (GHZ):           2.88457     1.71788     1.29638
 Zero-point vibrational energy     425623.1 (Joules/Mol)
                                  101.72636 (Kcal/Mol)
 Warning -- explicit consideration of   8 degrees of freedom as
           vibrations may cause significant error
 Vibrational temperatures:    138.21   250.41   365.35   483.50   563.93
          (Kelvin)            608.75   671.23   876.02   955.05  1032.47
                             1125.75  1152.49  1226.40  1272.23  1331.78
                             1370.42  1407.72  1418.63  1474.50  1510.95
                             1535.78  1553.25  1567.70  1638.30  1672.05
                             1682.02  1720.92  1763.17  1820.05  1842.68
                             1861.20  1928.77  1936.28  1967.21  1982.32
                             2005.35  2011.08  2106.13  2138.74  2146.85
                             2189.85  4335.89  4343.85  4350.05  4395.80
                             4405.22  4409.14  4427.35  4455.72  4474.56
                             4478.33

 Zero-point correction=                           0.162111 (Hartree/Particle)
 Thermal correction to Energy=                    0.169191
 Thermal correction to Enthalpy=                  0.170135
 Thermal correction to Gibbs Free Energy=         0.130554
 Sum of electronic and zero-point Energies=           -423.003294
 Sum of electronic and thermal Energies=              -422.996215
 Sum of electronic and thermal Enthalpies=            -422.995270
 Sum of electronic and thermal Free Energies=         -423.034852

                     E (Thermal)             CV                S
                      KCal/Mol        Cal/Mol-Kelvin    Cal/Mol-Kelvin
 Total                  106.169             28.364             83.306
 Electronic               0.000              0.000              0.000
 Translational            0.889              2.981             40.409
 Rotational               0.889              2.981             28.305
 Vibrational            104.391             22.402             14.592
 Vibration     1          0.603              1.952              3.533
 Vibration     2          0.627              1.874              2.391
 Vibration     3          0.665              1.756              1.703
 Vibration     4          0.717              1.604              1.231
 Vibration     5          0.759              1.487              0.993
 Vibration     6          0.785              1.420              0.881
 Vibration     7          0.824              1.324              0.747
 Vibration     8          0.968              1.013              0.435

 Optimization completed.
    -- Stationary point found.
 Normal termination of Gaussian 16 at Thu Aug  4 08:38:14 2022.
