 Gaussian 16, Revision A.03,
 Gaussian 16:  ES64L-G16RevA.03 25-Dec-2016

 -----------------------------
 # opt freq b3lyp/6-31g(2df,p)
 -----------------------------

 -------------------
 Title Card Required
 -------------------
 Symbolic Z-matrix:
 Charge =  0 Multiplicity = 1

 SCF Done:  E(RB3LYP) =  -388.518490892     A.U. after   12 cycles
 SCF Done:  E(RB3LYP) =  -388.523760011     A.U. after   10 cycles
 SCF Done:  E(RB3LYP) =  -388.528297161     A.U. after   10 cycles
 SCF Done:  E(RB3LYP) =  -388.528566039     A.U. after   11 cycles
 SCF Done:  E(RB3LYP) =  -388.532366822     A.U. after   10 cycles
 SCF Done:  E(RB3LYP) =  -388.532928472     A.U. after   10 cycles
 SCF Done:  E(RB3LYP) =  -388.533057409     A.U. after    9 cycles
 SCF Done:  E(RB3LYP) =  -388.533061008     A.U. after    7 cycles
 SCF Done:  E(RB3LYP) =  -388.533061531     A.U. after    7 cycles
 Optimization completed.
    -- Stationary point found.
 Normal termination of Gaussian 16 at Thu Aug  4 13:52:20 2022.

 ----------------------------------------------------------------------
 #N Geom=AllCheck Guess=TCheck SCRF=Check GenChk RB3LYP/6-31G(2df,p) Fr
 eq
 ----------------------------------------------------------------------

 Structure from the checkpoint file:  "C1CC2COCCpC1pC2.chk"
 -------------------
 Title Card Required
 -------------------
 Charge =  0 Multiplicity = 1

                         Standard orientation:
 ---------------------------------------------------------------------
 Center     Atomic      Atomic             Coordinates (Angstroms)
 Number     Number       Type             X           Y           Z
 ---------------------------------------------------------------------
      1          6           0       -1.569544   -0.000017   -0.921642
      2          6           0       -1.282390   -1.281390   -0.114697
      3          6           0        0.064988   -1.240160    0.636730
      4          6           0        1.287140   -1.186962   -0.294462
      5          8           0        1.343933    0.000005   -1.072273
      6          6           0        1.287125    1.186976   -0.294473
      7          6           0        0.064965    1.240165    0.636720
      8          6           0       -1.282413    1.281374   -0.114698
      9          6           0        0.105508    0.000011    1.546191
     10          1           0       -2.615791   -0.000027   -1.249456
     11          1           0       -0.954035   -0.000008   -1.823858
     12          1           0       -1.318546   -2.153844   -0.778455
     13          1           0       -2.075808   -1.428442    0.630834
     14          1           0        0.159014   -2.152280    1.239895
     15          1           0        1.274641   -2.012173   -1.014229
     16          1           0        2.205643   -1.282679    0.311871
     17          1           0        1.274618    2.012182   -1.014243
     18          1           0        2.205619    1.282706    0.311869
     19          1           0        0.158994    2.152297    1.239873
     20          1           0       -1.318596    2.153818   -0.778465
     21          1           0       -2.075836    1.428408    0.630831
     22          1           0       -0.743278    0.000003    2.240410
     23          1           0        1.019619    0.000016    2.153291
 ---------------------------------------------------------------------

 SCF Done:  E(RB3LYP) =  -388.533061531     A.U. after    1 cycles

 The electronic state is 1-A.
 Alpha  occ. eigenvalues --  -19.13176 -10.21958 -10.21957 -10.18122 -10.18121
 Alpha  occ. eigenvalues --  -10.17553 -10.17355 -10.17355 -10.16800  -1.02491
 Alpha  occ. eigenvalues --   -0.82790  -0.77193  -0.74188  -0.68517  -0.63788
 Alpha  occ. eigenvalues --   -0.59135  -0.59113  -0.52321  -0.48537  -0.46408
 Alpha  occ. eigenvalues --   -0.45581  -0.44659  -0.42814  -0.41450  -0.39838
 Alpha  occ. eigenvalues --   -0.38268  -0.36686  -0.36589  -0.34091  -0.33087
 Alpha  occ. eigenvalues --   -0.32519  -0.30499  -0.29113  -0.27994  -0.23805
 Alpha virt. eigenvalues --    0.07216   0.11613   0.11854   0.12821   0.13301
 Alpha virt. eigenvalues --    0.14255   0.15436   0.16185   0.16266   0.16409
 Alpha virt. eigenvalues --    0.18330   0.18726   0.19489   0.20585   0.21241

 Mulliken charges:
               1
     1  C   -0.184653
     2  C   -0.199146
     3  C   -0.001126
     4  C   -0.075918
     5  O   -0.246984
     6  C   -0.075919
     7  C   -0.001124
     8  C   -0.199149
     9  C   -0.222195
    10  H    0.081034
    11  H    0.119084
    12  H    0.087562
    13  H    0.087632
    14  H    0.061718
    15  H    0.100490
    16  H    0.080279
    17  H    0.100490
    18  H    0.080280
    19  H    0.061717
    20  H    0.087562
    21  H    0.087633
    22  H    0.086970
    23  H    0.083761
 Sum of Mulliken charges =  -0.00000

 Dipole moment (field-independent basis, Debye):
    X=             -0.3069    Y=             -0.0000    Z=              1.1605  Tot=              1.2004
 Quadrupole moment (field-independent basis, Debye-Ang):
   XX=            -57.1121   YY=            -53.8723   ZZ=            -57.9915
   XY=             -0.0000   XZ=              1.6822   YZ=             -0.0001

  Exact polarizability:  85.460   0.000  87.464   2.496   0.000  78.039
 Approx polarizability: 118.785   0.000 122.254   1.169   0.000 118.948

                      1                      2                      3
                      A                      A                      A
 Frequencies --    171.1864               255.2616               265.6376
 Red. masses --      2.4708                 1.8984                 4.8827
 Frc consts  --      0.0427                 0.0729                 0.2030
 IR Inten    --      0.1993                 0.9420                 4.9869

                      4                      5                      6
                      A                      A                      A
 Frequencies --    342.5637               387.3776               391.9850
 Red. masses --      1.8597                 3.5205                 2.0680
 Frc consts  --      0.1286                 0.3113                 0.1872
 IR Inten    --      0.0205                 0.0291                 0.2478

                      7                      8                      9
                      A                      A                      A
 Frequencies --    407.1074               482.8797               538.2274
 Red. masses --      1.7395                 4.1312                 1.7834
 Frc consts  --      0.1699                 0.5675                 0.3044
 IR Inten    --      0.9511                 3.9326                 0.4036

                     10                     11                     12
                      A                      A                      A
 Frequencies --    668.2294               747.9768               780.4017
 Red. masses --      4.8504                 2.7991                 2.8027
 Frc consts  --      1.2761                 0.9227                 1.0057
 IR Inten    --      0.0001                 5.6071                 0.4068

                     13                     14                     15
                      A                      A                      A
 Frequencies --    788.3365               849.1496               874.1785
 Red. masses --      2.3161                 2.8246                 2.7238
 Frc consts  --      0.8481                 1.2000                 1.2264
 IR Inten    --      5.4556                 0.5134                11.3594

                     16                     17                     18
                      A                      A                      A
 Frequencies --    874.4684               914.3286               937.5569
 Red. masses --      1.4434                 1.7347                 2.0839
 Frc consts  --      0.6503                 0.8544                 1.0793
 IR Inten    --      0.0540                 6.4707                 3.2148

                     19                     20                     21
                      A                      A                      A
 Frequencies --    973.0228               983.0853              1011.5998
 Red. masses --      1.8496                 2.1075                 2.0183
 Frc consts  --      1.0318                 1.2001                 1.2169
 IR Inten    --      3.3811                10.0884                 8.2265

                     22                     23                     24
                      A                      A                      A
 Frequencies --   1040.6524              1055.2596              1088.8251
 Red. masses --      3.0413                 1.5201                 1.7735
 Frc consts  --      1.9405                 0.9973                 1.2388
 IR Inten    --      0.2152                 1.0772                 2.2313

                     25                     26                     27
                      A                      A                      A
 Frequencies --   1099.4006              1128.8553              1131.1276
 Red. masses --      2.5123                 1.0295                 1.6740
 Frc consts  --      1.7891                 0.7730                 1.2619
 IR Inten    --     67.9979                 0.9689                 0.7465

                     28                     29                     30
                      A                      A                      A
 Frequencies --   1145.8833              1196.8737              1227.9623
 Red. masses --      1.6525                 1.2951                 1.5975
 Frc consts  --      1.2784                 1.0931                 1.4193
 IR Inten    --      0.3670                 2.9940                39.2191

                     31                     32                     33
                      A                      A                      A
 Frequencies --   1275.9316              1277.3657              1299.0635
 Red. masses --      1.1805                 1.2460                 1.4022
 Frc consts  --      1.1324                 1.1978                 1.3942
 IR Inten    --      2.1957                 2.9355                 3.5067

                     34                     35                     36
                      A                      A                      A
 Frequencies --   1318.6107              1346.8322              1351.7109
 Red. masses --      1.7263                 1.7021                 1.3133
 Frc consts  --      1.7684                 1.8192                 1.4138
 IR Inten    --      2.0323                 3.4020                 0.0090

                     37                     38                     39
                      A                      A                      A
 Frequencies --   1363.5805              1365.8132              1376.7420
 Red. masses --      1.4276                 1.2829                 1.5628
 Frc consts  --      1.5640                 1.4100                 1.7452
 IR Inten    --      0.1588                 0.0406                 1.4252

                     40                     41                     42
                      A                      A                      A
 Frequencies --   1391.3504              1400.9495              1405.3591
 Red. masses --      1.3678                 1.3705                 1.3949
 Frc consts  --      1.5600                 1.5848                 1.6232
 IR Inten    --      3.3040                 2.5828                 4.8805

                     43                     44                     45
                      A                      A                      A
 Frequencies --   1423.2345              1481.9562              1482.5633
 Red. masses --      1.3135                 1.0846                 1.0831
 Frc consts  --      1.5675                 1.4035                 1.4027
 IR Inten    --      3.8748                 1.0042                 0.7568

                     46                     47                     48
                      A                      A                      A
 Frequencies --   1488.1429              1494.9686              1501.3237
 Red. masses --      1.0923                 1.0893                 1.1080
 Frc consts  --      1.4252                 1.4344                 1.4714
 IR Inten    --      6.1624                 2.1204                 8.1787

                     49                     50                     51
                      A                      A                      A
 Frequencies --   1510.7471              2942.3538              2947.9149
 Red. masses --      1.0962                 1.0711                 1.0712
 Frc consts  --      1.4741                 5.4633                 5.4847
 IR Inten    --      1.5633                24.7219               116.3455

                     52                     53                     54
                      A                      A                      A
 Frequencies --   3005.8430              3006.2248              3011.8429
 Red. masses --      1.0675                 1.0647                 1.0649
 Frc consts  --      5.6824                 5.6689                 5.6916
 IR Inten    --     24.2501                 6.3350                 5.9427

                     55                     56                     57
                      A                      A                      A
 Frequencies --   3023.9357              3030.1562              3037.6212
 Red. masses --      1.0815                 1.0749                 1.0725
 Frc consts  --      5.8267                 5.8149                 5.8307
 IR Inten    --     97.0120                98.6192                34.9995

                     58                     59                     60
                      A                      A                      A
 Frequencies --   3048.1111              3048.8913              3057.0249
 Red. masses --      1.0962                 1.1003                 1.1037
 Frc consts  --      6.0004                 6.0261                 6.0770
 IR Inten    --     32.4739                24.0893                44.3328

                     61                     62                     63
                      A                      A                      A
 Frequencies --   3067.2616              3069.9950              3105.5699
 Red. masses --      1.0904                 1.0921                 1.0951
 Frc consts  --      6.0439                 6.0646                 6.2226
 IR Inten    --     62.6820                27.5879                29.4870

 - Thermochemistry -
 -------------------
 Temperature   298.150 Kelvin.  Pressure   1.00000 Atm.
 Atom     1 has atomic number  6 and mass  12.00000

 Molecular mass:   126.10447 amu.
 Principal axes and moments of inertia in atomic units:
                           1         2         3
     Eigenvalues --   841.41524 942.790661132.77046
           X            0.99875   0.00000   0.04997
           Y           -0.00000   1.00000   0.00000
           Z           -0.04997  -0.00000   0.99875
 This molecule is an asymmetric top.
 Rotational symmetry number  1.
 Warning -- assumption of classical behavior for rotation
           may cause significant error
 Rotational temperatures (Kelvin)      0.10294     0.09187     0.07646
 Rotational constants (GHZ):           2.14489     1.91425     1.59321
 Zero-point vibrational energy     554579.1 (Joules/Mol)
                                  132.54760 (Kcal/Mol)
 Warning -- explicit consideration of   9 degrees of freedom as
           vibrations may cause significant error
 Vibrational temperatures:    246.30   367.26   382.19   492.87   557.35
          (Kelvin)            563.98   585.74   694.76   774.39   961.43
                             1076.17  1122.82  1134.24  1221.74  1257.75
                             1258.16  1315.51  1348.94  1399.96  1414.44
                             1455.47  1497.27  1518.28  1566.58  1581.79
                             1624.17  1627.44  1648.67  1722.03  1766.76
                             1835.78  1837.84  1869.06  1897.19  1937.79
                             1944.81  1961.89  1965.10  1980.82  2001.84
                             2015.65  2022.00  2047.72  2132.20  2133.08
                             2141.11  2150.93  2160.07  2173.63  4233.39
                             4241.39  4324.74  4325.29  4333.37  4350.77
                             4359.72  4370.46  4385.55  4386.67  4398.38
                             4413.11  4417.04  4468.22

 Zero-point correction=                           0.211228 (Hartree/Particle)
 Thermal correction to Energy=                    0.218501
 Thermal correction to Enthalpy=                  0.219445
 Thermal correction to Gibbs Free Energy=         0.180104
 Sum of electronic and zero-point Energies=           -388.321833
 Sum of electronic and thermal Energies=              -388.314561
 Sum of electronic and thermal Enthalpies=            -388.313616
 Sum of electronic and thermal Free Energies=         -388.352958

                     E (Thermal)             CV                S
                      KCal/Mol        Cal/Mol-Kelvin    Cal/Mol-Kelvin
 Total                  137.111             31.007             82.800
 Electronic               0.000              0.000              0.000
 Translational            0.889              2.981             40.409
 Rotational               0.889              2.981             28.287
 Vibrational            135.334             25.046             14.104
 Vibration     1          0.626              1.878              2.422
 Vibration     2          0.666              1.754              1.694
 Vibration     3          0.671              1.736              1.624
 Vibration     4          0.722              1.590              1.200
 Vibration     5          0.756              1.497              1.010
 Vibration     6          0.759              1.487              0.993
 Vibration     7          0.772              1.455              0.937
 Vibration     8          0.839              1.288              0.702
 Vibration     9          0.893              1.166              0.569

 Optimization completed.
    -- Stationary point found.
 Normal termination of Gaussian 16 at Thu Aug  4 14:39:42 2022.
