 Gaussian 16, Revision A.03,
 Gaussian 16:  ES64L-G16RevA.03 25-Dec-2016

 -----------------------------
 # opt freq b3lyp/6-31g(2df,p)
 -----------------------------

 -------------------
 Title Card Required
 -------------------
 Symbolic Z-matrix:
 Charge =  0 Multiplicity = 1

 SCF Done:  E(RB3LYP) =  -351.333464610     A.U. after   12 cycles
 SCF Done:  E(RB3LYP) =  -351.352406691     A.U. after   10 cycles
 SCF Done:  E(RB3LYP) =  -351.358691393     A.U. after   10 cycles
 SCF Done:  E(RB3LYP) =  -351.360080710     A.U. after   10 cycles
 SCF Done:  E(RB3LYP) =  -351.360392684     A.U. after    9 cycles
 SCF Done:  E(RB3LYP) =  -351.360424396     A.U. after    8 cycles
 SCF Done:  E(RB3LYP) =  -351.360435661     A.U. after    8 cycles
 SCF Done:  E(RB3LYP) =  -351.360436907     A.U. after    6 cycles
 Optimization completed.
    -- Stationary point found.
 Normal termination of Gaussian 16 at Thu Aug  4 09:11:07 2022.

 ----------------------------------------------------------------------
 #N Geom=AllCheck Guess=TCheck SCRF=Check GenChk RB3LYP/6-31G(2df,p) Fr
 eq
 ----------------------------------------------------------------------

 Structure from the checkpoint file:  "C1CC2CC2C2CCC12.chk"
 -------------------
 Title Card Required
 -------------------
 Charge =  0 Multiplicity = 1

                         Standard orientation:
 ---------------------------------------------------------------------
 Center     Atomic      Atomic             Coordinates (Angstroms)
 Number     Number       Type             X           Y           Z
 ---------------------------------------------------------------------
      1          6           0        0.024304    1.517296    0.423004
      2          6           0        1.463399    1.355939   -0.091774
      3          6           0        1.882674   -0.098853   -0.244025
      4          6           0        1.539526   -1.112640    0.816431
      5          6           0        0.826574   -1.153453   -0.518523
      6          6           0       -0.619816   -0.722612   -0.683067
      7          6           0       -1.715694   -1.082676    0.364255
      8          6           0       -2.297885    0.349357    0.201356
      9          6           0       -0.971258    0.787617   -0.481167
     10          1           0       -0.233874    2.580829    0.482868
     11          1           0       -0.046072    1.134692    1.449105
     12          1           0        2.160183    1.873374    0.579684
     13          1           0        1.550198    1.852465   -1.068333
     14          1           0        2.839967   -0.234176   -0.740079
     15          1           0        0.986703   -0.783327    1.689741
     16          1           0        2.257290   -1.897642    1.029356
     17          1           0        1.130780   -1.968613   -1.168921
     18          1           0       -0.958258   -1.034982   -1.676182
     19          1           0       -1.293069   -1.248168    1.358988
     20          1           0       -2.372943   -1.924281    0.131067
     21          1           0       -2.580856    0.881349    1.114389
     22          1           0       -3.146600    0.376329   -0.487724
     23          1           0       -1.084397    1.352305   -1.412898
 ---------------------------------------------------------------------

 SCF Done:  E(RB3LYP) =  -351.360436907     A.U. after    1 cycles

 The electronic state is 1-A.
 Alpha  occ. eigenvalues --  -10.18134 -10.17896 -10.17718 -10.17605 -10.17505
 Alpha  occ. eigenvalues --  -10.17368 -10.17356 -10.17154 -10.17045  -0.86689
 Alpha  occ. eigenvalues --   -0.82084  -0.75628  -0.66836  -0.65920  -0.61356
 Alpha  occ. eigenvalues --   -0.57312  -0.55007  -0.50587  -0.49509  -0.46604
 Alpha  occ. eigenvalues --   -0.45930  -0.41868  -0.41173  -0.39293  -0.37002
 Alpha  occ. eigenvalues --   -0.36571  -0.34853  -0.34149  -0.33346  -0.30477
 Alpha  occ. eigenvalues --   -0.29893  -0.27857  -0.26629  -0.25087
 Alpha virt. eigenvalues --    0.07822   0.09614   0.11107   0.11981   0.12134
 Alpha virt. eigenvalues --    0.13830   0.14582   0.15504   0.16765   0.18208
 Alpha virt. eigenvalues --    0.18522   0.18942   0.19880   0.20159   0.21762

 Mulliken charges:
               1
     1  C   -0.225360
     2  C   -0.218316
     3  C   -0.005393
     4  C   -0.300627
     5  C   -0.044021
     6  C    0.021340
     7  C   -0.234141
     8  C   -0.239586
     9  C    0.013179
    10  H    0.091634
    11  H    0.094570
    12  H    0.092490
    13  H    0.092535
    14  H    0.075924
    15  H    0.107935
    16  H    0.103218
    17  H    0.075093
    18  H    0.065604
    19  H    0.099085
    20  H    0.091532
    21  H    0.090801
    22  H    0.095138
    23  H    0.057366
 Sum of Mulliken charges =  -0.00000

 Dipole moment (field-independent basis, Debye):
    X=              0.0787    Y=              0.0828    Z=             -0.2114  Tot=              0.2403
 Quadrupole moment (field-independent basis, Debye-Ang):
   XX=            -56.3963   YY=            -56.1845   ZZ=            -55.7013
   XY=             -0.4403   XZ=              0.0852   YZ=              0.4875

  Exact polarizability:  96.697   0.458  88.716   0.417  -0.430  78.007
 Approx polarizability: 127.311   1.757 125.845   1.119  -1.083 124.843

                      1                      2                      3
                      A                      A                      A
 Frequencies --    104.9102               201.4201               272.5838
 Red. masses --      2.2113                 2.6927                 1.9768
 Frc consts  --      0.0143                 0.0644                 0.0865
 IR Inten    --      0.0124                 0.0075                 0.0739

                      4                      5                      6
                      A                      A                      A
 Frequencies --    329.4707               349.8385               387.6700
 Red. masses --      2.3661                 2.0127                 3.1775
 Frc consts  --      0.1513                 0.1451                 0.2814
 IR Inten    --      0.3370                 0.0929                 0.0396

                      7                      8                      9
                      A                      A                      A
 Frequencies --    449.8269               555.1572               621.7884
 Red. masses --      3.9548                 2.7655                 1.9594
 Frc consts  --      0.4715                 0.5022                 0.4463
 IR Inten    --      0.5319                 0.3013                 2.0820

                     10                     11                     12
                      A                      A                      A
 Frequencies --    644.7054               733.6864               765.1642
 Red. masses --      2.0860                 1.6622                 2.4863
 Frc consts  --      0.5109                 0.5272                 0.8577
 IR Inten    --      2.3699                 0.5018                 2.3949

                     13                     14                     15
                      A                      A                      A
 Frequencies --    783.1160               834.7483               861.2132
 Red. masses --      2.0451                 1.4740                 1.7826
 Frc consts  --      0.7390                 0.6052                 0.7790
 IR Inten    --      0.1484                 5.9736                 0.5073

                     16                     17                     18
                      A                      A                      A
 Frequencies --    885.0846               913.6979               944.4196
 Red. masses --      2.0287                 2.5176                 2.3204
 Frc consts  --      0.9363                 1.2384                 1.2194
 IR Inten    --      0.5631                 0.9124                 0.8251

                     19                     20                     21
                      A                      A                      A
 Frequencies --    949.8785               969.5089               975.7761
 Red. masses --      1.9556                 2.2509                 1.5295
 Frc consts  --      1.0396                 1.2466                 0.8580
 IR Inten    --      1.7371                 0.0324                 0.9285

                     22                     23                     24
                      A                      A                      A
 Frequencies --   1007.5801              1021.3938              1058.5836
 Red. masses --      1.6274                 2.0729                 1.2756
 Frc consts  --      0.9734                 1.2742                 0.8422
 IR Inten    --      1.5261                 0.7797                 6.0096

                     25                     26                     27
                      A                      A                      A
 Frequencies --   1075.1117              1099.7216              1114.7484
 Red. masses --      1.8571                 1.5621                 1.7307
 Frc consts  --      1.2647                 1.1131                 1.2671
 IR Inten    --      0.2092                 0.3029                 1.1416

                     28                     29                     30
                      A                      A                      A
 Frequencies --   1126.7865              1133.0975              1161.5660
 Red. masses --      1.6692                 1.1810                 1.7744
 Frc consts  --      1.2486                 0.8934                 1.4105
 IR Inten    --      1.3921                 0.7394                 0.7017

                     31                     32                     33
                      A                      A                      A
 Frequencies --   1192.9632              1220.4648              1237.6903
 Red. masses --      1.4602                 1.3780                 1.4007
 Frc consts  --      1.2244                 1.2093                 1.2642
 IR Inten    --      0.9167                 0.1192                 2.2255

                     34                     35                     36
                      A                      A                      A
 Frequencies --   1244.6127              1254.7982              1263.4755
 Red. masses --      1.4466                 1.2519                 1.3940
 Frc consts  --      1.3203                 1.1614                 1.3112
 IR Inten    --      0.4386                 0.7215                 0.0696

                     37                     38                     39
                      A                      A                      A
 Frequencies --   1288.5857              1292.9857              1336.3853
 Red. masses --      1.4679                 1.4304                 1.3043
 Frc consts  --      1.4361                 1.4089                 1.3725
 IR Inten    --      0.4797                 0.6588                 1.1688

                     40                     41                     42
                      A                      A                      A
 Frequencies --   1362.8015              1369.2829              1384.0329
 Red. masses --      1.5841                 1.5263                 1.5389
 Frc consts  --      1.7334                 1.6861                 1.7368
 IR Inten    --      4.1147                 2.4062                 0.4958

                     43                     44                     45
                      A                      A                      A
 Frequencies --   1389.7321              1416.2998              1481.5857
 Red. masses --      1.5066                 1.5941                 1.0921
 Frc consts  --      1.7144                 1.8840                 1.4125
 IR Inten    --      1.8130                 1.7733                 0.3471

                     46                     47                     48
                      A                      A                      A
 Frequencies --   1486.6770              1490.0598              1498.6823
 Red. masses --      1.2685                 1.0883                 1.1405
 Frc consts  --      1.6518                 1.4237                 1.5093
 IR Inten    --      2.3961                 1.4330                 1.0972

                     49                     50                     51
                      A                      A                      A
 Frequencies --   1509.6964              3006.5427              3021.2984
 Red. masses --      1.1346                 1.0618                 1.0667
 Frc consts  --      1.5236                 5.6552                 5.7369
 IR Inten    --      7.2879                39.7334                 8.1607

                     52                     53                     54
                      A                      A                      A
 Frequencies --   3029.7503              3043.6095              3044.2416
 Red. masses --      1.0835                 1.0858                 1.0864
 Frc consts  --      5.8601                 5.9264                 5.9317
 IR Inten    --     12.6370                13.8478                75.8228

                     55                     56                     57
                      A                      A                      A
 Frequencies --   3050.1112              3059.2542              3064.2047
 Red. masses --      1.0659                 1.0612                 1.1000
 Frc consts  --      5.8425                 5.8516                 6.0852
 IR Inten    --     32.9192                38.1237                75.2284

                     58                     59                     60
                      A                      A                      A
 Frequencies --   3092.0351              3111.9722              3129.9281
 Red. masses --      1.1077                 1.1065                 1.0553
 Frc consts  --      6.2395                 6.3138                 6.0914
 IR Inten    --      8.6025                55.6538                23.6016

                     61                     62                     63
                      A                      A                      A
 Frequencies --   3130.8723              3142.4085              3209.9658
 Red. masses --      1.0874                 1.0898                 1.1148
 Frc consts  --      6.2804                 6.3404                 6.7680
 IR Inten    --     18.1195                32.7390                18.3632

 - Thermochemistry -
 -------------------
 Temperature   298.150 Kelvin.  Pressure   1.00000 Atm.
 Atom     1 has atomic number  6 and mass  12.00000

 Molecular mass:   122.10955 amu.
 Principal axes and moments of inertia in atomic units:
                           1         2         3
     Eigenvalues --   659.867201110.351341466.26170
           X            0.99999   0.00437  -0.00130
           Y           -0.00437   0.99999  -0.00121
           Z            0.00130   0.00122   1.00000
 This molecule is an asymmetric top.
 Rotational symmetry number  1.
 Warning -- assumption of classical behavior for rotation
           may cause significant error
 Rotational temperatures (Kelvin)      0.13126     0.07801     0.05907
 Rotational constants (GHZ):           2.73501     1.62538     1.23085
 Zero-point vibrational energy     551414.2 (Joules/Mol)
                                  131.79116 (Kcal/Mol)
 Warning -- explicit consideration of   8 degrees of freedom as
           vibrations may cause significant error
 Vibrational temperatures:    150.94   289.80   392.19   474.03   503.34
          (Kelvin)            557.77   647.20   798.75   894.61   927.59
                             1055.61  1100.90  1126.73  1201.02  1239.09
                             1273.44  1314.61  1358.81  1366.66  1394.91
                             1403.92  1449.68  1469.56  1523.07  1546.85
                             1582.25  1603.87  1621.19  1630.27  1671.23
                             1716.41  1755.98  1780.76  1790.72  1805.37
                             1817.86  1853.99  1860.32  1922.76  1960.77
                             1970.09  1991.31  1999.51  2037.74  2131.67
                             2139.00  2143.86  2156.27  2172.12  4325.74
                             4346.97  4359.13  4379.08  4379.98  4388.43
                             4401.58  4408.71  4448.75  4477.43  4503.27
                             4504.63  4521.22  4618.42

 Zero-point correction=                           0.210023 (Hartree/Particle)
 Thermal correction to Energy=                    0.217506
 Thermal correction to Enthalpy=                  0.218451
 Thermal correction to Gibbs Free Energy=         0.178424
 Sum of electronic and zero-point Energies=           -351.150414
 Sum of electronic and thermal Energies=              -351.142931
 Sum of electronic and thermal Enthalpies=            -351.141986
 Sum of electronic and thermal Free Energies=         -351.182013

                     E (Thermal)             CV                S
                      KCal/Mol        Cal/Mol-Kelvin    Cal/Mol-Kelvin
 Total                  136.487             31.686             84.244
 Electronic               0.000              0.000              0.000
 Translational            0.889              2.981             40.313
 Rotational               0.889              2.981             28.465
 Vibrational            134.710             25.724             15.465
 Vibration     1          0.605              1.945              3.361
 Vibration     2          0.638              1.838              2.120
 Vibration     3          0.676              1.724              1.580
 Vibration     4          0.712              1.617              1.263
 Vibration     5          0.727              1.576              1.167
 Vibration     6          0.756              1.497              1.009
 Vibration     7          0.809              1.361              0.796
 Vibration     8          0.911              1.128              0.534

                           ! Non-Optimized Parameters !
 Normal termination of Gaussian 16 at Thu Aug  4 09:53:14 2022.
