 Gaussian 16, Revision A.03,
 Gaussian 16:  ES64L-G16RevA.03 25-Dec-2016

 -----------------------------
 # opt freq b3lyp/6-31g(2df,p)
 -----------------------------

 -------------------
 Title Card Required
 -------------------
 Symbolic Z-matrix:
 Charge =  0 Multiplicity = 1

 SCF Done:  E(RB3LYP) =  -388.480908981     A.U. after   12 cycles
 SCF Done:  E(RB3LYP) =  -388.489920913     A.U. after   10 cycles
 SCF Done:  E(RB3LYP) =  -388.490736818     A.U. after   10 cycles
 SCF Done:  E(RB3LYP) =  -388.491005658     A.U. after   10 cycles
 SCF Done:  E(RB3LYP) =  -388.491074362     A.U. after    9 cycles
 SCF Done:  E(RB3LYP) =  -388.491119444     A.U. after    9 cycles
 SCF Done:  E(RB3LYP) =  -388.491132220     A.U. after    9 cycles
 SCF Done:  E(RB3LYP) =  -388.491134037     A.U. after    7 cycles
 Optimization completed.
    -- Stationary point found.
 Normal termination of Gaussian 16 at Thu Aug  4 03:08:40 2022.

 ----------------------------------------------------------------------
 #N Geom=AllCheck Guess=TCheck SCRF=Check GenChk RB3LYP/6-31G(2df,p) Fr
 eq
 ----------------------------------------------------------------------

 Structure from the checkpoint file:  "C1CC2CCC2CCO1.chk"
 -------------------
 Title Card Required
 -------------------
 Charge =  0 Multiplicity = 1

                         Standard orientation:
 ---------------------------------------------------------------------
 Center     Atomic      Atomic             Coordinates (Angstroms)
 Number     Number       Type             X           Y           Z
 ---------------------------------------------------------------------
      1          6           0       -1.546198    1.043832    0.488811
      2          6           0       -0.371908    1.712314   -0.229763
      3          6           0        0.859281    0.835109   -0.486985
      4          6           0        1.986782    0.681093    0.569327
      5          6           0        2.256008   -0.735133   -0.005324
      6          6           0        0.811873   -0.731978   -0.592164
      7          6           0       -0.160703   -1.447711    0.349577
      8          6           0       -1.644082   -1.314696   -0.003065
      9          8           0       -2.076592   -0.000453   -0.311493
     10          1           0       -2.350581    1.776783    0.624011
     11          1           0       -1.271095    0.687929    1.491060
     12          1           0       -0.066342    2.607873    0.329471
     13          1           0       -0.766913    2.068056   -1.188776
     14          1           0        1.337605    1.193568   -1.405797
     15          1           0        1.596157    0.638127    1.590981
     16          1           0        2.800053    1.411194    0.545576
     17          1           0        2.502453   -1.535049    0.698622
     18          1           0        3.017962   -0.712711   -0.789292
     19          1           0        0.697662   -1.126394   -1.607268
     20          1           0        0.008061   -1.107042    1.377959
     21          1           0        0.079448   -2.519560    0.358441
     22          1           0       -2.244701   -1.732150    0.823080
     23          1           0       -1.873354   -1.903982   -0.898607
 ---------------------------------------------------------------------

 SCF Done:  E(RB3LYP) =  -388.491134037     A.U. after    1 cycles

 The electronic state is 1-A.
 Alpha  occ. eigenvalues --  -19.12641 -10.22037 -10.21971 -10.18281 -10.18149
 Alpha  occ. eigenvalues --  -10.17829 -10.17632 -10.17559 -10.17315  -1.01882
 Alpha  occ. eigenvalues --   -0.84645  -0.77227  -0.73079  -0.67713  -0.63872
 Alpha  occ. eigenvalues --   -0.60645  -0.56602  -0.52466  -0.50063  -0.47149
 Alpha  occ. eigenvalues --   -0.46092  -0.44190  -0.43952  -0.41202  -0.39164
 Alpha  occ. eigenvalues --   -0.38005  -0.36940  -0.35514  -0.34982  -0.33155
 Alpha  occ. eigenvalues --   -0.30092  -0.29041  -0.28932  -0.28588  -0.23947
 Alpha virt. eigenvalues --    0.08194   0.09001   0.11136   0.11736   0.13258
 Alpha virt. eigenvalues --    0.13955   0.14371   0.15105   0.15968   0.16889
 Alpha virt. eigenvalues --    0.17190   0.18864   0.19293   0.20201   0.20540

 Mulliken charges:
               1
     1  C   -0.081342
     2  C   -0.234844
     3  C    0.061255
     4  C   -0.235639
     5  C   -0.227610
     6  C   -0.002731
     7  C   -0.230494
     8  C   -0.067857
     9  O   -0.249208
    10  H    0.098619
    11  H    0.088044
    12  H    0.087831
    13  H    0.103908
    14  H    0.072901
    15  H    0.097377
    16  H    0.091401
    17  H    0.089753
    18  H    0.097258
    19  H    0.060395
    20  H    0.099764
    21  H    0.095461
    22  H    0.082227
    23  H    0.103529
 Sum of Mulliken charges =  -0.00000

 Dipole moment (field-independent basis, Debye):
    X=              0.9877    Y=             -0.1587    Z=              0.6460  Tot=              1.1908
 Quadrupole moment (field-independent basis, Debye-Ang):
   XX=            -60.1157   YY=            -53.9035   ZZ=            -55.6441
   XY=              0.4019   XZ=             -2.1940   YZ=              0.2880

  Exact polarizability:  90.639   0.431  90.268  -0.834   0.433  74.268
 Approx polarizability: 117.825   0.377 124.676   1.060   0.724 117.919

                      1                      2                      3
                      A                      A                      A
 Frequencies --    103.2191               158.4204               212.2050
 Red. masses --      2.9608                 2.1842                 2.7636
 Frc consts  --      0.0186                 0.0323                 0.0733
 IR Inten    --      2.7975                 0.2824                 1.9266

                      4                      5                      6
                      A                      A                      A
 Frequencies --    271.6664               325.2779               336.7991
 Red. masses --      2.2525                 2.6968                 2.2323
 Frc consts  --      0.0979                 0.1681                 0.1492
 IR Inten    --      0.5960                 0.0397                 0.3242

                      7                      8                      9
                      A                      A                      A
 Frequencies --    383.4700               408.2753               560.9575
 Red. masses --      2.4866                 2.5959                 2.1928
 Frc consts  --      0.2154                 0.2549                 0.4065
 IR Inten    --      1.0330                 1.8727                 5.2327

                     10                     11                     12
                      A                      A                      A
 Frequencies --    613.3099               625.1125               747.0007
 Red. masses --      2.2151                 2.1443                 1.5960
 Frc consts  --      0.4909                 0.4937                 0.5247
 IR Inten    --      0.5293                 6.3235                 0.1126

                     13                     14                     15
                      A                      A                      A
 Frequencies --    794.3266               820.1137               863.0087
 Red. masses --      2.8868                 1.9315                 2.2157
 Frc consts  --      1.0732                 0.7654                 0.9723
 IR Inten    --      3.5529                 1.3395                 2.3063

                     16                     17                     18
                      A                      A                      A
 Frequencies --    877.3021               903.1812               929.8776
 Red. masses --      2.1223                 2.3321                 2.5108
 Frc consts  --      0.9624                 1.1208                 1.2791
 IR Inten    --      2.4353                 0.6905                 1.6348

                     19                     20                     21
                      A                      A                      A
 Frequencies --    959.6124               972.4128               998.1994
 Red. masses --      1.7731                 1.4919                 2.1360
 Frc consts  --      0.9620                 0.8312                 1.2539
 IR Inten    --      0.9924                 1.6334                 4.2742

                     22                     23                     24
                      A                      A                      A
 Frequencies --   1020.9023              1037.0867              1065.1455
 Red. masses --      2.3810                 1.4182                 1.7680
 Frc consts  --      1.4621                 0.8987                 1.1818
 IR Inten    --      9.8716                 1.7943                 7.5243

                     25                     26                     27
                      A                      A                      A
 Frequencies --   1106.9706              1129.4094              1156.6291
 Red. masses --      2.0298                 1.9373                 2.2006
 Frc consts  --      1.4655                 1.4560                 1.7345
 IR Inten    --     12.0665                25.9369                12.5206

                     28                     29                     30
                      A                      A                      A
 Frequencies --   1171.6708              1204.9076              1236.5475
 Red. masses --      3.4961                 1.4662                 1.2988
 Frc consts  --      2.8278                 1.2542                 1.1701
 IR Inten    --     71.4803                 4.9250                 1.7978

                     31                     32                     33
                      A                      A                      A
 Frequencies --   1237.6892              1259.1055              1263.4612
 Red. masses --      1.4134                 1.2543                 1.4041
 Frc consts  --      1.2756                 1.1716                 1.3206
 IR Inten    --     11.9742                 1.4219                 0.4301

                     34                     35                     36
                      A                      A                      A
 Frequencies --   1279.3101              1287.4512              1302.8101
 Red. masses --      1.3678                 1.3747                 1.3538
 Frc consts  --      1.3189                 1.3426                 1.3538
 IR Inten    --     15.2007                 2.0839                 4.3184

                     37                     38                     39
                      A                      A                      A
 Frequencies --   1317.6027              1346.4041              1370.2566
 Red. masses --      1.3780                 1.2642                 1.3616
 Frc consts  --      1.4096                 1.3503                 1.5063
 IR Inten    --      3.1877                 0.8688                 5.8591

                     40                     41                     42
                      A                      A                      A
 Frequencies --   1389.5157              1405.8687              1408.7333
 Red. masses --      1.3068                 1.4466                 1.3125
 Frc consts  --      1.4866                 1.6846                 1.5346
 IR Inten    --      2.8858                 2.7890                11.1078

                     43                     44                     45
                      A                      A                      A
 Frequencies --   1424.2424              1469.7050              1477.8796
 Red. masses --      1.3096                 1.0877                 1.0876
 Frc consts  --      1.5651                 1.3842                 1.3996
 IR Inten    --      6.5690                 1.8539                 2.3454

                     46                     47                     48
                      A                      A                      A
 Frequencies --   1487.6433              1503.2273              1506.6618
 Red. masses --      1.0866                 1.1191                 1.0912
 Frc consts  --      1.4168                 1.4899                 1.4594
 IR Inten    --      1.1598                 0.9073                 1.6675

                     49                     50                     51
                      A                      A                      A
 Frequencies --   1517.2659              2956.8592              3004.4795
 Red. masses --      1.0900                 1.0714                 1.0610
 Frc consts  --      1.4785                 5.5193                 5.6428
 IR Inten    --      5.4538                87.4707                21.5863

                     52                     53                     54
                      A                      A                      A
 Frequencies --   3010.3133              3021.2575              3026.9121
 Red. masses --      1.0647                 1.0655                 1.0844
 Frc consts  --      5.6845                 5.7303                 5.8538
 IR Inten    --     30.3290                43.7194                16.3197

                     55                     56                     57
                      A                      A                      A
 Frequencies --   3038.8684              3045.9031              3048.3279
 Red. masses --      1.0840                 1.0737                 1.0918
 Frc consts  --      5.8980                 5.8691                 5.9775
 IR Inten    --     20.8218                 8.4411                12.5275

                     58                     59                     60
                      A                      A                      A
 Frequencies --   3049.8165              3056.3786              3061.2696
 Red. masses --      1.0774                 1.0660                 1.0991
 Frc consts  --      5.9046                 5.8669                 6.0685
 IR Inten    --     56.0066                36.4568                33.8824

                     61                     62                     63
                      A                      A                      A
 Frequencies --   3069.4013              3092.3908              3109.2651
 Red. masses --      1.0962                 1.1071                 1.1070
 Frc consts  --      6.0850                 6.2378                 6.3057
 IR Inten    --    115.0630                11.6811                64.7910

 - Thermochemistry -
 -------------------
 Temperature   298.150 Kelvin.  Pressure   1.00000 Atm.
 Atom     1 has atomic number  6 and mass  12.00000

 Molecular mass:   126.10447 amu.
 Principal axes and moments of inertia in atomic units:
                           1         2         3
     Eigenvalues --   685.078701198.314901642.78179
           X            0.99997   0.00148  -0.00780
           Y           -0.00149   1.00000  -0.00164
           Z            0.00780   0.00165   0.99997
 This molecule is an asymmetric top.
 Rotational symmetry number  1.
 Warning -- assumption of classical behavior for rotation
           may cause significant error
 Rotational temperatures (Kelvin)      0.12643     0.07228     0.05272
 Rotational constants (GHZ):           2.63436     1.50607     1.09859
 Zero-point vibrational energy     549321.0 (Joules/Mol)
                                  131.29086 (Kcal/Mol)
 Warning -- explicit consideration of  10 degrees of freedom as
           vibrations may cause significant error
 Vibrational temperatures:    148.51   227.93   305.32   390.87   468.00
          (Kelvin)            484.58   551.73   587.42   807.09   882.42
                              899.40  1074.77  1142.86  1179.96  1241.68
                             1262.24  1299.48  1337.89  1380.67  1399.09
                             1436.19  1468.85  1492.14  1532.51  1592.68
                             1624.97  1664.13  1685.77  1733.59  1779.12
                             1780.76  1811.57  1817.84  1840.64  1852.36
                             1874.45  1895.74  1937.18  1971.49  1999.20
                             2022.73  2026.85  2049.17  2114.58  2126.34
                             2140.39  2162.81  2167.75  2183.01  4254.26
                             4322.78  4331.17  4346.92  4355.05  4372.25
                             4382.38  4385.86  4388.01  4397.45  4404.48
                             4416.18  4449.26  4473.54

 Zero-point correction=                           0.209225 (Hartree/Particle)
 Thermal correction to Energy=                    0.217254
 Thermal correction to Enthalpy=                  0.218198
 Thermal correction to Gibbs Free Energy=         0.176879
 Sum of electronic and zero-point Energies=           -388.281909
 Sum of electronic and thermal Energies=              -388.273880
 Sum of electronic and thermal Enthalpies=            -388.272936
 Sum of electronic and thermal Free Energies=         -388.314255

                     E (Thermal)             CV                S
                      KCal/Mol        Cal/Mol-Kelvin    Cal/Mol-Kelvin
 Total                  136.329             32.518             86.964
 Electronic               0.000              0.000              0.000
 Translational            0.889              2.981             40.409
 Rotational               0.889              2.981             28.691
 Vibrational            134.551             26.557             17.864
 Vibration     1          0.605              1.947              3.393
 Vibration     2          0.621              1.893              2.569
 Vibration     3          0.643              1.822              2.025
 Vibration     4          0.675              1.725              1.586
 Vibration     5          0.709              1.625              1.283
 Vibration     6          0.718              1.602              1.227
 Vibration     7          0.753              1.505              1.025
 Vibration     8          0.773              1.452              0.933
 Vibration     9          0.917              1.116              0.522
 Vibration    10          0.973              1.004              0.427

                           ! Non-Optimized Parameters !
 Normal termination of Gaussian 16 at Thu Aug  4 03:53:51 2022.
