 Gaussian 16, Revision A.03,
 Gaussian 16:  ES64L-G16RevA.03 25-Dec-2016

 -----------------------------
 # opt freq b3lyp/6-31g(2df,p)
 -----------------------------

 -------------------
 Title Card Required
 -------------------
 Symbolic Z-matrix:
 Charge =  0 Multiplicity = 1

 SCF Done:  E(RB3LYP) =  -310.572665511     A.U. after   13 cycles
 SCF Done:  E(RB3LYP) =  -310.621740096     A.U. after   12 cycles
 SCF Done:  E(RB3LYP) =  -310.652478895     A.U. after   12 cycles
 SCF Done:  E(RB3LYP) =  -310.673523296     A.U. after   11 cycles
 SCF Done:  E(RB3LYP) =  -310.690562226     A.U. after   11 cycles
 SCF Done:  E(RB3LYP) =  -310.699939975     A.U. after   11 cycles
 SCF Done:  E(RB3LYP) =  -310.706512077     A.U. after   11 cycles
 SCF Done:  E(RB3LYP) =  -310.708196224     A.U. after   11 cycles
 SCF Done:  E(RB3LYP) =  -310.708569934     A.U. after    9 cycles
 SCF Done:  E(RB3LYP) =  -310.708826269     A.U. after   10 cycles
 SCF Done:  E(RB3LYP) =  -310.708972787     A.U. after   10 cycles
 SCF Done:  E(RB3LYP) =  -310.709080212     A.U. after   10 cycles
 SCF Done:  E(RB3LYP) =  -310.709123988     A.U. after    8 cycles
 SCF Done:  E(RB3LYP) =  -310.709131806     A.U. after    8 cycles
 SCF Done:  E(RB3LYP) =  -310.709133220     A.U. after    7 cycles
 SCF Done:  E(RB3LYP) =  -310.709133492     A.U. after    6 cycles
 Optimization completed.
    -- Stationary point found.
 Normal termination of Gaussian 16 at Thu Aug  4 02:52:46 2022.

 ----------------------------------------------------------------------
 #N Geom=AllCheck Guess=TCheck SCRF=Check GenChk RB3LYP/6-31G(2df,p) Fr
 eq
 ----------------------------------------------------------------------

 Structure from the checkpoint file:  "C1CC23CC24CC4C13.chk"
 -------------------
 Title Card Required
 -------------------
 Charge =  0 Multiplicity = 1

                         Standard orientation:
 ---------------------------------------------------------------------
 Center     Atomic      Atomic             Coordinates (Angstroms)
 Number     Number       Type             X           Y           Z
 ---------------------------------------------------------------------
      1          6           0        1.744136   -0.662852   -0.030846
      2          6           0        1.464798    0.715716    0.671267
      3          6           0        0.214003    0.820662   -0.190154
      4          6           0       -1.071460    1.610573   -0.228193
      5          6           0       -1.147377    0.206578    0.214002
      6          6           0       -1.174523   -1.067169    0.930535
      7          6           0       -0.856409   -1.047982   -0.581043
      8          6           0        0.514121   -0.469326   -0.983445
      9          1           0        1.680054   -1.533937    0.624965
     10          1           0        2.696937   -0.699695   -0.562684
     11          1           0        2.231596    1.467340    0.456040
     12          1           0        1.313621    0.684236    1.756491
     13          1           0       -1.540193    1.922641   -1.160617
     14          1           0       -1.129899    2.361420    0.557716
     15          1           0       -2.147163   -1.505466    1.146518
     16          1           0       -0.419571   -1.302901    1.679315
     17          1           0       -1.540985   -1.556777   -1.255444
     18          1           0        0.731862   -0.474055   -2.055034
 ---------------------------------------------------------------------

 SCF Done:  E(RB3LYP) =  -310.709133492     A.U. after    1 cycles

 The electronic state is 1-A.
 Alpha  occ. eigenvalues --  -10.20305 -10.19863 -10.18904 -10.18774 -10.18473
 Alpha  occ. eigenvalues --  -10.18145 -10.17937 -10.17918  -0.92144  -0.79637
 Alpha  occ. eigenvalues --   -0.77480  -0.67472  -0.61705  -0.57013  -0.55615
 Alpha  occ. eigenvalues --   -0.48887  -0.48142  -0.47594  -0.45086  -0.42306
 Alpha  occ. eigenvalues --   -0.39557  -0.38043  -0.35588  -0.34560  -0.32658
 Alpha  occ. eigenvalues --   -0.29422  -0.28098  -0.23805  -0.21375
 Alpha virt. eigenvalues --    0.08393   0.08860   0.09968   0.11861   0.12713
 Alpha virt. eigenvalues --    0.13426   0.14769   0.15009   0.16393   0.17473
 Alpha virt. eigenvalues --    0.17715   0.18773   0.20998   0.21843   0.22750

 Mulliken charges:
               1
     1  C   -0.228721
     2  C   -0.306799
     3  C    0.275003
     4  C   -0.484016
     5  C    0.282939
     6  C   -0.384528
     7  C   -0.092446
     8  C   -0.068038
     9  H    0.104043
    10  H    0.102300
    11  H    0.098125
    12  H    0.094253
    13  H    0.115038
    14  H    0.126458
    15  H    0.117607
    16  H    0.112868
    17  H    0.075628
    18  H    0.060285
 Sum of Mulliken charges =  -0.00000

 Dipole moment (field-independent basis, Debye):
    X=              0.0184    Y=              0.0510    Z=              0.1158  Tot=              0.1279
 Quadrupole moment (field-independent basis, Debye-Ang):
   XX=            -47.8515   YY=            -48.1856   ZZ=            -47.4528
   XY=              0.0615   XZ=              0.1466   YZ=             -0.1663

  Exact polarizability:  81.672   1.657  78.416  -0.139  -0.137  69.568
 Approx polarizability: 117.609   3.706 119.566  -2.786   0.200 107.718

                      1                      2                      3
                      A                      A                      A
 Frequencies --    164.8983               245.3445               337.7654
 Red. masses --      2.0407                 2.5901                 2.1873
 Frc consts  --      0.0327                 0.0919                 0.1470
 IR Inten    --      0.2335                 0.4329                 0.7166

                      4                      5                      6
                      A                      A                      A
 Frequencies --    380.5780               447.3051               555.7669
 Red. masses --      2.2498                 2.8300                 2.8110
 Frc consts  --      0.1920                 0.3336                 0.5116
 IR Inten    --      2.0453                10.2113                 2.9353

                      7                      8                      9
                      A                      A                      A
 Frequencies --    608.2873               638.4175               680.5887
 Red. masses --      4.1287                 3.1124                 4.0201
 Frc consts  --      0.9001                 0.7474                 1.0971
 IR Inten    --      3.5891                 3.9796                 2.8119

                     10                     11                     12
                      A                      A                      A
 Frequencies --    753.0906               811.4881               849.0183
 Red. masses --      1.4067                 2.8295                 3.0364
 Frc consts  --      0.4700                 1.0978                 1.2896
 IR Inten    --      1.2929                 2.0603                 5.9749

                     13                     14                     15
                      A                      A                      A
 Frequencies --    868.5537               889.9469               919.5231
 Red. masses --      2.0189                 1.5484                 2.6319
 Frc consts  --      0.8974                 0.7225                 1.3112
 IR Inten    --      2.9938                 1.1493                 1.9467

                     16                     17                     18
                      A                      A                      A
 Frequencies --    937.2853               949.3801               989.5859
 Red. masses --      1.7262                 1.5614                 1.4700
 Frc consts  --      0.8935                 0.8292                 0.8482
 IR Inten    --      1.9993                 3.5572                 0.7836

                     19                     20                     21
                      A                      A                      A
 Frequencies --   1036.4280              1051.7986              1066.5438
 Red. masses --      1.7286                 1.5011                 1.5553
 Frc consts  --      1.0940                 0.9784                 1.0424
 IR Inten    --      0.0794                 4.5754                 4.7967

                     22                     23                     24
                      A                      A                      A
 Frequencies --   1086.4007              1100.3203              1118.3856
 Red. masses --      1.3102                 1.5056                 1.5779
 Frc consts  --      0.9111                 1.0740                 1.1628
 IR Inten    --      2.6181                 2.6871                 0.4581

                     25                     26                     27
                      A                      A                      A
 Frequencies --   1124.8408              1164.1419              1173.5285
 Red. masses --      1.7328                 1.3980                 1.9136
 Frc consts  --      1.2918                 1.1163                 1.5527
 IR Inten    --      0.3181                 0.2126                 4.3925

                     28                     29                     30
                      A                      A                      A
 Frequencies --   1215.8246              1240.9339              1257.8677
 Red. masses --      1.2621                 1.5332                 1.6211
 Frc consts  --      1.0992                 1.3911                 1.5113
 IR Inten    --      0.5314                 0.3903                 3.9123

                     31                     32                     33
                      A                      A                      A
 Frequencies --   1295.8047              1299.8896              1316.3747
 Red. masses --      1.8970                 1.8118                 2.2654
 Frc consts  --      1.8767                 1.8037                 2.3129
 IR Inten    --      2.8422                 3.1410                 1.4084

                     34                     35                     36
                      A                      A                      A
 Frequencies --   1448.2086              1472.9751              1478.3473
 Red. masses --      1.1704                 1.1081                 1.1683
 Frc consts  --      1.4463                 1.4166                 1.5044
 IR Inten    --      0.2697                 0.7373                 0.7488

                     37                     38                     39
                      A                      A                      A
 Frequencies --   1497.8896              1541.3730              3027.8393
 Red. masses --      1.1257                 4.6779                 1.0576
 Frc consts  --      1.4881                 6.5482                 5.7127
 IR Inten    --      1.8908                 6.7688                62.9174

                     40                     41                     42
                      A                      A                      A
 Frequencies --   3059.2282              3068.2752              3069.4234
 Red. masses --      1.0832                 1.1042                 1.0650
 Frc consts  --      5.9726                 6.1249                 5.9118
 IR Inten    --     40.4248                25.7846                42.3311

                     43                     44                     45
                      A                      A                      A
 Frequencies --   3084.1377              3086.9495              3122.5690
 Red. masses --      1.0559                 1.0538                 1.1078
 Frc consts  --      5.9173                 5.9166                 6.3642
 IR Inten    --     46.1062                21.6332                35.4542

                     46                     47                     48
                      A                      A                      A
 Frequencies --   3130.2185              3163.8668              3167.0060
 Red. masses --      1.0914                 1.1132                 1.1125
 Frc consts  --      6.3006                 6.5654                 6.5741
 IR Inten    --     43.1110                19.9157                10.5730

 - Thermochemistry -
 -------------------
 Temperature   298.150 Kelvin.  Pressure   1.00000 Atm.
 Atom     1 has atomic number  6 and mass  12.00000

 Molecular mass:   106.07825 amu.
 Principal axes and moments of inertia in atomic units:
                           1         2         3
     Eigenvalues --   538.87775 707.09591 897.77278
           X            0.99992  -0.00180   0.01285
           Y            0.00195   0.99994  -0.01119
           Z           -0.01282   0.01121   0.99985
 This molecule is an asymmetric top.
 Rotational symmetry number  1.
 Warning -- assumption of classical behavior for rotation
           may cause significant error
 Rotational temperatures (Kelvin)      0.16073     0.12249     0.09648
 Rotational constants (GHZ):           3.34907     2.55233     2.01024
 Zero-point vibrational energy     406695.7 (Joules/Mol)
                                   97.20261 (Kcal/Mol)
 Warning -- explicit consideration of   7 degrees of freedom as
           vibrations may cause significant error
 Vibrational temperatures:    237.25   353.00   485.97   547.57   643.57
          (Kelvin)            799.62   875.19   918.54   979.22  1083.53
                             1167.55  1221.55  1249.66  1280.44  1322.99
                             1348.54  1365.95  1423.79  1491.19  1513.30
                             1534.52  1563.09  1583.12  1609.11  1618.40
                             1674.94  1688.45  1749.30  1785.43  1809.79
                             1864.37  1870.25  1893.97  2083.65  2119.28
                             2127.01  2155.13  2217.69  4356.39  4401.55
                             4414.56  4416.22  4437.39  4441.43  4492.68
                             4503.69  4552.10  4556.62

 Zero-point correction=                           0.154902 (Hartree/Particle)
 Thermal correction to Energy=                    0.161276
 Thermal correction to Enthalpy=                  0.162220
 Thermal correction to Gibbs Free Energy=         0.124958
 Sum of electronic and zero-point Energies=           -310.554231
 Sum of electronic and thermal Energies=              -310.547857
 Sum of electronic and thermal Enthalpies=            -310.546913
 Sum of electronic and thermal Free Energies=         -310.584175

                     E (Thermal)             CV                S
                      KCal/Mol        Cal/Mol-Kelvin    Cal/Mol-Kelvin
 Total                  101.202             26.698             78.425
 Electronic               0.000              0.000              0.000
 Translational            0.889              2.981             39.894
 Rotational               0.889              2.981             27.328
 Vibrational             99.425             20.737             11.203
 Vibration     1          0.623              1.886              2.493
 Vibration     2          0.660              1.770              1.764
 Vibration     3          0.718              1.600              1.223
 Vibration     4          0.750              1.512              1.037
 Vibration     5          0.806              1.367              0.804
 Vibration     6          0.911              1.127              0.532
 Vibration     7          0.967              1.014              0.436

 Optimization completed.
    -- Stationary point found.
 Normal termination of Gaussian 16 at Thu Aug  4 03:18:23 2022.
