 Gaussian 16, Revision A.03,
 Gaussian 16:  ES64L-G16RevA.03 25-Dec-2016

 -----------------------------
 # opt freq b3lyp/6-31g(2df,p)
 -----------------------------

 -------------------
 Title Card Required
 -------------------
 Symbolic Z-matrix:
 Charge =  0 Multiplicity = 1

 SCF Done:  E(RB3LYP) =  -386.969289453     A.U. after   15 cycles
 SCF Done:  E(RB3LYP) =  -387.032508173     A.U. after   13 cycles
 SCF Done:  E(RB3LYP) =  -387.099248603     A.U. after   12 cycles
 SCF Done:  E(RB3LYP) =  -387.130846724     A.U. after   12 cycles
 SCF Done:  E(RB3LYP) =  -387.132059696     A.U. after    8 cycles
 SCF Done:  E(RB3LYP) =  -387.155439861     A.U. after   11 cycles
 SCF Done:  E(RB3LYP) =  -387.151219166     A.U. after   11 cycles
 SCF Done:  E(RB3LYP) =  -387.225451697     A.U. after   12 cycles
 SCF Done:  E(RB3LYP) =  -387.245420861     A.U. after   11 cycles
 SCF Done:  E(RB3LYP) =  -387.253791204     A.U. after   10 cycles
 SCF Done:  E(RB3LYP) =  -387.258199482     A.U. after   10 cycles
 SCF Done:  E(RB3LYP) =  -387.259003085     A.U. after   10 cycles
 SCF Done:  E(RB3LYP) =  -387.259266152     A.U. after    9 cycles
 SCF Done:  E(RB3LYP) =  -387.259394442     A.U. after    9 cycles
 SCF Done:  E(RB3LYP) =  -387.259486001     A.U. after    9 cycles
 SCF Done:  E(RB3LYP) =  -387.259514710     A.U. after    9 cycles
 SCF Done:  E(RB3LYP) =  -387.259520443     A.U. after    7 cycles
 SCF Done:  E(RB3LYP) =  -387.259521457     A.U. after    7 cycles
 Optimization completed.
    -- Stationary point found.
 Normal termination of Gaussian 16 at Thu Aug  4 05:45:09 2022.

 ----------------------------------------------------------------------
 #N Geom=AllCheck Guess=TCheck SCRF=Check GenChk RB3LYP/6-31G(2df,p) Fr
 eq
 ----------------------------------------------------------------------

 Structure from the checkpoint file:  "C1CC2CC3pCC3pC2O1.chk"
 -------------------
 Title Card Required
 -------------------
 Charge =  0 Multiplicity = 1

                         Standard orientation:
 ---------------------------------------------------------------------
 Center     Atomic      Atomic             Coordinates (Angstroms)
 Number     Number       Type             X           Y           Z
 ---------------------------------------------------------------------
      1          6           0       -1.680072   -0.933775    0.558536
      2          6           0       -2.092784    0.523544    0.284945
      3          6           0       -0.869476    1.097567   -0.443123
      4          6           0        0.363492    1.475764    0.436441
      5          6           0        1.063369    0.191285   -0.029875
      6          6           0        1.856791   -0.783549    0.789387
      7          6           0        2.517636   -0.021179   -0.332878
      8          6           0       -0.119513   -0.184039   -0.940301
      9          8           0       -0.879089   -1.315409   -0.556191
     10          1           0       -1.103842   -1.007772    1.493035
     11          1           0       -2.521484   -1.628630    0.618663
     12          1           0       -2.345389    1.067495    1.199666
     13          1           0       -2.965102    0.545049   -0.375712
     14          1           0       -1.136221    1.836290   -1.199451
     15          1           0        0.160077    1.538549    1.510932
     16          1           0        0.858471    2.400566    0.126388
     17          1           0        1.646257   -1.837980    0.643698
     18          1           0        2.105648   -0.508031    1.809662
     19          1           0        2.774683   -0.560522   -1.239767
     20          1           0        3.213066    0.770840   -0.072202
     21          1           0        0.109897   -0.286285   -2.004170
 ---------------------------------------------------------------------

 SCF Done:  E(RB3LYP) =  -387.259521457     A.U. after    1 cycles

 The electronic state is 1-A.
 Alpha  occ. eigenvalues --  -19.13206 -10.22063 -10.22023 -10.18536 -10.18399
 Alpha  occ. eigenvalues --  -10.18116 -10.18071 -10.17927 -10.17890  -1.03023
 Alpha  occ. eigenvalues --   -0.86296  -0.80083  -0.74460  -0.66634  -0.60986
 Alpha  occ. eigenvalues --   -0.59698  -0.56835  -0.52195  -0.50387  -0.48145
 Alpha  occ. eigenvalues --   -0.47039  -0.45349  -0.41597  -0.40358  -0.39811
 Alpha  occ. eigenvalues --   -0.35975  -0.35384  -0.34072  -0.33835  -0.32641
 Alpha  occ. eigenvalues --   -0.29019  -0.27378  -0.27276  -0.24028
 Alpha virt. eigenvalues --    0.07854   0.09541   0.10457   0.11622   0.12495
 Alpha virt. eigenvalues --    0.14042   0.14743   0.15157   0.15725   0.16515
 Alpha virt. eigenvalues --    0.18004   0.18503   0.20623   0.21255   0.21465

 Mulliken charges:
               1
     1  C   -0.086908
     2  C   -0.230947
     3  C   -0.029405
     4  C   -0.335046
     5  C    0.372331
     6  C   -0.309523
     7  C   -0.346683
     8  C    0.020973
     9  O   -0.251508
    10  H    0.095895
    11  H    0.106061
    12  H    0.099538
    13  H    0.105461
    14  H    0.071287
    15  H    0.093232
    16  H    0.100542
    17  H    0.124144
    18  H    0.107611
    19  H    0.111894
    20  H    0.108735
    21  H    0.072317
 Sum of Mulliken charges =  -0.00000

 Dipole moment (field-independent basis, Debye):
    X=             -0.2018    Y=              1.2506    Z=              0.5484  Tot=              1.3804
 Quadrupole moment (field-independent basis, Debye-Ang):
   XX=            -53.3739   YY=            -56.4233   ZZ=            -53.2769
   XY=             -0.1173   XZ=             -1.2688   YZ=             -1.3028

  Exact polarizability:  93.300  -0.102  77.224  -1.907  -1.601  74.416
 Approx polarizability: 120.213   0.873 113.999  -2.395  -1.027 114.705

                      1                      2                      3
                      A                      A                      A
 Frequencies --     67.7921               175.4115               232.4719
 Red. masses --      2.9737                 2.3998                 2.8201
 Frc consts  --      0.0081                 0.0435                 0.0898
 IR Inten    --      0.3862                 0.0632                 2.3556

                      4                      5                      6
                      A                      A                      A
 Frequencies --    257.4168               315.4619               373.4460
 Red. masses --      2.1662                 2.5320                 1.8779
 Frc consts  --      0.0846                 0.1485                 0.1543
 IR Inten    --      2.7683                 0.5830                 0.8489

                      7                      8                      9
                      A                      A                      A
 Frequencies --    471.9466               532.6777               640.2743
 Red. masses --      3.2963                 3.7483                 2.2777
 Frc consts  --      0.4326                 0.6266                 0.5501
 IR Inten    --      2.5315                 2.1091                 2.4356

                     10                     11                     12
                      A                      A                      A
 Frequencies --    705.6878               775.6248               783.3318
 Red. masses --      5.1106                 1.4604                 1.3272
 Frc consts  --      1.4995                 0.5176                 0.4798
 IR Inten    --      3.2069                 2.1848                 0.2547

                     13                     14                     15
                      A                      A                      A
 Frequencies --    842.7093               851.2558               867.8206
 Red. masses --      1.8355                 2.6623                 2.3341
 Frc consts  --      0.7680                 1.1366                 1.0357
 IR Inten    --      1.2186                 5.1090                 1.3495

                     16                     17                     18
                      A                      A                      A
 Frequencies --    895.3108               906.0369               945.0546
 Red. masses --      1.9904                 2.2149                 1.4215
 Frc consts  --      0.9400                 1.0713                 0.7480
 IR Inten    --      9.2931                 2.3887                 1.0619

                     19                     20                     21
                      A                      A                      A
 Frequencies --    956.3278               968.5714               980.0530
 Red. masses --      2.3981                 2.6327                 2.1348
 Frc consts  --      1.2922                 1.4552                 1.2081
 IR Inten    --      9.9530                19.2428                10.5785

                     22                     23                     24
                      A                      A                      A
 Frequencies --   1003.0590              1047.2213              1062.6398
 Red. masses --      2.4028                 1.4968                 1.6355
 Frc consts  --      1.4244                 0.9671                 1.0881
 IR Inten    --     11.1985                 3.3458                 8.5533

                     25                     26                     27
                      A                      A                      A
 Frequencies --   1073.0540              1102.4332              1124.3307
 Red. masses --      1.4135                 3.1008                 2.6400
 Frc consts  --      0.9590                 2.2204                 1.9663
 IR Inten    --      1.4913                66.9019                25.4266

                     28                     29                     30
                      A                      A                      A
 Frequencies --   1158.7640              1176.3388              1190.7492
 Red. masses --      1.6237                 1.3841                 1.3086
 Frc consts  --      1.2845                 1.1284                 1.0932
 IR Inten    --      9.7936                 1.4654                 0.6867

                     31                     32                     33
                      A                      A                      A
 Frequencies --   1221.6995              1233.2163              1241.7379
 Red. masses --      1.5019                 1.3520                 1.6654
 Frc consts  --      1.3207                 1.2115                 1.5130
 IR Inten    --      4.1030                 0.9924                 5.5920

                     34                     35                     36
                      A                      A                      A
 Frequencies --   1257.8561              1276.7112              1305.2467
 Red. masses --      1.5053                 1.7064                 1.4077
 Frc consts  --      1.4033                 1.6388                 1.4130
 IR Inten    --      6.4224                 1.1697                 0.6249

                     37                     38                     39
                      A                      A                      A
 Frequencies --   1329.6295              1346.0513              1378.2169
 Red. masses --      1.3481                 1.3680                 2.4617
 Frc consts  --      1.4042                 1.4604                 2.7550
 IR Inten    --      1.1811                 5.2170                 7.5158

                     40                     41                     42
                      A                      A                      A
 Frequencies --   1390.3911              1463.8987              1480.7066
 Red. masses --      1.3686                 1.0874                 1.1045
 Frc consts  --      1.5589                 1.3730                 1.4268
 IR Inten    --      5.5237                 1.0721                 3.5915

                     43                     44                     45
                      A                      A                      A
 Frequencies --   1488.0418              1500.1762              1518.5619
 Red. masses --      1.1053                 1.4484                 1.0937
 Frc consts  --      1.4420                 1.9205                 1.4860
 IR Inten    --      2.2563                 0.0641                 1.0319

                     46                     47                     48
                      A                      A                      A
 Frequencies --   2991.1268              3036.6493              3049.7614
 Red. masses --      1.0704                 1.0596                 1.0607
 Frc consts  --      5.6423                 5.7568                 5.8125
 IR Inten    --     44.2580                37.8491                23.8550

                     49                     50                     51
                      A                      A                      A
 Frequencies --   3073.1042              3084.7115              3091.9781
 Red. masses --      1.0879                 1.1038                 1.0942
 Frc consts  --      6.0536                 6.1882                 6.1634
 IR Inten    --     36.7111                 8.9543                31.7569

                     52                     53                     54
                      A                      A                      A
 Frequencies --   3098.9089              3107.2897              3116.9293
 Red. masses --      1.0986                 1.0959                 1.0520
 Frc consts  --      6.2162                 6.2342                 6.0218
 IR Inten    --     32.7580                54.7760                21.8526

                     55                     56                     57
                      A                      A                      A
 Frequencies --   3123.7913              3196.3219              3213.6808
 Red. masses --      1.0558                 1.1175                 1.1156
 Frc consts  --      6.0702                 6.7266                 6.7883
 IR Inten    --     11.7540                 2.4122                13.3435

 - Thermochemistry -
 -------------------
 Temperature   298.150 Kelvin.  Pressure   1.00000 Atm.
 Atom     1 has atomic number  6 and mass  12.00000

 Molecular mass:   124.08882 amu.
 Principal axes and moments of inertia in atomic units:
                           1         2         3
     Eigenvalues --   580.485641217.965841434.74565
           X            0.99990  -0.01073  -0.00888
           Y            0.01046   0.99950  -0.02997
           Z            0.00920   0.02987   0.99951
 This molecule is an asymmetric top.
 Rotational symmetry number  1.
 Warning -- assumption of classical behavior for rotation
           may cause significant error
 Rotational temperatures (Kelvin)      0.14921     0.07111     0.06037
 Rotational constants (GHZ):           3.10902     1.48177     1.25788
 Zero-point vibrational energy     485083.7 (Joules/Mol)
                                  115.93780 (Kcal/Mol)
 Warning -- explicit consideration of   8 degrees of freedom as
           vibrations may cause significant error
 Vibrational temperatures:     97.54   252.38   334.48   370.37   453.88
          (Kelvin)            537.31   679.03   766.40   921.21  1015.33
                             1115.95  1127.04  1212.47  1224.77  1248.60
                             1288.15  1303.58  1359.72  1375.94  1393.56
                             1410.08  1443.18  1506.72  1528.90  1543.89
                             1586.16  1617.66  1667.20  1692.49  1713.22
                             1757.75  1774.32  1786.58  1809.77  1836.90
                             1877.96  1913.04  1936.67  1982.95  2000.46
                             2106.22  2130.41  2140.96  2158.42  2184.87
                             4303.56  4369.06  4387.93  4421.51  4438.21
                             4448.67  4458.64  4470.70  4484.57  4494.44
                             4598.79  4623.77

 Zero-point correction=                           0.184759 (Hartree/Particle)
 Thermal correction to Energy=                    0.192419
 Thermal correction to Enthalpy=                  0.193363
 Thermal correction to Gibbs Free Energy=         0.152560
 Sum of electronic and zero-point Energies=           -387.074763
 Sum of electronic and thermal Energies=              -387.067103
 Sum of electronic and thermal Enthalpies=            -387.066158
 Sum of electronic and thermal Free Energies=         -387.106962

                     E (Thermal)             CV                S
                      KCal/Mol        Cal/Mol-Kelvin    Cal/Mol-Kelvin
 Total                  120.745             30.947             85.878
 Electronic               0.000              0.000              0.000
 Translational            0.889              2.981             40.361
 Rotational               0.889              2.981             28.408
 Vibrational            118.967             24.986             17.109
 Vibration     1          0.598              1.970              4.216
 Vibration     2          0.627              1.873              2.377
 Vibration     3          0.653              1.791              1.860
 Vibration     4          0.667              1.750              1.679
 Vibration     5          0.703              1.644              1.334
 Vibration     6          0.745              1.527              1.066
 Vibration     7          0.829              1.312              0.732
 Vibration     8          0.888              1.178              0.581

                           ! Non-Optimized Parameters !
 Normal termination of Gaussian 16 at Thu Aug  4 06:20:06 2022.
