 Gaussian 16, Revision A.03,
 Gaussian 16:  ES64L-G16RevA.03 25-Dec-2016

 -----------------------------
 # opt freq b3lyp/6-31g(2df,p)
 -----------------------------

 -------------------
 Title Card Required
 -------------------
 Symbolic Z-matrix:
 Charge =  0 Multiplicity = 1

 SCF Done:  E(RB3LYP) =  -385.005969327     A.U. after   13 cycles
 SCF Done:  E(RB3LYP) =  -385.028605883     A.U. after   11 cycles
 SCF Done:  E(RB3LYP) =  -385.037695624     A.U. after   11 cycles
 SCF Done:  E(RB3LYP) =  -385.042142623     A.U. after   11 cycles
 SCF Done:  E(RB3LYP) =  -385.049037409     A.U. after   12 cycles
 SCF Done:  E(RB3LYP) =  -385.051427227     A.U. after   11 cycles
 SCF Done:  E(RB3LYP) =  -385.052238522     A.U. after   10 cycles
 SCF Done:  E(RB3LYP) =  -385.052381778     A.U. after   10 cycles
 SCF Done:  E(RB3LYP) =  -385.052411341     A.U. after    9 cycles
 SCF Done:  E(RB3LYP) =  -385.052418613     A.U. after    7 cycles
 SCF Done:  E(RB3LYP) =  -385.052420508     A.U. after    7 cycles
 SCF Done:  E(RB3LYP) =  -385.052421068     A.U. after    6 cycles
 Optimization completed.
    -- Stationary point found.
 Normal termination of Gaussian 16 at Thu Aug  4 02:32:38 2022.

 ----------------------------------------------------------------------
 #N Geom=AllCheck Guess=TCheck SCRF=Check GenChk RB3LYP/6-31G(2df,p) Fr
 eq
 ----------------------------------------------------------------------

 Structure from the checkpoint file:  "C1CC2COC2CO1.chk"
 -------------------
 Title Card Required
 -------------------
 Charge =  0 Multiplicity = 1

                         Standard orientation:
 ---------------------------------------------------------------------
 Center     Atomic      Atomic             Coordinates (Angstroms)
 Number     Number       Type             X           Y           Z
 ---------------------------------------------------------------------
      1          6           0       -1.839113    0.543467   -0.282773
      2          6           0       -0.665451    1.565667   -0.059839
      3          6           0        0.493949    0.689049    0.378750
      4          6           0        2.014542    0.666966    0.119188
      5          8           0        1.929928   -0.775172   -0.104185
      6          6           0        0.527499   -0.600426   -0.419371
      7          6           0       -0.600674   -1.518567    0.030175
      8          8           0       -1.682762   -0.671620    0.454586
      9          1           0       -1.939187    0.322394   -1.356149
     10          1           0       -2.789568    0.960466    0.057305
     11          1           0       -0.931204    2.315803    0.690437
     12          1           0       -0.460443    2.091583   -0.999329
     13          1           0        0.350724    0.411293    1.427039
     14          1           0        2.691568    0.916347    0.940472
     15          1           0        2.327016    1.187823   -0.797454
     16          1           0        0.441338   -0.400055   -1.500669
     17          1           0       -0.309717   -2.111250    0.902989
     18          1           0       -0.942374   -2.197014   -0.764629
 ---------------------------------------------------------------------

 SCF Done:  E(RB3LYP) =  -385.052421068     A.U. after    1 cycles

 The electronic state is 1-A.
 Alpha  occ. eigenvalues --  -19.14068 -19.13612 -10.23455 -10.23433 -10.22957
 Alpha  occ. eigenvalues --  -10.22885 -10.19047 -10.18923  -1.04162  -1.02359
 Alpha  occ. eigenvalues --   -0.79263  -0.75271  -0.69964  -0.63386  -0.61568
 Alpha  occ. eigenvalues --   -0.55389  -0.50103  -0.49303  -0.47059  -0.44945
 Alpha  occ. eigenvalues --   -0.43587  -0.42825  -0.40499  -0.38889  -0.36912
 Alpha  occ. eigenvalues --   -0.34838  -0.33295  -0.30484  -0.29404  -0.25281
 Alpha  occ. eigenvalues --   -0.24761
 Alpha virt. eigenvalues --    0.06385   0.08865   0.10414   0.11465   0.12326
 Alpha virt. eigenvalues --    0.13286   0.14064   0.15546   0.16228   0.16448
 Alpha virt. eigenvalues --    0.18450   0.20066   0.20459   0.22189   0.24503

 Mulliken charges:
               1
     1  C   -0.059506
     2  C   -0.300025
     3  C    0.059352
     4  C   -0.157132
     5  O   -0.306138
     6  C    0.130556
     7  C   -0.119673
     8  O   -0.261069
     9  H    0.096043
    10  H    0.115239
    11  H    0.104858
    12  H    0.101510
    13  H    0.103464
    14  H    0.110838
    15  H    0.098124
    16  H    0.068770
    17  H    0.121406
    18  H    0.093383
 Sum of Mulliken charges =  -0.00000

 Dipole moment (field-independent basis, Debye):
    X=             -0.4810    Y=              1.6827    Z=             -0.6620  Tot=              1.8712
 Quadrupole moment (field-independent basis, Debye-Ang):
   XX=            -52.1591   YY=            -47.0948   ZZ=            -47.0818
   XY=              1.4509   XZ=              2.3463   YZ=              0.5122

  Exact polarizability:  73.855   1.310  68.463   2.341   0.133  59.083
 Approx polarizability:  98.404  -0.308  96.305   1.556  -0.659  92.335

                      1                      2                      3
                      A                      A                      A
 Frequencies --    136.0588               222.1672               267.7057
 Red. masses --      2.3984                 2.4889                 2.2512
 Frc consts  --      0.0262                 0.0724                 0.0951
 IR Inten    --      2.2163                 3.6089                 3.4485

                      4                      5                      6
                      A                      A                      A
 Frequencies --    310.2747               375.9977               433.8166
 Red. masses --      2.2201                 3.7741                 4.5682
 Frc consts  --      0.1259                 0.3144                 0.5065
 IR Inten    --      1.6200                 5.3297                 0.3149

                      7                      8                      9
                      A                      A                      A
 Frequencies --    527.5940               555.4499               721.1549
 Red. masses --      3.4528                 3.3017                 2.9402
 Frc consts  --      0.5663                 0.6002                 0.9009
 IR Inten    --      0.7837                 8.8309                 2.8729

                     10                     11                     12
                      A                      A                      A
 Frequencies --    806.9343               836.1638               877.7062
 Red. masses --      2.2539                 1.9255                 2.5517
 Frc consts  --      0.8647                 0.7932                 1.1582
 IR Inten    --     16.7844                 5.5055                14.1816

                     13                     14                     15
                      A                      A                      A
 Frequencies --    918.6350               931.9308               959.3996
 Red. masses --      2.5897                 2.5462                 3.4519
 Frc consts  --      1.2876                 1.3029                 1.8720
 IR Inten    --     20.1517                 7.9862                49.9196

                     16                     17                     18
                      A                      A                      A
 Frequencies --   1006.5493              1032.0174              1054.4239
 Red. masses --      1.4545                 5.1451                 2.7285
 Frc consts  --      0.8682                 3.2286                 1.7874
 IR Inten    --      3.4339                57.0429                26.7213

                     19                     20                     21
                      A                      A                      A
 Frequencies --   1098.2818              1129.5450              1152.4924
 Red. masses --      3.6710                 2.7787                 2.1719
 Frc consts  --      2.6089                 2.0888                 1.6997
 IR Inten    --     50.4015                11.9805                 0.5488

                     22                     23                     24
                      A                      A                      A
 Frequencies --   1160.9389              1189.4736              1193.7029
 Red. masses --      1.4207                 1.6889                 1.2994
 Frc consts  --      1.1282                 1.4079                 1.0909
 IR Inten    --      6.4370                 0.3158                 2.3327

                     25                     26                     27
                      A                      A                      A
 Frequencies --   1246.2442              1264.8363              1295.7440
 Red. masses --      1.3156                 1.2692                 1.2953
 Frc consts  --      1.2039                 1.1963                 1.2813
 IR Inten    --      9.6304                 3.4995                 3.5193

                     28                     29                     30
                      A                      A                      A
 Frequencies --   1308.5010              1319.6939              1340.2552
 Red. masses --      1.2874                 1.1744                 1.3937
 Frc consts  --      1.2987                 1.2051                 1.4750
 IR Inten    --      2.2889                 2.7740                 2.4269

                     31                     32                     33
                      A                      A                      A
 Frequencies --   1366.6840              1399.2645              1414.9156
 Red. masses --      1.2494                 1.2976                 1.3887
 Frc consts  --      1.3750                 1.4968                 1.6381
 IR Inten    --      0.4441                 7.7468                 6.0497

                     34                     35                     36
                      A                      A                      A
 Frequencies --   1427.0992              1490.6771              1501.3135
 Red. masses --      1.5287                 1.0888                 1.0907
 Frc consts  --      1.8344                 1.4254                 1.4485
 IR Inten    --      8.3895                 1.4268                 1.8664

                     37                     38                     39
                      A                      A                      A
 Frequencies --   1506.4533              1518.8710              2950.4214
 Red. masses --      1.0959                 1.1243                 1.0809
 Frc consts  --      1.4653                 1.5282                 5.5438
 IR Inten    --      0.4983                 1.8056                21.4968

                     40                     41                     42
                      A                      A                      A
 Frequencies --   2986.6214              2999.7459              3002.7798
 Red. masses --      1.0711                 1.0667                 1.0658
 Frc consts  --      5.6294                 5.6554                 5.6618
 IR Inten    --     46.3752               115.1295                44.7831

                     43                     44                     45
                      A                      A                      A
 Frequencies --   3040.4113              3061.9296              3085.4742
 Red. masses --      1.0606                 1.0841                 1.0987
 Frc consts  --      5.7764                 5.9883                 6.1630
 IR Inten    --     33.2915                 8.2192                 9.6730

                     46                     47                     48
                      A                      A                      A
 Frequencies --   3085.6797              3094.8341              3105.3745
 Red. masses --      1.0988                 1.1002                 1.0981
 Frc consts  --      6.1642                 6.2086                 6.2393
 IR Inten    --     17.4357                62.0892                50.0585

 - Thermochemistry -
 -------------------
 Temperature   298.150 Kelvin.  Pressure   1.00000 Atm.
 Atom     1 has atomic number  6 and mass  12.00000

 Molecular mass:   114.06808 amu.
 Principal axes and moments of inertia in atomic units:
                           1         2         3
     Eigenvalues --   480.46003 913.979241258.46031
           X            0.99982   0.01185   0.01483
           Y           -0.01185   0.99993  -0.00021
           Z           -0.01483   0.00003   0.99989
 This molecule is an asymmetric top.
 Rotational symmetry number  1.
 Warning -- assumption of classical behavior for rotation
           may cause significant error
 Rotational temperatures (Kelvin)      0.18027     0.09477     0.06883
 Rotational constants (GHZ):           3.75628     1.97460     1.43409
 Zero-point vibrational energy     410990.5 (Joules/Mol)
                                   98.22908 (Kcal/Mol)
 Warning -- explicit consideration of   8 degrees of freedom as
           vibrations may cause significant error
 Vibrational temperatures:    195.76   319.65   385.17   446.42   540.98
          (Kelvin)            624.17   759.09   799.17  1037.58  1161.00
                             1203.05  1262.82  1321.71  1340.84  1380.36
                             1448.20  1484.84  1517.08  1580.18  1625.16
                             1658.18  1670.33  1711.39  1717.47  1793.07
                             1819.82  1864.29  1882.64  1898.75  1928.33
                             1966.35  2013.23  2035.75  2053.28  2144.75
                             2160.06  2167.45  2185.32  4245.00  4297.08
                             4315.97  4320.33  4374.47  4405.43  4439.31
                             4439.60  4452.78  4467.94

 Zero-point correction=                           0.156538 (Hartree/Particle)
 Thermal correction to Energy=                    0.163224
 Thermal correction to Enthalpy=                  0.164168
 Thermal correction to Gibbs Free Energy=         0.125811
 Sum of electronic and zero-point Energies=           -384.895883
 Sum of electronic and thermal Energies=              -384.889197
 Sum of electronic and thermal Enthalpies=            -384.888253
 Sum of electronic and thermal Free Energies=         -384.926610

                     E (Thermal)             CV                S
                      KCal/Mol        Cal/Mol-Kelvin    Cal/Mol-Kelvin
 Total                  102.425             26.303             80.729
 Electronic               0.000              0.000              0.000
 Translational            0.889              2.981             40.110
 Rotational               0.889              2.981             27.804
 Vibrational            100.647             20.342             12.815
 Vibration     1          0.614              1.917              2.859
 Vibration     2          0.648              1.807              1.941
 Vibration     3          0.673              1.732              1.611
 Vibration     4          0.699              1.654              1.361
 Vibration     5          0.747              1.521              1.055
 Vibration     6          0.795              1.397              0.846
 Vibration     7          0.883              1.189              0.593
 Vibration     8          0.911              1.128              0.533

 Optimization completed.
    -- Stationary point found.
 Normal termination of Gaussian 16 at Thu Aug  4 02:56:28 2022.
