 Gaussian 16, Revision A.03,
 Gaussian 16:  ES64L-G16RevA.03 25-Dec-2016

 -----------------------------
 # opt freq b3lyp/6-31g(2df,p)
 -----------------------------

 -------------------
 Title Card Required
 -------------------
 Symbolic Z-matrix:
 Charge =  0 Multiplicity = 1

 SCF Done:  E(RB3LYP) =  -387.095956696     A.U. after   14 cycles
 SCF Done:  E(RB3LYP) =  -387.137474915     A.U. after   12 cycles
 SCF Done:  E(RB3LYP) =  -387.167053490     A.U. after   11 cycles
 SCF Done:  E(RB3LYP) =  -387.167117067     A.U. after    6 cycles
 SCF Done:  E(RB3LYP) =  -387.173635433     A.U. after   10 cycles
 SCF Done:  E(RB3LYP) =  -387.189762808     A.U. after   12 cycles
 SCF Done:  E(RB3LYP) =  -387.194848624     A.U. after   11 cycles
 SCF Done:  E(RB3LYP) =  -387.197995838     A.U. after   11 cycles
 SCF Done:  E(RB3LYP) =  -387.199432665     A.U. after   11 cycles
 SCF Done:  E(RB3LYP) =  -387.201252393     A.U. after   10 cycles
 SCF Done:  E(RB3LYP) =  -387.230954304     A.U. after   10 cycles
 SCF Done:  E(RB3LYP) =  -387.231287759     A.U. after    9 cycles
 SCF Done:  E(RB3LYP) =  -387.231423764     A.U. after    9 cycles
 SCF Done:  E(RB3LYP) =  -387.231477172     A.U. after    9 cycles
 SCF Done:  E(RB3LYP) =  -387.231552997     A.U. after    9 cycles
 SCF Done:  E(RB3LYP) =  -387.231605899     A.U. after    9 cycles
 SCF Done:  E(RB3LYP) =  -387.231620293     A.U. after    9 cycles
 SCF Done:  E(RB3LYP) =  -387.231621278     A.U. after    7 cycles
 SCF Done:  E(RB3LYP) =  -387.231621357     A.U. after    6 cycles
 Optimization completed.
    -- Stationary point found.
 Normal termination of Gaussian 16 at Thu Aug  4 17:27:24 2022.

 ----------------------------------------------------------------------
 #N Geom=AllCheck Guess=TCheck SCRF=Check GenChk RB3LYP/6-31G(2df,p) Fr
 eq
 ----------------------------------------------------------------------

 Structure from the checkpoint file:  "C1CC2CC3COC23C1.chk"
 -------------------
 Title Card Required
 -------------------
 Charge =  0 Multiplicity = 1

                         Standard orientation:
 ---------------------------------------------------------------------
 Center     Atomic      Atomic             Coordinates (Angstroms)
 Number     Number       Type             X           Y           Z
 ---------------------------------------------------------------------
      1          6           0       -2.226955   -0.358835    0.095842
      2          6           0       -1.552826    0.942425    0.689927
      3          6           0       -0.343321    1.062835   -0.229248
      4          6           0        1.146528    1.515548   -0.131071
      5          6           0        1.578841    0.109524   -0.700966
      6          6           0        1.992000   -0.807806    0.439978
      7          8           0        0.623056   -0.932111    0.878550
      8          6           0        0.103655   -0.373287   -0.375284
      9          6           0       -1.149499   -1.118223   -0.786400
     10          1           0       -3.094102   -0.095839   -0.515886
     11          1           0       -2.587894   -1.004351    0.899272
     12          1           0       -1.235546    0.763428    1.720417
     13          1           0       -2.234927    1.796062    0.681979
     14          1           0       -0.692693    1.371028   -1.225276
     15          1           0        1.518474    1.675318    0.883753
     16          1           0        1.404541    2.382537   -0.741505
     17          1           0        2.080351    0.072510   -1.666459
     18          1           0        2.642349   -0.380335    1.212459
     19          1           0        2.395258   -1.780436    0.123589
     20          1           0       -1.109003   -2.186429   -0.566118
     21          1           0       -1.361794   -0.989686   -1.851302
 ---------------------------------------------------------------------

 SCF Done:  E(RB3LYP) =  -387.231621357     A.U. after    1 cycles

 The electronic state is 1-A.
 Alpha  occ. eigenvalues --  -19.12434 -10.22328 -10.22200 -10.19388 -10.18464
 Alpha  occ. eigenvalues --  -10.17958 -10.17765 -10.17488 -10.17344  -1.03087
 Alpha  occ. eigenvalues --   -0.83954  -0.78214  -0.70036  -0.69355  -0.63149
 Alpha  occ. eigenvalues --   -0.60315  -0.56017  -0.51471  -0.49006  -0.47136
 Alpha  occ. eigenvalues --   -0.45305  -0.44200  -0.41751  -0.40836  -0.37860
 Alpha  occ. eigenvalues --   -0.37378  -0.34910  -0.33771  -0.31979  -0.31122
 Alpha  occ. eigenvalues --   -0.30177  -0.29632  -0.27831  -0.22985
 Alpha virt. eigenvalues --    0.06701   0.10455   0.10719   0.11923   0.12278
 Alpha virt. eigenvalues --    0.12877   0.13763   0.15499   0.16025   0.16869
 Alpha virt. eigenvalues --    0.17538   0.18002   0.18553   0.20800   0.21531

 Mulliken charges:
               1
     1  C   -0.194332
     2  C   -0.266804
     3  C    0.047456
     4  C   -0.302594
     5  C   -0.192122
     6  C   -0.076425
     7  O   -0.333166
     8  C    0.482419
     9  C   -0.337266
    10  H    0.100645
    11  H    0.111599
    12  H    0.115558
    13  H    0.089261
    14  H    0.074237
    15  H    0.110200
    16  H    0.097804
    17  H    0.075676
    18  H    0.097737
    19  H    0.092650
    20  H    0.105815
    21  H    0.101654
 Sum of Mulliken charges =  -0.00000

 Dipole moment (field-independent basis, Debye):
    X=              0.3701    Y=              0.6249    Z=             -1.2699  Tot=              1.4629
 Quadrupole moment (field-independent basis, Debye-Ang):
   XX=            -51.7795   YY=            -55.2584   ZZ=            -54.9763
   XY=             -0.1358   XZ=              0.0877   YZ=              0.7684

  Exact polarizability:  95.454   0.022  79.928   0.944   0.027  71.715
 Approx polarizability: 126.455   0.332 115.010   1.430  -3.019 112.932

                      1                      2                      3
                      A                      A                      A
 Frequencies --    106.7055               168.1087               233.5428
 Red. masses --      1.9739                 2.2661                 3.5634
 Frc consts  --      0.0132                 0.0377                 0.1145
 IR Inten    --      0.3958                 0.5982                 4.2064

                      4                      5                      6
                      A                      A                      A
 Frequencies --    298.4033               385.8500               424.7530
 Red. masses --      2.3709                 2.3772                 2.3007
 Frc consts  --      0.1244                 0.2085                 0.2446
 IR Inten    --      1.8153                 0.5406                 0.1367

                      7                      8                      9
                      A                      A                      A
 Frequencies --    497.8013               579.2332               623.7936
 Red. masses --      3.1688                 3.0436                 3.5709
 Frc consts  --      0.4627                 0.6017                 0.8187
 IR Inten    --      0.7438                 1.2086                 2.1165

                     10                     11                     12
                      A                      A                      A
 Frequencies --    716.1299               760.7391               788.2441
 Red. masses --      2.2463                 1.6018                 2.0454
 Frc consts  --      0.6787                 0.5462                 0.7488
 IR Inten    --      2.3780                 4.5551                 0.3227

                     13                     14                     15
                      A                      A                      A
 Frequencies --    820.7899               843.7529               869.8328
 Red. masses --      2.1606                 2.7608                 2.8831
 Frc consts  --      0.8576                 1.1580                 1.2852
 IR Inten    --      2.1767                 6.6791                15.4472

                     16                     17                     18
                      A                      A                      A
 Frequencies --    900.1915               908.8407               965.5116
 Red. masses --      3.7897                 2.1511                 1.7058
 Frc consts  --      1.8094                 1.0468                 0.9369
 IR Inten    --      2.4727                17.5864                 3.1435

                     19                     20                     21
                      A                      A                      A
 Frequencies --    986.6383               994.9666              1002.0330
 Red. masses --      2.8139                 1.7124                 1.5835
 Frc consts  --      1.6139                 0.9988                 0.9368
 IR Inten    --      3.8240                 9.3954                 8.3266

                     22                     23                     24
                      A                      A                      A
 Frequencies --   1012.1809              1044.8945              1102.1303
 Red. masses --      4.9460                 1.4305                 2.4536
 Frc consts  --      2.9855                 0.9202                 1.7560
 IR Inten    --     68.9490                 3.8841                 3.0322

                     25                     26                     27
                      A                      A                      A
 Frequencies --   1115.0326              1145.3635              1150.2208
 Red. masses --      1.5997                 1.9075                 1.8802
 Frc consts  --      1.1718                 1.4744                 1.4656
 IR Inten    --      0.3317                 4.3333                 4.2859

                     28                     29                     30
                      A                      A                      A
 Frequencies --   1170.4727              1184.3212              1208.1885
 Red. masses --      1.4053                 1.3852                 1.5001
 Frc consts  --      1.1343                 1.1448                 1.2901
 IR Inten    --      0.5131                 3.5200                 1.7954

                     31                     32                     33
                      A                      A                      A
 Frequencies --   1219.7454              1243.2544              1262.4538
 Red. masses --      1.5699                 1.3591                 1.2577
 Frc consts  --      1.3761                 1.2378                 1.1811
 IR Inten    --      3.3581                 0.5959                 1.1961

                     34                     35                     36
                      A                      A                      A
 Frequencies --   1271.3587              1293.1313              1300.1940
 Red. masses --      1.4118                 1.5451                 1.4041
 Frc consts  --      1.3445                 1.5223                 1.3986
 IR Inten    --      8.5809                 0.2067                 1.7431

                     37                     38                     39
                      A                      A                      A
 Frequencies --   1311.8973              1333.6932              1353.2143
 Red. masses --      1.6123                 1.8352                 1.4731
 Frc consts  --      1.6349                 1.9233                 1.5894
 IR Inten    --      2.7656                 6.8450                 0.7628

                     40                     41                     42
                      A                      A                      A
 Frequencies --   1389.7253              1475.7556              1484.1203
 Red. masses --      1.3843                 1.0859                 1.1003
 Frc consts  --      1.5752                 1.3934                 1.4279
 IR Inten    --      3.5343                 1.0918                 0.1252

                     43                     44                     45
                      A                      A                      A
 Frequencies --   1488.4324              1503.5061              1524.1997
 Red. masses --      1.0952                 1.1044                 1.1045
 Frc consts  --      1.4295                 1.4709                 1.5118
 IR Inten    --      4.0255                 0.9567                 1.3902

                     46                     47                     48
                      A                      A                      A
 Frequencies --   2994.2865              2998.9472              3052.4070
 Red. masses --      1.0615                 1.0817                 1.1033
 Frc consts  --      5.6074                 5.7319                 6.0563
 IR Inten    --    103.3276                12.6110                40.0672

                     49                     50                     51
                      A                      A                      A
 Frequencies --   3057.6661              3063.0247              3068.5445
 Red. masses --      1.0609                 1.0592                 1.0587
 Frc consts  --      5.8441                 5.8552                 5.8734
 IR Inten    --      6.2019                48.8289                64.2625

                     52                     53                     54
                      A                      A                      A
 Frequencies --   3070.8406              3098.8368              3113.8060
 Red. masses --      1.0613                 1.1042                 1.1060
 Frc consts  --      5.8968                 6.2473                 6.3181
 IR Inten    --     24.5828                 7.1662                 9.2878

                     55                     56                     57
                      A                      A                      A
 Frequencies --   3119.6770              3126.2462              3131.5812
 Red. masses --      1.1023                 1.1051                 1.0971
 Frc consts  --      6.3208                 6.3635                 6.3392
 IR Inten    --     10.7919                39.5437                56.7195

 - Thermochemistry -
 -------------------
 Temperature   298.150 Kelvin.  Pressure   1.00000 Atm.
 Atom     1 has atomic number  6 and mass  12.00000

 Molecular mass:   124.08882 amu.
 Principal axes and moments of inertia in atomic units:
                           1         2         3
     Eigenvalues --   600.227131089.602561320.37029
           X            0.99994   0.01086   0.00009
           Y           -0.01086   0.99948   0.03024
           Z            0.00024  -0.03024   0.99954
 This molecule is an asymmetric top.
 Rotational symmetry number  1.
 Warning -- assumption of classical behavior for rotation
           may cause significant error
 Rotational temperatures (Kelvin)      0.14430     0.07949     0.06560
 Rotational constants (GHZ):           3.00676     1.65633     1.36684
 Zero-point vibrational energy     486636.2 (Joules/Mol)
                                  116.30883 (Kcal/Mol)
 Warning -- explicit consideration of   8 degrees of freedom as
           vibrations may cause significant error
 Vibrational temperatures:    153.53   241.87   336.02   429.34   555.15
          (Kelvin)            611.12   716.22   833.39   897.50  1030.35
                             1094.53  1134.11  1180.93  1213.97  1251.50
                             1295.17  1307.62  1389.16  1419.55  1431.54
                             1441.70  1456.30  1503.37  1585.72  1604.28
                             1647.92  1654.91  1684.05  1703.97  1738.31
                             1754.94  1788.77  1816.39  1829.20  1860.53
                             1870.69  1887.53  1918.89  1946.97  1999.50
                             2123.28  2135.32  2141.52  2163.21  2192.98
                             4308.11  4314.82  4391.73  4399.30  4407.01
                             4414.95  4418.25  4458.53  4480.07  4488.52
                             4497.97  4505.65

 Zero-point correction=                           0.185350 (Hartree/Particle)
 Thermal correction to Energy=                    0.192692
 Thermal correction to Enthalpy=                  0.193636
 Thermal correction to Gibbs Free Energy=         0.153761
 Sum of electronic and zero-point Energies=           -387.046271
 Sum of electronic and thermal Energies=              -387.038930
 Sum of electronic and thermal Enthalpies=            -387.037986
 Sum of electronic and thermal Free Energies=         -387.077861

                     E (Thermal)             CV                S
                      KCal/Mol        Cal/Mol-Kelvin    Cal/Mol-Kelvin
 Total                  120.916             30.220             83.924
 Electronic               0.000              0.000              0.000
 Translational            0.889              2.981             40.361
 Rotational               0.889              2.981             28.248
 Vibrational            119.138             24.258             15.315
 Vibration     1          0.606              1.944              3.328
 Vibration     2          0.625              1.882              2.457
 Vibration     3          0.654              1.790              1.852
 Vibration     4          0.691              1.677              1.426
 Vibration     5          0.755              1.500              1.016
 Vibration     6          0.787              1.416              0.876
 Vibration     7          0.853              1.255              0.664
 Vibration     8          0.936              1.076              0.487

 Optimization completed.
    -- Stationary point found.
 Normal termination of Gaussian 16 at Thu Aug  4 18:05:51 2022.
