 Gaussian 16, Revision A.03,
 Gaussian 16:  ES64L-G16RevA.03 25-Dec-2016

 -----------------------------
 # opt freq b3lyp/6-31g(2df,p)
 -----------------------------

 -------------------
 Title Card Required
 -------------------
 Symbolic Z-matrix:
 Charge =  0 Multiplicity = 1

 SCF Done:  E(RB3LYP) =  -403.181666179     A.U. after   13 cycles
 SCF Done:  E(RB3LYP) =  -403.217656322     A.U. after   11 cycles
 SCF Done:  E(RB3LYP) =  -403.245919682     A.U. after   12 cycles
 SCF Done:  E(RB3LYP) =  -403.256916327     A.U. after   11 cycles
 SCF Done:  E(RB3LYP) =  -403.266414341     A.U. after   11 cycles
 SCF Done:  E(RB3LYP) =  -403.271637834     A.U. after   11 cycles
 SCF Done:  E(RB3LYP) =  -403.274684161     A.U. after   11 cycles
 SCF Done:  E(RB3LYP) =  -403.275882420     A.U. after   10 cycles
 SCF Done:  E(RB3LYP) =  -403.276934829     A.U. after   10 cycles
 SCF Done:  E(RB3LYP) =  -403.277268554     A.U. after   10 cycles
 SCF Done:  E(RB3LYP) =  -403.277553229     A.U. after   10 cycles
 SCF Done:  E(RB3LYP) =  -403.277671541     A.U. after   11 cycles
 SCF Done:  E(RB3LYP) =  -403.279353008     A.U. after   10 cycles
 SCF Done:  E(RB3LYP) =  -403.279908195     A.U. after    9 cycles
 SCF Done:  E(RB3LYP) =  -403.280220180     A.U. after   10 cycles
 SCF Done:  E(RB3LYP) =  -403.280243926     A.U. after    9 cycles
 SCF Done:  E(RB3LYP) =  -403.280245691     A.U. after    7 cycles
 SCF Done:  E(RB3LYP) =  -403.280246263     A.U. after    7 cycles
 SCF Done:  E(RB3LYP) =  -403.280246429     A.U. after    6 cycles
 Optimization completed.
    -- Stationary point found.
 Normal termination of Gaussian 16 at Mon Jul  4 01:03:16 2022.

 ----------------------------------------------------------------------
 #N Geom=AllCheck Guess=TCheck SCRF=Check GenChk RB3LYP/6-31G(2df,p) Fr
 eq
 ----------------------------------------------------------------------

 Structure from the checkpoint file:  "C1CNC2OC3CpC1pC23.chk"
 -------------------
 Title Card Required
 -------------------
 Charge =  0 Multiplicity = 1

                         Standard orientation:
 ---------------------------------------------------------------------
 Center     Atomic      Atomic             Coordinates (Angstroms)
 Number     Number       Type             X           Y           Z
 ---------------------------------------------------------------------
      1          6           0        1.901239    0.775627   -0.130320
      2          6           0        1.752706   -0.672499    0.384765
      3          7           0        0.713232   -1.442054   -0.301753
      4          6           0       -0.641579   -1.197785    0.053132
      5          8           0       -1.459905   -0.488045   -0.968662
      6          6           0       -1.817833    0.499311   -0.005402
      7          6           0       -0.590210    1.252957    0.429752
      8          6           0        0.573555    1.439713   -0.536326
      9          6           0       -0.943452   -0.091663    1.062557
     10          1           0        2.562412    0.788682   -1.004557
     11          1           0        2.406683    1.355913    0.651959
     12          1           0        1.574516   -0.649219    1.470456
     13          1           0        2.699797   -1.202210    0.241248
     14          1           0        0.933097   -2.424129   -0.357193
     15          1           0       -1.166543   -2.136060    0.262241
     16          1           0       -2.839825    0.858437    0.007989
     17          1           0       -0.799612    2.075009    1.110262
     18          1           0        0.739221    2.510067   -0.699571
     19          1           0        0.267988    1.012951   -1.495131
     20          1           0       -1.097669   -0.224670    2.124913
 ---------------------------------------------------------------------

 SCF Done:  E(RB3LYP) =  -403.280246429     A.U. after    1 cycles

 The electronic state is 1-A.
 Alpha  occ. eigenvalues --  -19.12162 -14.31664 -10.25571 -10.22747 -10.20604
 Alpha  occ. eigenvalues --  -10.18738 -10.18671 -10.17334 -10.16936  -1.03840
 Alpha  occ. eigenvalues --   -0.90095  -0.82881  -0.76437  -0.68999  -0.66803
 Alpha  occ. eigenvalues --   -0.58647  -0.55080  -0.53151  -0.52952  -0.50214
 Alpha  occ. eigenvalues --   -0.46392  -0.44455  -0.42902  -0.41932  -0.39646
 Alpha  occ. eigenvalues --   -0.36401  -0.35739  -0.35526  -0.32081  -0.31548
 Alpha  occ. eigenvalues --   -0.30786  -0.26817  -0.22838  -0.22315
 Alpha virt. eigenvalues --    0.07533   0.09491   0.10890   0.11045   0.12395
 Alpha virt. eigenvalues --    0.14332   0.15164   0.15755   0.16533   0.17507
 Alpha virt. eigenvalues --    0.18464   0.18968   0.19221   0.22600   0.23214

 Mulliken charges:
               1
     1  C   -0.177748
     2  C   -0.156319
     3  N   -0.285422
     4  C    0.143123
     5  O   -0.307855
     6  C    0.075772
     7  C   -0.059683
     8  C   -0.216436
     9  C   -0.184650
    10  H    0.096430
    11  H    0.087681
    12  H    0.094036
    13  H    0.095035
    14  H    0.224292
    15  H    0.080924
    16  H    0.098411
    17  H    0.084006
    18  H    0.086634
    19  H    0.132197
    20  H    0.089571
 Sum of Mulliken charges =  -0.00000

 Dipole moment (field-independent basis, Debye):
    X=              0.8252    Y=             -0.4188    Z=              2.0894  Tot=              2.2852
 Quadrupole moment (field-independent basis, Debye-Ang):
   XX=            -52.7429   YY=            -48.8898   ZZ=            -56.2011
   XY=             -2.4874   XZ=             -2.5970   YZ=             -0.8799

  Exact polarizability:  85.224  -0.979  80.644  -0.987  -0.339  65.456
 Approx polarizability: 116.524  -1.515 116.380   2.770   1.440 106.197

                      1                      2                      3
                      A                      A                      A
 Frequencies --    142.7092               237.7331               286.0636
 Red. masses --      2.3606                 2.4122                 2.6380
 Frc consts  --      0.0283                 0.0803                 0.1272
 IR Inten    --      1.0354                 1.5505                 1.9854

                      4                      5                      6
                      A                      A                      A
 Frequencies --    312.8865               388.6082               425.7036
 Red. masses --      3.2522                 3.6011                 2.9144
 Frc consts  --      0.1876                 0.3204                 0.3112
 IR Inten    --     16.6882                 5.1826                35.4578

                      7                      8                      9
                      A                      A                      A
 Frequencies --    467.9148               587.9343               609.3592
 Red. masses --      1.8602                 3.8762                 2.4130
 Frc consts  --      0.2400                 0.7894                 0.5279
 IR Inten    --     40.3606                 3.4370                 5.3846

                     10                     11                     12
                      A                      A                      A
 Frequencies --    673.3329               734.4898               762.4611
 Red. masses --      2.4235                 1.8268                 2.0521
 Frc consts  --      0.6474                 0.5806                 0.7029
 IR Inten    --     14.5418                 2.4206                 5.2327

                     13                     14                     15
                      A                      A                      A
 Frequencies --    803.7610               835.2304               857.7243
 Red. masses --      2.0246                 2.6499                 2.7318
 Frc consts  --      0.7706                 1.0892                 1.1841
 IR Inten    --      6.1229                 9.5443                40.8421

                     16                     17                     18
                      A                      A                      A
 Frequencies --    880.4760               912.7899               949.3393
 Red. masses --      2.5563                 3.3086                 2.2794
 Frc consts  --      1.1676                 1.6242                 1.2103
 IR Inten    --     19.1624                47.1969                 3.6691

                     19                     20                     21
                      A                      A                      A
 Frequencies --    985.2003              1009.3133              1025.4715
 Red. masses --      1.5560                 2.1571                 2.1874
 Frc consts  --      0.8898                 1.2947                 1.3553
 IR Inten    --      5.5355                 8.0269                 8.3999

                     22                     23                     24
                      A                      A                      A
 Frequencies --   1037.6176              1049.0007              1057.6040
 Red. masses --      3.8105                 1.8469                 1.3939
 Frc consts  --      2.4172                 1.1974                 0.9186
 IR Inten    --     40.2370                11.8949                 0.3210

                     25                     26                     27
                      A                      A                      A
 Frequencies --   1101.1969              1126.0634              1144.6098
 Red. masses --      2.4874                 2.1269                 1.4396
 Frc consts  --      1.7771                 1.5890                 1.1112
 IR Inten    --      3.2728                 2.8452                10.7242

                     28                     29                     30
                      A                      A                      A
 Frequencies --   1196.8532              1244.3376              1252.8365
 Red. masses --      2.0463                 1.4071                 1.4488
 Frc consts  --      1.7270                 1.2837                 1.3399
 IR Inten    --     40.2396                13.6387                 2.7224

                     31                     32                     33
                      A                      A                      A
 Frequencies --   1262.9094              1291.1324              1320.4326
 Red. masses --      1.3430                 1.6015                 1.4196
 Frc consts  --      1.2621                 1.5729                 1.4584
 IR Inten    --      1.0266                14.7069                13.9983

                     34                     35                     36
                      A                      A                      A
 Frequencies --   1325.1227              1370.8743              1379.1432
 Red. masses --      1.2617                 1.3155                 1.3296
 Frc consts  --      1.3053                 1.4566                 1.4900
 IR Inten    --      2.4669                31.1466                 0.2181

                     37                     38                     39
                      A                      A                      A
 Frequencies --   1390.3700              1417.4763              1439.5578
 Red. masses --      1.3427                 1.8610                 1.6128
 Frc consts  --      1.5293                 2.2030                 1.9692
 IR Inten    --     17.4970                 6.3363                13.4889

                     40                     41                     42
                      A                      A                      A
 Frequencies --   1480.4472              1489.1952              1497.6224
 Red. masses --      1.0778                 1.1366                 1.1946
 Frc consts  --      1.3917                 1.4852                 1.5786
 IR Inten    --      2.5682                 5.9781                 8.8516

                     43                     44                     45
                      A                      A                      A
 Frequencies --   1507.4710              2978.9854              3021.9847
 Red. masses --      1.1443                 1.0720                 1.0607
 Frc consts  --      1.5321                 5.6049                 5.7071
 IR Inten    --      2.4201                44.5699                35.0864

                     46                     47                     48
                      A                      A                      A
 Frequencies --   3041.8523              3046.1444              3056.7768
 Red. masses --      1.0867                 1.0653                 1.0969
 Frc consts  --      5.9242                 5.8241                 6.0388
 IR Inten    --     72.9154                25.0832                32.8505

                     49                     50                     51
                      A                      A                      A
 Frequencies --   3073.0642              3098.8236              3139.4729
 Red. masses --      1.0952                 1.0981                 1.0874
 Frc consts  --      6.0935                 6.2130                 6.3149
 IR Inten    --     48.8057                 9.7816                16.5628

                     52                     53                     54
                      A                      A                      A
 Frequencies --   3182.0169              3199.0402              3610.7577
 Red. masses --      1.0895                 1.0988                 1.0762
 Frc consts  --      6.4997                 6.6251                 8.2668
 IR Inten    --     24.4232                17.4760                 5.1620

 - Thermochemistry -
 -------------------
 Temperature   298.150 Kelvin.  Pressure   1.00000 Atm.
 Atom     1 has atomic number  6 and mass  12.00000

 Molecular mass:   125.08406 amu.
 Principal axes and moments of inertia in atomic units:
                           1         2         3
     Eigenvalues --   667.11735 962.878371274.37235
           X            0.99986  -0.00549  -0.01589
           Y            0.00508   0.99966  -0.02550
           Z            0.01603   0.02541   0.99955
 This molecule is an asymmetric top.
 Rotational symmetry number  1.
 Warning -- assumption of classical behavior for rotation
           may cause significant error
 Rotational temperatures (Kelvin)      0.12983     0.08995     0.06797
 Rotational constants (GHZ):           2.70528     1.87432     1.41618
 Zero-point vibrational energy     458883.3 (Joules/Mol)
                                  109.67574 (Kcal/Mol)
 Warning -- explicit consideration of   9 degrees of freedom as
           vibrations may cause significant error
 Vibrational temperatures:    205.33   342.04   411.58   450.17   559.12
          (Kelvin)            612.49   673.22   845.91   876.73   968.78
                             1056.77  1097.01  1156.43  1201.71  1234.07
                             1266.81  1313.30  1365.89  1417.48  1452.18
                             1475.42  1492.90  1509.28  1521.66  1584.38
                             1620.15  1646.84  1722.00  1790.32  1802.55
                             1817.04  1857.65  1899.81  1906.56  1972.38
                             1984.28  2000.43  2039.43  2071.20  2130.03
                             2142.62  2154.74  2168.91  4286.10  4347.96
                             4376.55  4382.72  4398.02  4421.45  4458.52
                             4517.00  4578.21  4602.71  5195.07

 Zero-point correction=                           0.174779 (Hartree/Particle)
 Thermal correction to Energy=                    0.181883
 Thermal correction to Enthalpy=                  0.182827
 Thermal correction to Gibbs Free Energy=         0.143692
 Sum of electronic and zero-point Energies=           -403.105467
 Sum of electronic and thermal Energies=              -403.098364
 Sum of electronic and thermal Enthalpies=            -403.097420
 Sum of electronic and thermal Free Energies=         -403.136554

                     E (Thermal)             CV                S
                      KCal/Mol        Cal/Mol-Kelvin    Cal/Mol-Kelvin
 Total                  114.133             29.775             82.366
 Electronic               0.000              0.000              0.000
 Translational            0.889              2.981             40.385
 Rotational               0.889              2.981             28.195
 Vibrational            112.356             23.814             13.786
 Vibration     1          0.616              1.910              2.767
 Vibration     2          0.656              1.783              1.820
 Vibration     3          0.684              1.700              1.497
 Vibration     4          0.701              1.649              1.347
 Vibration     5          0.757              1.495              1.005
 Vibration     6          0.788              1.414              0.873
 Vibration     7          0.825              1.321              0.743
 Vibration     8          0.945              1.058              0.471
 Vibration     9          0.968              1.012              0.434

                           ! Non-Optimized Parameters !
 Normal termination of Gaussian 16 at Mon Jul  4 01:35:50 2022.
