 Gaussian 16, Revision A.03,
 Gaussian 16:  ES64L-G16RevA.03 25-Dec-2016

 -----------------------------
 # opt freq b3lyp/6-31g(2df,p)
 -----------------------------

 -------------------
 Title Card Required
 -------------------
 Symbolic Z-matrix:
 Charge =  0 Multiplicity = 1

 SCF Done:  E(RB3LYP) =  -286.215078895     A.U. after   15 cycles
 SCF Done:  E(RB3LYP) =  -286.267114194     A.U. after   14 cycles
 SCF Done:  E(RB3LYP) =  -286.283575107     A.U. after   15 cycles
 SCF Done:  E(RB3LYP) =  -286.286351240     A.U. after   12 cycles
 SCF Done:  E(RB3LYP) =  -286.287004614     A.U. after   11 cycles
 SCF Done:  E(RB3LYP) =  -286.287274914     A.U. after   12 cycles
 SCF Done:  E(RB3LYP) =  -286.287372852     A.U. after   11 cycles
 SCF Done:  E(RB3LYP) =  -286.287420381     A.U. after   11 cycles
 SCF Done:  E(RB3LYP) =  -286.287460421     A.U. after   10 cycles
 SCF Done:  E(RB3LYP) =  -286.287466440     A.U. after    9 cycles
 SCF Done:  E(RB3LYP) =  -286.287469591     A.U. after    9 cycles
 SCF Done:  E(RB3LYP) =  -286.287469831     A.U. after    7 cycles
 Optimization completed.
    -- Stationary point found.
 Normal termination of Gaussian 16 at Mon Jul  4 00:10:33 2022.

 ----------------------------------------------------------------------
 #N Geom=AllCheck Guess=TCheck SCRF=Check GenChk RB3LYP/6-31G(2df,p) Fr
 eq
 ----------------------------------------------------------------------

 Structure from the checkpoint file:  "C1dCn2cccc21.chk"
 -------------------
 Title Card Required
 -------------------
 Charge =  0 Multiplicity = 1

                         Standard orientation:
 ---------------------------------------------------------------------
 Center     Atomic      Atomic             Coordinates (Angstroms)
 Number     Number       Type             X           Y           Z
 ---------------------------------------------------------------------
      1          6           0       -1.712449    0.661180    0.122671
      2          6           0       -1.605012   -0.671985    0.192993
      3          7           0       -0.241806   -0.689243   -0.395965
      4          6           0        1.006799   -1.097258    0.045914
      5          6           0        1.792998    0.019223    0.187699
      6          6           0        0.957042    1.183862    0.015110
      7          6           0       -0.278603    0.718650   -0.336665
      8          1           0       -2.477756    1.391354    0.321862
      9          1           0       -2.186747   -1.537554    0.468333
     10          1           0        1.283399   -2.141402    0.075916
     11          1           0        2.863161    0.021644    0.343064
     12          1           0        1.245929    2.208634    0.196247
 ---------------------------------------------------------------------

 SCF Done:  E(RB3LYP) =  -286.287469831     A.U. after    1 cycles

 The electronic state is 1-A.
 Alpha  occ. eigenvalues --  -14.35126 -10.23001 -10.20927 -10.20373 -10.20003
 Alpha  occ. eigenvalues --  -10.18297 -10.17813  -0.99293  -0.81973  -0.74548
 Alpha  occ. eigenvalues --   -0.67451  -0.60681  -0.57261  -0.51773  -0.50789
 Alpha  occ. eigenvalues --   -0.45690  -0.42899  -0.39790  -0.39115  -0.36291
 Alpha  occ. eigenvalues --   -0.35292  -0.28526  -0.24583  -0.19132
 Alpha virt. eigenvalues --   -0.03303   0.05077   0.07091   0.11600   0.13899
 Alpha virt. eigenvalues --    0.14240   0.15237   0.16541   0.17206   0.19787
 Alpha virt. eigenvalues --    0.23387   0.26204   0.31325   0.35091   0.37038

 Mulliken charges:
               1
     1  C   -0.257108
     2  C   -0.034191
     3  N   -0.051796
     4  C   -0.114159
     5  C   -0.119967
     6  C   -0.188168
     7  C    0.168623
     8  H    0.127844
     9  H    0.143122
    10  H    0.119637
    11  H    0.099870
    12  H    0.106292
 Sum of Mulliken charges =  -0.00000

 Dipole moment (field-independent basis, Debye):
    X=             -0.4615    Y=             -0.3323    Z=              0.9293  Tot=              1.0895
 Quadrupole moment (field-independent basis, Debye-Ang):
   XX=            -35.0896   YY=            -35.0500   ZZ=            -43.3867
   XY=              0.1141   XZ=             -0.6272   YZ=             -0.2064

  Exact polarizability:  83.959   1.395  69.354   1.703  -0.736  31.993
 Approx polarizability: 136.955   6.040 129.792   8.791  -1.531  54.838

                      1                      2                      3
                      A                      A                      A
 Frequencies --    216.5485               368.4668               479.0334
 Red. masses --      4.0971                 2.7652                 3.0560
 Frc consts  --      0.1132                 0.2212                 0.4132
 IR Inten    --     17.3900                 1.8781                11.4551

                      4                      5                      6
                      A                      A                      A
 Frequencies --    587.4250               678.4322               718.4002
 Red. masses --      2.9406                 3.5207                 1.4514
 Frc consts  --      0.5978                 0.9547                 0.4413
 IR Inten    --      9.4640                26.3891                26.5332

                      7                      8                      9
                      A                      A                      A
 Frequencies --    762.1763               779.6779               807.8485
 Red. masses --      1.7307                 2.8082                 2.5465
 Frc consts  --      0.5924                 1.0058                 0.9792
 IR Inten    --     47.4881                 4.2638                13.3075

                     10                     11                     12
                      A                      A                      A
 Frequencies --    823.6240               852.5163               871.4280
 Red. masses --      2.0739                 1.3074                 1.4032
 Frc consts  --      0.8289                 0.5598                 0.6278
 IR Inten    --      6.5201                 3.0784                 8.3422

                     13                     14                     15
                      A                      A                      A
 Frequencies --    929.2681               984.4946              1042.4453
 Red. masses --      2.9602                 2.5522                 2.0336
 Frc consts  --      1.5061                 1.4575                 1.3021
 IR Inten    --      6.7914                 1.6130                14.9793

                     16                     17                     18
                      A                      A                      A
 Frequencies --   1080.7978              1092.8734              1156.4266
 Red. masses --      1.5486                 1.5746                 2.4198
 Frc consts  --      1.0658                 1.1080                 1.9066
 IR Inten    --      2.5761                25.7358                28.9193

                     19                     20                     21
                      A                      A                      A
 Frequencies --   1216.4642              1250.0668              1332.4032
 Red. masses --      1.5289                 1.5390                 4.1755
 Frc consts  --      1.3330                 1.4170                 4.3675
 IR Inten    --     13.2786                 3.1601                32.1582

                     22                     23                     24
                      A                      A                      A
 Frequencies --   1399.0063              1474.8129              1575.3005
 Red. masses --      2.6214                 4.3702                 5.8040
 Frc consts  --      3.0229                 5.6005                 8.4860
 IR Inten    --     15.2458                 4.9585                11.8871

                     25                     26                     27
                      A                      A                      A
 Frequencies --   1606.8283              3220.4857              3240.4789
 Red. masses --      5.9848                 1.0872                 1.0956
 Frc consts  --      9.1041                 6.6437                 6.7783
 IR Inten    --      1.4029                 3.4401                11.0466

                     28                     29                     30
                      A                      A                      A
 Frequencies --   3248.5155              3255.4378              3296.3185
 Red. masses --      1.1032                 1.0885                 1.1168
 Frc consts  --      6.8595                 6.7969                 7.1495
 IR Inten    --      6.1657                 0.0729                 2.8310

 - Thermochemistry -
 -------------------
 Temperature   298.150 Kelvin.  Pressure   1.00000 Atm.
 Atom     1 has atomic number  6 and mass  12.00000

 Molecular mass:    91.04220 amu.
 Principal axes and moments of inertia in atomic units:
                           1         2         3
     Eigenvalues --   263.38871 561.27918 788.24525
           X            0.99999  -0.00025  -0.00328
           Y            0.00025   1.00000   0.00007
           Z            0.00328  -0.00007   0.99999
 This molecule is an asymmetric top.
 Rotational symmetry number  1.
 Rotational temperatures (Kelvin)      0.32884     0.15432     0.10988
 Rotational constants (GHZ):           6.85201     3.21541     2.28957
 Zero-point vibrational energy     241334.6 (Joules/Mol)
                                   57.68036 (Kcal/Mol)
 Warning -- explicit consideration of   4 degrees of freedom as
           vibrations may cause significant error
 Vibrational temperatures:    311.57   530.14   689.22   845.17   976.11
          (Kelvin)           1033.62  1096.60  1121.78  1162.31  1185.01
                             1226.58  1253.79  1337.01  1416.47  1499.85
                             1555.03  1572.40  1663.84  1750.22  1798.57
                             1917.03  2012.86  2121.93  2266.51  2311.87
                             4633.56  4662.33  4673.89  4683.85  4742.67

 Zero-point correction=                           0.091920 (Hartree/Particle)
 Thermal correction to Energy=                    0.096960
 Thermal correction to Enthalpy=                  0.097904
 Thermal correction to Gibbs Free Energy=         0.063515
 Sum of electronic and zero-point Energies=           -286.195550
 Sum of electronic and thermal Energies=              -286.190510
 Sum of electronic and thermal Enthalpies=            -286.189566
 Sum of electronic and thermal Free Energies=         -286.223955

                     E (Thermal)             CV                S
                      KCal/Mol        Cal/Mol-Kelvin    Cal/Mol-Kelvin
 Total                   60.843             19.899             72.379
 Electronic               0.000              0.000              0.000
 Translational            0.889              2.981             39.438
 Rotational               0.889              2.981             26.258
 Vibrational             59.066             13.938              6.683
 Vibration     1          0.645              1.816              1.988
 Vibration     2          0.741              1.537              1.086
 Vibration     3          0.835              1.297              0.713
 Vibration     4          0.945              1.059              0.472

 Optimization completed.
    -- Stationary point found.
 Normal termination of Gaussian 16 at Mon Jul  4 00:22:45 2022.
