 Gaussian 16, Revision A.03,
 Gaussian 16:  ES64L-G16RevA.03 25-Dec-2016

 -----------------------------
 # opt freq b3lyp/6-31g(2df,p)
 -----------------------------

 -------------------
 Title Card Required
 -------------------
 Symbolic Z-matrix:
 Charge =  0 Multiplicity = 1

 SCF Done:  E(RB3LYP) =  -383.359978328     A.U. after   13 cycles
 SCF Done:  E(RB3LYP) =  -383.403932505     A.U. after   11 cycles
 SCF Done:  E(RB3LYP) =  -383.443123017     A.U. after   12 cycles
 SCF Done:  E(RB3LYP) =  -383.454264773     A.U. after   11 cycles
 SCF Done:  E(RB3LYP) =  -383.457023737     A.U. after   11 cycles
 SCF Done:  E(RB3LYP) =  -383.457875763     A.U. after   11 cycles
 SCF Done:  E(RB3LYP) =  -383.458469030     A.U. after   11 cycles
 SCF Done:  E(RB3LYP) =  -383.458852540     A.U. after   10 cycles
 SCF Done:  E(RB3LYP) =  -383.458969583     A.U. after   10 cycles
 SCF Done:  E(RB3LYP) =  -383.459011804     A.U. after    9 cycles
 SCF Done:  E(RB3LYP) =  -383.459096160     A.U. after   10 cycles
 SCF Done:  E(RB3LYP) =  -383.459116488     A.U. after    9 cycles
 SCF Done:  E(RB3LYP) =  -383.459120977     A.U. after    9 cycles
 SCF Done:  E(RB3LYP) =  -383.459122000     A.U. after    8 cycles
 SCF Done:  E(RB3LYP) =  -383.459122284     A.U. after    7 cycles
 Optimization completed.
    -- Stationary point found.
 Normal termination of Gaussian 16 at Thu Aug  4 04:42:19 2022.

 ----------------------------------------------------------------------
 #N Geom=AllCheck Guess=TCheck SCRF=Check GenChk RB3LYP/6-31G(2df,p) Fr
 eq
 ----------------------------------------------------------------------

 Structure from the checkpoint file:  "C1dCC2CNCC2CN1.chk"
 -------------------
 Title Card Required
 -------------------
 Charge =  0 Multiplicity = 1

                         Standard orientation:
 ---------------------------------------------------------------------
 Center     Atomic      Atomic             Coordinates (Angstroms)
 Number     Number       Type             X           Y           Z
 ---------------------------------------------------------------------
      1          6           0        2.124379    0.798784   -0.136498
      2          6           0        0.991342    1.490288    0.062153
      3          6           0       -0.254114    0.719736    0.382811
      4          6           0       -1.626546    1.198341   -0.093101
      5          7           0       -2.459441   -0.016141    0.052940
      6          6           0       -1.587769   -1.217819   -0.010022
      7          6           0       -0.187451   -0.665256   -0.285103
      8          6           0        1.050140   -1.418931    0.184115
      9          7           0        2.245076   -0.579868    0.001649
     10          1           0        3.059457    1.294204   -0.381257
     11          1           0        0.995415    2.572389    0.016615
     12          1           0       -0.337164    0.561040    1.470670
     13          1           0       -1.558008    1.559414   -1.132391
     14          1           0       -2.029066    2.015692    0.516459
     15          1           0       -3.188191   -0.051883   -0.646256
     16          1           0       -1.921676   -1.922491   -0.780446
     17          1           0       -1.616617   -1.755030    0.950122
     18          1           0       -0.084935   -0.490431   -1.365045
     19          1           0        1.190479   -2.353155   -0.370253
     20          1           0        0.941950   -1.689955    1.244775
     21          1           0        2.989029   -0.998590   -0.531254
 ---------------------------------------------------------------------

 SCF Done:  E(RB3LYP) =  -383.459122284     A.U. after    1 cycles

 The electronic state is 1-A.
 Alpha  occ. eigenvalues --  -14.33009 -14.29914 -10.21163 -10.19924 -10.19769
 Alpha  occ. eigenvalues --  -10.19284 -10.17740 -10.17474 -10.14958  -0.92222
 Alpha  occ. eigenvalues --   -0.89647  -0.77665  -0.75392  -0.70016  -0.64995
 Alpha  occ. eigenvalues --   -0.58737  -0.57507  -0.53584  -0.51257  -0.48221
 Alpha  occ. eigenvalues --   -0.44991  -0.43638  -0.41808  -0.41550  -0.40733
 Alpha  occ. eigenvalues --   -0.37475  -0.36384  -0.35304  -0.34100  -0.32065
 Alpha  occ. eigenvalues --   -0.29906  -0.29507  -0.20772  -0.18134
 Alpha virt. eigenvalues --    0.05038   0.07853   0.09235   0.11395   0.13102
 Alpha virt. eigenvalues --    0.13483   0.14249   0.15736   0.17140   0.17693
 Alpha virt. eigenvalues --    0.18077   0.19023   0.19722   0.20744   0.22522

 Mulliken charges:
               1
     1  C    0.019978
     2  C   -0.187649
     3  C    0.015448
     4  C   -0.198466
     5  N   -0.308694
     6  C   -0.203502
     7  C    0.044780
     8  C   -0.206044
     9  N   -0.311946
    10  H    0.094504
    11  H    0.075589
    12  H    0.084373
    13  H    0.080423
    14  H    0.093581
    15  H    0.215498
    16  H    0.088002
    17  H    0.093118
    18  H    0.073721
    19  H    0.097925
    20  H    0.104981
    21  H    0.234382
 Sum of Mulliken charges =  -0.00000

 Dipole moment (field-independent basis, Debye):
    X=              0.9429    Y=             -1.1241    Z=             -1.6927  Tot=              2.2400
 Quadrupole moment (field-independent basis, Debye-Ang):
   XX=            -52.5214   YY=            -52.6651   ZZ=            -55.6227
   XY=             -1.7258   XZ=              0.6114   YZ=              0.9410

  Exact polarizability:  96.836  -3.946  90.897  -2.240  -0.432  61.916
 Approx polarizability: 133.876 -14.025 133.803  -4.920  -0.168 100.201

                      1                      2                      3
                      A                      A                      A
 Frequencies --    101.5656               146.9509               183.4499
 Red. masses --      2.3499                 1.9768                 2.3466
 Frc consts  --      0.0143                 0.0252                 0.0465
 IR Inten    --      2.7697                 9.0215                 1.3868

                      4                      5                      6
                      A                      A                      A
 Frequencies --    284.1299               337.2293               368.2100
 Red. masses --      2.0820                 3.3203                 1.9326
 Frc consts  --      0.0990                 0.2225                 0.1544
 IR Inten    --      7.6255                 3.3419               115.1698

                      7                      8                      9
                      A                      A                      A
 Frequencies --    433.5686               496.0339               530.8358
 Red. masses --      3.0370                 2.5700                 3.4067
 Frc consts  --      0.3364                 0.3726                 0.5656
 IR Inten    --      5.8515                25.2360                 5.7490

                     10                     11                     12
                      A                      A                      A
 Frequencies --    583.1355               587.5322               700.8593
 Red. masses --      2.8231                 2.9323                 1.3047
 Frc consts  --      0.5656                 0.5964                 0.3776
 IR Inten    --     29.0264                25.6381                23.3976

                     13                     14                     15
                      A                      A                      A
 Frequencies --    744.1194               799.8384               857.2562
 Red. masses --      1.7774                 2.6821                 3.4029
 Frc consts  --      0.5798                 1.0109                 1.4734
 IR Inten    --     39.7989                 3.4892                 1.4072

                     16                     17                     18
                      A                      A                      A
 Frequencies --    918.9995               934.0079               942.0256
 Red. masses --      2.0389                 1.7442                 1.5507
 Frc consts  --      1.0146                 0.8965                 0.8108
 IR Inten    --     14.6463                 3.5408                 0.1844

                     19                     20                     21
                      A                      A                      A
 Frequencies --    955.8280               985.7591              1050.1547
 Red. masses --      1.8761                 1.4073                 4.0843
 Frc consts  --      1.0099                 0.8057                 2.6539
 IR Inten    --      3.7794                 2.0308                 6.0764

                     22                     23                     24
                      A                      A                      A
 Frequencies --   1071.7472              1098.7972              1110.3641
 Red. masses --      2.2935                 2.2333                 3.3219
 Frc consts  --      1.5521                 1.5887                 2.4131
 IR Inten    --      5.4576                 4.3865                 2.9731

                     25                     26                     27
                      A                      A                      A
 Frequencies --   1120.0675              1146.3609              1156.8283
 Red. masses --      2.1524                 2.6944                 1.7345
 Frc consts  --      1.5910                 2.0862                 1.3676
 IR Inten    --     14.9764                19.6816                 1.5957

                     28                     29                     30
                      A                      A                      A
 Frequencies --   1183.1762              1213.0704              1241.1089
 Red. masses --      1.2734                 1.2000                 1.2705
 Frc consts  --      1.0503                 1.0404                 1.1531
 IR Inten    --      2.6099                 6.4492                 8.5190

                     31                     32                     33
                      A                      A                      A
 Frequencies --   1273.0581              1294.8176              1306.0727
 Red. masses --      1.4392                 1.2077                 1.3168
 Frc consts  --      1.3743                 1.1930                 1.3234
 IR Inten    --     16.4837                 5.4457                 6.7900

                     34                     35                     36
                      A                      A                      A
 Frequencies --   1320.3199              1351.4835              1355.8720
 Red. masses --      1.2169                 1.2147                 1.3471
 Frc consts  --      1.2498                 1.3072                 1.4591
 IR Inten    --      8.2406                13.7613                 1.5148

                     37                     38                     39
                      A                      A                      A
 Frequencies --   1394.7570              1405.5523              1426.5979
 Red. masses --      1.4742                 1.4925                 1.6039
 Frc consts  --      1.6897                 1.7372                 1.9232
 IR Inten    --      4.4507                 5.7242                 1.8696

                     40                     41                     42
                      A                      A                      A
 Frequencies --   1438.9724              1489.3388              1510.9118
 Red. masses --      1.3200                 1.4740                 1.1351
 Frc consts  --      1.6104                 1.9263                 1.5267
 IR Inten    --     10.0114                31.7621                 7.6761

                     43                     44                     45
                      A                      A                      A
 Frequencies --   1520.2490              1529.4429              1700.2706
 Red. masses --      1.0874                 1.0920                 5.5358
 Frc consts  --      1.4807                 1.5051                 9.4291
 IR Inten    --      1.5537                 1.8557                71.4076

                     46                     47                     48
                      A                      A                      A
 Frequencies --   2954.3558              2967.8319              2981.2210
 Red. masses --      1.0768                 1.0731                 1.0709
 Frc consts  --      5.5375                 5.5689                 5.6076
 IR Inten    --     15.1435                65.1688                27.6812

                     49                     50                     51
                      A                      A                      A
 Frequencies --   2988.2265              3012.6493              3044.3633
 Red. masses --      1.0717                 1.0776                 1.0923
 Frc consts  --      5.6382                 5.7625                 5.9648
 IR Inten    --     34.8224                84.2175                24.2591

                     52                     53                     54
                      A                      A                      A
 Frequencies --   3045.0098              3060.1374              3168.2899
 Red. masses --      1.0948                 1.0953                 1.0871
 Frc consts  --      5.9810                 6.0433                 6.4295
 IR Inten    --     65.2290                56.9974                10.7457

                     55                     56                     57
                      A                      A                      A
 Frequencies --   3201.5626              3573.2100              3634.1556
 Red. masses --      1.0949                 1.0757                 1.0768
 Frc consts  --      6.6123                 8.0918                 8.3789
 IR Inten    --     21.6617                 1.1961                17.2328

 - Thermochemistry -
 -------------------
 Temperature   298.150 Kelvin.  Pressure   1.00000 Atm.
 Atom     1 has atomic number  6 and mass  12.00000

 Molecular mass:   124.10005 amu.
 Principal axes and moments of inertia in atomic units:
                           1         2         3
     Eigenvalues --   552.516641271.162081729.12314
           X            0.99999  -0.00398   0.00112
           Y            0.00398   0.99998  -0.00392
           Z           -0.00110   0.00393   0.99999
 This molecule is an asymmetric top.
 Rotational symmetry number  1.
 Warning -- assumption of classical behavior for rotation
           may cause significant error
 Rotational temperatures (Kelvin)      0.15676     0.06814     0.05009
 Rotational constants (GHZ):           3.26640     1.41976     1.04373
 Zero-point vibrational energy     491855.0 (Joules/Mol)
                                  117.55617 (Kcal/Mol)
 Warning -- explicit consideration of  11 degrees of freedom as
           vibrations may cause significant error
 Vibrational temperatures:    146.13   211.43   263.94   408.80   485.20
          (Kelvin)            529.77   623.81   713.68   763.75   839.00
                              845.33  1008.38  1070.62  1150.79  1233.40
                             1322.24  1343.83  1355.36  1375.22  1418.29
                             1510.94  1542.01  1580.92  1597.57  1611.53
                             1649.36  1664.42  1702.33  1745.34  1785.68
                             1831.65  1862.95  1879.15  1899.65  1944.48
                             1950.80  2006.74  2022.28  2052.56  2070.36
                             2142.83  2173.87  2187.30  2200.53  2446.31
                             4250.66  4270.05  4289.31  4299.39  4334.53
                             4380.16  4381.09  4402.86  4558.46  4606.33
                             5141.05  5228.74

 Zero-point correction=                           0.187338 (Hartree/Particle)
 Thermal correction to Energy=                    0.195247
 Thermal correction to Enthalpy=                  0.196191
 Thermal correction to Gibbs Free Energy=         0.155053
 Sum of electronic and zero-point Energies=           -383.271785
 Sum of electronic and thermal Energies=              -383.263876
 Sum of electronic and thermal Enthalpies=            -383.262932
 Sum of electronic and thermal Free Energies=         -383.304069

                     E (Thermal)             CV                S
                      KCal/Mol        Cal/Mol-Kelvin    Cal/Mol-Kelvin
 Total                  122.519             31.552             86.582
 Electronic               0.000              0.000              0.000
 Translational            0.889              2.981             40.362
 Rotational               0.889              2.981             28.587
 Vibrational            120.742             25.590             17.634
 Vibration     1          0.604              1.948              3.424
 Vibration     2          0.617              1.906              2.711
 Vibration     3          0.631              1.862              2.293
 Vibration     4          0.683              1.703              1.509
 Vibration     5          0.718              1.601              1.225
 Vibration     6          0.741              1.538              1.087
 Vibration     7          0.794              1.397              0.847
 Vibration     8          0.852              1.259              0.668
 Vibration     9          0.886              1.182              0.585
 Vibration    10          0.940              1.068              0.480
 Vibration    11          0.945              1.058              0.472

                           ! Non-Optimized Parameters !
 Normal termination of Gaussian 16 at Thu Aug  4 05:16:36 2022.
