 Gaussian 16, Revision A.03,
 Gaussian 16:  ES64L-G16RevA.03 25-Dec-2016

 -----------------------------
 # opt freq b3lyp/6-31g(2df,p)
 -----------------------------

 -------------------
 Title Card Required
 -------------------
 Symbolic Z-matrix:
 Charge =  0 Multiplicity = 1

 SCF Done:  E(RB3LYP) =  -366.049490580     A.U. after   14 cycles
 SCF Done:  E(RB3LYP) =  -366.096860464     A.U. after   13 cycles
 SCF Done:  E(RB3LYP) =  -366.134218956     A.U. after   12 cycles
 SCF Done:  E(RB3LYP) =  -366.144890707     A.U. after   12 cycles
 SCF Done:  E(RB3LYP) =  -366.151341225     A.U. after   12 cycles
 SCF Done:  E(RB3LYP) =  -366.154092976     A.U. after   12 cycles
 SCF Done:  E(RB3LYP) =  -366.157037252     A.U. after   12 cycles
 SCF Done:  E(RB3LYP) =  -366.158302837     A.U. after   12 cycles
 SCF Done:  E(RB3LYP) =  -366.159555575     A.U. after   11 cycles
 SCF Done:  E(RB3LYP) =  -366.161902768     A.U. after   12 cycles
 SCF Done:  E(RB3LYP) =  -366.163983791     A.U. after   11 cycles
 SCF Done:  E(RB3LYP) =  -366.164053246     A.U. after   11 cycles
 SCF Done:  E(RB3LYP) =  -366.164283927     A.U. after   10 cycles
 SCF Done:  E(RB3LYP) =  -366.164137741     A.U. after   11 cycles
 SCF Done:  E(RB3LYP) =  -366.164303482     A.U. after   10 cycles
 SCF Done:  E(RB3LYP) =  -366.164304220     A.U. after    7 cycles
 SCF Done:  E(RB3LYP) =  -366.164304931     A.U. after    9 cycles
 SCF Done:  E(RB3LYP) =  -366.164305636     A.U. after    7 cycles
 SCF Done:  E(RB3LYP) =  -366.164305689     A.U. after    7 cycles
 Optimization completed.
    -- Stationary point found.
 Normal termination of Gaussian 16 at Thu Aug  4 10:02:59 2022.

 ----------------------------------------------------------------------
 #N Geom=AllCheck Guess=TCheck SCRF=Check GenChk RB3LYP/6-31G(2df,p) Fr
 eq
 ----------------------------------------------------------------------

 Structure from the checkpoint file:  "C1dC2CCC3NCC1C23.chk"
 -------------------
 Title Card Required
 -------------------
 Charge =  0 Multiplicity = 1

                         Standard orientation:
 ---------------------------------------------------------------------
 Center     Atomic      Atomic             Coordinates (Angstroms)
 Number     Number       Type             X           Y           Z
 ---------------------------------------------------------------------
      1          6           0        0.581480    1.614269   -0.470097
      2          6           0       -0.567606    1.159832    0.058013
      3          6           0       -1.924361    0.674867   -0.338437
      4          6           0       -1.757842   -0.874146   -0.049810
      5          6           0       -0.308098   -1.105153    0.479980
      6          7           0        0.661553   -1.369474   -0.612191
      7          6           0        1.878086   -0.593818   -0.318912
      8          6           0        1.451844    0.711124    0.403509
      9          6           0        0.102527    0.261223    1.067575
     10          1           0        0.810531    2.200666   -1.355029
     11          1           0       -2.176363    0.887619   -1.380773
     12          1           0       -2.725402    1.089059    0.283608
     13          1           0       -1.942346   -1.475122   -0.945694
     14          1           0       -2.484077   -1.198014    0.701154
     15          1           0       -0.273544   -1.930459    1.199936
     16          1           0        0.268946   -1.038122   -1.485863
     17          1           0        2.445645   -0.425800   -1.239523
     18          1           0        2.519678   -1.171763    0.360318
     19          1           0        2.245277    1.143922    1.019780
     20          1           0       -0.055397    0.415147    2.136506
 ---------------------------------------------------------------------

 SCF Done:  E(RB3LYP) =  -366.164305689     A.U. after    1 cycles

 The electronic state is 1-A.
 Alpha  occ. eigenvalues --  -14.30423 -10.20380 -10.19869 -10.19044 -10.18723
 Alpha  occ. eigenvalues --  -10.18518 -10.18162 -10.17640 -10.17335  -0.92191
 Alpha  occ. eigenvalues --   -0.83831  -0.78401  -0.70000  -0.67580  -0.63677
 Alpha  occ. eigenvalues --   -0.57024  -0.56165  -0.50461  -0.48990  -0.47390
 Alpha  occ. eigenvalues --   -0.45430  -0.44416  -0.40423  -0.39319  -0.38042
 Alpha  occ. eigenvalues --   -0.34560  -0.34449  -0.33392  -0.32830  -0.30463
 Alpha  occ. eigenvalues --   -0.28458  -0.23757  -0.21577
 Alpha virt. eigenvalues --    0.01160   0.08412   0.10743   0.11388   0.12942
 Alpha virt. eigenvalues --    0.14183   0.15889   0.16362   0.16645   0.16779
 Alpha virt. eigenvalues --    0.16972   0.17527   0.19239   0.20092   0.22102

 Mulliken charges:
               1
     1  C   -0.211599
     2  C    0.253681
     3  C   -0.316057
     4  C   -0.238413
     5  C    0.022841
     6  N   -0.302198
     7  C   -0.174339
     8  C   -0.070476
     9  C   -0.087934
    10  H    0.087498
    11  H    0.107739
    12  H    0.110528
    13  H    0.109255
    14  H    0.106085
    15  H    0.065010
    16  H    0.214660
    17  H    0.097426
    18  H    0.101277
    19  H    0.061755
    20  H    0.063260
 Sum of Mulliken charges =  -0.00000

 Dipole moment (field-independent basis, Debye):
    X=             -0.6955    Y=              0.6017    Z=             -0.1800  Tot=              0.9371
 Quadrupole moment (field-independent basis, Debye-Ang):
   XX=            -51.8513   YY=            -59.2056   ZZ=            -51.4785
   XY=              1.5438   XZ=             -0.0161   YZ=             -1.8703

  Exact polarizability:  97.577   4.090  76.579  -2.047  -5.394  74.126
 Approx polarizability: 144.693   8.944 115.089  -8.481  -9.358 119.642

                      1                      2                      3
                      A                      A                      A
 Frequencies --    136.8648               222.6857               320.9738
 Red. masses --      2.0756                 2.2033                 2.3963
 Frc consts  --      0.0229                 0.0644                 0.1455
 IR Inten    --      0.1661                 5.1691                 3.4672

                      4                      5                      6
                      A                      A                      A
 Frequencies --    343.0428               375.8174               549.2371
 Red. masses --      2.4351                 2.2230                 4.4205
 Frc consts  --      0.1688                 0.1850                 0.7857
 IR Inten    --      1.0520                 0.3725                 1.4783

                      7                      8                      9
                      A                      A                      A
 Frequencies --    625.7440               671.9827               738.1213
 Red. masses --      3.7504                 2.8950                 2.4949
 Frc consts  --      0.8652                 0.7702                 0.8009
 IR Inten    --      0.2425                32.8995                32.9654

                     10                     11                     12
                      A                      A                      A
 Frequencies --    760.0297               779.6425               807.2727
 Red. masses --      4.3407                 1.5978                 1.9996
 Frc consts  --      1.4773                 0.5722                 0.7678
 IR Inten    --     12.0186                 6.1159                11.8025

                     13                     14                     15
                      A                      A                      A
 Frequencies --    846.9155               851.5553               868.6682
 Red. masses --      2.1687                 1.9076                 2.9336
 Frc consts  --      0.9165                 0.8150                 1.3042
 IR Inten    --      0.8087                46.6123                 4.7351

                     16                     17                     18
                      A                      A                      A
 Frequencies --    886.3228               917.6570               932.9203
 Red. masses --      2.1725                 2.4500                 2.0015
 Frc consts  --      1.0055                 1.2155                 1.0264
 IR Inten    --      4.1368                 4.7420                 3.1071

                     19                     20                     21
                      A                      A                      A
 Frequencies --    966.0253               981.5298               996.8642
 Red. masses --      2.2701                 2.0839                 2.0222
 Frc consts  --      1.2481                 1.1829                 1.1840
 IR Inten    --      6.9452                 0.8403                 0.9514

                     22                     23                     24
                      A                      A                      A
 Frequencies --   1005.7001              1076.4338              1080.9667
 Red. masses --      2.1205                 1.6760                 2.2496
 Frc consts  --      1.2636                 1.1442                 1.5487
 IR Inten    --      5.5511                 5.2884                 9.7359

                     25                     26                     27
                      A                      A                      A
 Frequencies --   1133.9735              1149.2735              1178.5114
 Red. masses --      1.7176                 1.8824                 1.3775
 Frc consts  --      1.3013                 1.4649                 1.1273
 IR Inten    --      4.6940                 2.4652                 0.2269

                     28                     29                     30
                      A                      A                      A
 Frequencies --   1207.8553              1220.9249              1226.5623
 Red. masses --      1.6835                 1.3737                 1.3740
 Frc consts  --      1.4471                 1.2065                 1.2179
 IR Inten    --      0.2635                 1.5187                 1.2271

                     31                     32                     33
                      A                      A                      A
 Frequencies --   1243.1950              1252.0882              1273.0179
 Red. masses --      1.6478                 1.5146                 1.4784
 Frc consts  --      1.5004                 1.3990                 1.4116
 IR Inten    --      1.6865                 3.5021                 2.2236

                     34                     35                     36
                      A                      A                      A
 Frequencies --   1282.1909              1318.5739              1327.2998
 Red. masses --      1.3779                 1.4838                 1.3302
 Frc consts  --      1.3347                 1.5200                 1.3807
 IR Inten    --      0.2594                 1.8417                 1.1023

                     37                     38                     39
                      A                      A                      A
 Frequencies --   1338.7614              1370.6882              1466.6648
 Red. masses --      1.6338                 1.3587                 1.1236
 Frc consts  --      1.7253                 1.5040                 1.4241
 IR Inten    --      3.7288                 4.9815                 7.3694

                     40                     41                     42
                      A                      A                      A
 Frequencies --   1483.8269              1495.5190              1499.9852
 Red. masses --      1.0900                 1.0922                 1.0946
 Frc consts  --      1.4140                 1.4392                 1.4510
 IR Inten    --      1.3074                 0.3262                 1.1655

                     43                     44                     45
                      A                      A                      A
 Frequencies --   1681.5626              3010.2333              3031.0000
 Red. masses --      7.9820                 1.0672                 1.0838
 Frc consts  --     13.2981                 5.6978                 5.8664
 IR Inten    --      8.9472                49.8538                35.0570

                     46                     47                     48
                      A                      A                      A
 Frequencies --   3039.7446              3055.9994              3061.1169
 Red. masses --      1.0637                 1.0631                 1.0859
 Frc consts  --      5.7906                 5.8498                 5.9953
 IR Inten    --     38.2244                60.1414                66.8981

                     49                     50                     51
                      A                      A                      A
 Frequencies --   3079.4359              3083.9147              3093.4071
 Red. masses --      1.0972                 1.1004                 1.0885
 Frc consts  --      6.1302                 6.1661                 6.1367
 IR Inten    --     31.2799                 7.4067                33.1966

                     52                     53                     54
                      A                      A                      A
 Frequencies --   3102.7114              3168.1958              3533.8504
 Red. masses --      1.1041                 1.0973                 1.0745
 Frc consts  --      6.2624                 6.4895                 7.9059
 IR Inten    --     43.7221                24.7600                 0.0608

 - Thermochemistry -
 -------------------
 Temperature   298.150 Kelvin.  Pressure   1.00000 Atm.
 Atom     1 has atomic number  6 and mass  12.00000

 Molecular mass:   121.08915 amu.
 Principal axes and moments of inertia in atomic units:
                           1         2         3
     Eigenvalues --   634.40868 893.629521205.46363
           X            0.99977   0.02129   0.00325
           Y           -0.02121   0.99953  -0.02212
           Z           -0.00372   0.02205   0.99975
 This molecule is an asymmetric top.
 Rotational symmetry number  1.
 Warning -- assumption of classical behavior for rotation
           may cause significant error
 Rotational temperatures (Kelvin)      0.13653     0.09692     0.07185
 Rotational constants (GHZ):           2.84476     2.01956     1.49713
 Zero-point vibrational energy     461477.8 (Joules/Mol)
                                  110.29583 (Kcal/Mol)
 Warning -- explicit consideration of   6 degrees of freedom as
           vibrations may cause significant error
 Vibrational temperatures:    196.92   320.40   461.81   493.56   540.72
          (Kelvin)            790.23   900.31   966.83  1061.99  1093.51
                             1121.73  1161.49  1218.52  1225.20  1249.82
                             1275.22  1320.30  1342.26  1389.89  1412.20
                             1434.27  1446.98  1548.75  1555.27  1631.53
                             1653.55  1695.62  1737.83  1756.64  1764.75
                             1788.68  1801.48  1831.59  1844.79  1897.13
                             1909.69  1926.18  1972.11  2110.20  2134.90
                             2151.72  2158.14  2419.39  4331.05  4360.93
                             4373.51  4396.90  4404.26  4430.62  4437.07
                             4450.72  4464.11  4558.33  5084.42

 Zero-point correction=                           0.175768 (Hartree/Particle)
 Thermal correction to Energy=                    0.182477
 Thermal correction to Enthalpy=                  0.183421
 Thermal correction to Gibbs Free Energy=         0.145009
 Sum of electronic and zero-point Energies=           -365.988538
 Sum of electronic and thermal Energies=              -365.981829
 Sum of electronic and thermal Enthalpies=            -365.980884
 Sum of electronic and thermal Free Energies=         -366.019297

                     E (Thermal)             CV                S
                      KCal/Mol        Cal/Mol-Kelvin    Cal/Mol-Kelvin
 Total                  114.506             28.376             80.846
 Electronic               0.000              0.000              0.000
 Translational            0.889              2.981             40.288
 Rotational               0.889              2.981             28.015
 Vibrational            112.729             22.414             12.542
 Vibration     1          0.614              1.917              2.847
 Vibration     2          0.648              1.807              1.937
 Vibration     3          0.706              1.633              1.305
 Vibration     4          0.722              1.589              1.198
 Vibration     5          0.747              1.522              1.056
 Vibration     6          0.904              1.141              0.546

 Optimization completed.
    -- Stationary point found.
 Normal termination of Gaussian 16 at Thu Aug  4 10:39:28 2022.
