 Gaussian 16, Revision A.03,
 Gaussian 16:  ES64L-G16RevA.03 25-Dec-2016

 -----------------------------
 # opt freq b3lyp/6-31g(2df,p)
 -----------------------------

 -------------------
 Title Card Required
 -------------------
 Symbolic Z-matrix:
 Charge =  0 Multiplicity = 1

 SCF Done:  E(RB3LYP) =  -402.030437926     A.U. after   14 cycles
 SCF Done:  E(RB3LYP) =  -402.051411435     A.U. after   12 cycles
 SCF Done:  E(RB3LYP) =  -402.056612803     A.U. after   12 cycles
 SCF Done:  E(RB3LYP) =  -402.057846582     A.U. after   11 cycles
 SCF Done:  E(RB3LYP) =  -402.058311353     A.U. after   11 cycles
 SCF Done:  E(RB3LYP) =  -402.058475247     A.U. after   11 cycles
 SCF Done:  E(RB3LYP) =  -402.058702064     A.U. after   12 cycles
 SCF Done:  E(RB3LYP) =  -402.058856297     A.U. after   12 cycles
 SCF Done:  E(RB3LYP) =  -402.058880522     A.U. after   11 cycles
 SCF Done:  E(RB3LYP) =  -402.059144651     A.U. after   12 cycles
 SCF Done:  E(RB3LYP) =  -401.977789948     A.U. after   12 cycles
 SCF Done:  E(RB3LYP) =  -402.074078791     A.U. after   12 cycles
 SCF Done:  E(RB3LYP) =  -402.076216840     A.U. after   12 cycles
 SCF Done:  E(RB3LYP) =  -402.076483777     A.U. after   12 cycles
 SCF Done:  E(RB3LYP) =  -402.077502618     A.U. after   11 cycles
 SCF Done:  E(RB3LYP) =  -402.077553442     A.U. after   10 cycles
 SCF Done:  E(RB3LYP) =  -402.077560833     A.U. after    9 cycles
 SCF Done:  E(RB3LYP) =  -402.077562151     A.U. after    8 cycles
 SCF Done:  E(RB3LYP) =  -402.077562651     A.U. after    7 cycles
 Optimization completed.
    -- Stationary point found.
 Normal termination of Gaussian 16 at Sun Jul  3 21:46:39 2022.

 ----------------------------------------------------------------------
 #N Geom=AllCheck Guess=TCheck SCRF=Check GenChk RB3LYP/6-31G(2df,p) Fr
 eq
 ----------------------------------------------------------------------

 Structure from the checkpoint file:  "C1dCOCC2CCdC2N1.chk"
 -------------------
 Title Card Required
 -------------------
 Charge =  0 Multiplicity = 1

                         Standard orientation:
 ---------------------------------------------------------------------
 Center     Atomic      Atomic             Coordinates (Angstroms)
 Number     Number       Type             X           Y           Z
 ---------------------------------------------------------------------
      1          6           0       -1.627608    1.175301    0.012864
      2          6           0       -2.126389   -0.071924    0.006241
      3          8           0       -1.555995   -1.310863    0.029522
      4          6           0       -0.195791   -1.489072   -0.358546
      5          6           0        0.754273   -0.644440    0.473994
      6          6           0        2.279732   -0.638785    0.086721
      7          6           0        2.078619    0.829657   -0.259778
      8          6           0        0.772820    0.806302    0.069817
      9          7           0       -0.307064    1.644709    0.055718
     10          1           0       -2.362113    1.971710    0.020103
     11          1           0       -3.205430   -0.168833    0.044129
     12          1           0       -0.072941   -1.244401   -1.424528
     13          1           0       -0.008496   -2.558388   -0.223231
     14          1           0        0.566501   -0.826377    1.538381
     15          1           0        2.536395   -1.297282   -0.751894
     16          1           0        2.948201   -0.872311    0.923675
     17          1           0        2.744424    1.585541   -0.654077
     18          1           0       -0.163052    2.582041   -0.286629
 ---------------------------------------------------------------------

 SCF Done:  E(RB3LYP) =  -402.077562651     A.U. after    1 cycles

 The electronic state is 1-A.
 Alpha  occ. eigenvalues --  -19.15695 -14.35704 -10.23112 -10.21932 -10.21035
 Alpha  occ. eigenvalues --  -10.20693 -10.18942 -10.18427 -10.16256  -1.04740
 Alpha  occ. eigenvalues --   -0.94375  -0.84909  -0.74956  -0.71919  -0.64821
 Alpha  occ. eigenvalues --   -0.62018  -0.57081  -0.55432  -0.51659  -0.50362
 Alpha  occ. eigenvalues --   -0.47386  -0.43952  -0.43205  -0.41037  -0.38866
 Alpha  occ. eigenvalues --   -0.37415  -0.35790  -0.34228  -0.33001  -0.31453
 Alpha  occ. eigenvalues --   -0.29329  -0.24028  -0.17315
 Alpha virt. eigenvalues --    0.02938   0.07368   0.08149   0.10827   0.12825
 Alpha virt. eigenvalues --    0.13716   0.14058   0.15028   0.16017   0.17316
 Alpha virt. eigenvalues --    0.17633   0.18718   0.19971   0.20336   0.23703

 Mulliken charges:
               1
     1  C   -0.090177
     2  C    0.024019
     3  O   -0.246071
     4  C   -0.091335
     5  C   -0.080910
     6  C   -0.276169
     7  C   -0.258961
     8  C    0.417031
     9  N   -0.434245
    10  H    0.106472
    11  H    0.108773
    12  H    0.098171
    13  H    0.111718
    14  H    0.087407
    15  H    0.097294
    16  H    0.099005
    17  H    0.081750
    18  H    0.246228
 Sum of Mulliken charges =  -0.00000

 Dipole moment (field-independent basis, Debye):
    X=              0.2261    Y=              1.3398    Z=             -0.5732  Tot=              1.4747
 Quadrupole moment (field-independent basis, Debye-Ang):
   XX=            -53.1269   YY=            -47.4727   ZZ=            -54.3652
   XY=             -3.4680   XZ=              0.0622   YZ=             -1.2748

  Exact polarizability: 108.698  -0.179  85.938  -3.455  -1.851  52.106
 Approx polarizability: 162.661   8.041 137.091  -9.439  -2.859  83.364

                      1                      2                      3
                      A                      A                      A
 Frequencies --    127.1237               150.4940               261.6635
 Red. masses --      3.1548                 3.7822                 2.2164
 Frc consts  --      0.0300                 0.0505                 0.0894
 IR Inten    --      3.7622                 2.1432                 3.4241

                      4                      5                      6
                      A                      A                      A
 Frequencies --    306.3157               332.6854               397.1489
 Red. masses --      2.2651                 4.3504                 4.6860
 Frc consts  --      0.1252                 0.2837                 0.4355
 IR Inten    --      6.7989                 1.8723                11.9073

                      7                      8                      9
                      A                      A                      A
 Frequencies --    453.2608               515.4927               538.0164
 Red. masses --      2.4170                 1.8411                 4.6240
 Frc consts  --      0.2926                 0.2882                 0.7886
 IR Inten    --     34.4602                63.3571                15.5862

                     10                     11                     12
                      A                      A                      A
 Frequencies --    644.7782               692.0002               744.3020
 Red. masses --      2.7947                 3.3050                 1.3212
 Frc consts  --      0.6845                 0.9325                 0.4312
 IR Inten    --      4.8272                13.4774                31.0154

                     13                     14                     15
                      A                      A                      A
 Frequencies --    754.4876               840.7572               874.8766
 Red. masses --      1.4817                 2.8282                 3.4135
 Frc consts  --      0.4970                 1.1779                 1.5394
 IR Inten    --     30.8190                 1.8874                11.9735

                     16                     17                     18
                      A                      A                      A
 Frequencies --    886.1563               894.1887               926.8177
 Red. masses --      1.2054                 1.7679                 5.1812
 Frc consts  --      0.5577                 0.8329                 2.6222
 IR Inten    --      2.4491                 0.4960                 6.5889

                     19                     20                     21
                      A                      A                      A
 Frequencies --    953.7323              1000.4182              1038.5291
 Red. masses --      2.0560                 2.6953                 2.2857
 Frc consts  --      1.1019                 1.5894                 1.4525
 IR Inten    --      5.4895                10.7258                 6.2721

                     22                     23                     24
                      A                      A                      A
 Frequencies --   1063.9528              1090.4161              1154.4395
 Red. masses --      1.5981                 1.6838                 2.5358
 Frc consts  --      1.0659                 1.1796                 1.9911
 IR Inten    --     13.0120                29.7625                76.6716

                     25                     26                     27
                      A                      A                      A
 Frequencies --   1157.2211              1203.7997              1227.5687
 Red. masses --      1.9993                 1.4551                 1.5355
 Frc consts  --      1.5775                 1.2424                 1.3633
 IR Inten    --     17.7637                 2.8854                12.4372

                     28                     29                     30
                      A                      A                      A
 Frequencies --   1253.6648              1273.5159              1294.9446
 Red. masses --      1.6820                 1.3753                 1.4690
 Frc consts  --      1.5576                 1.3142                 1.4513
 IR Inten    --     11.1252                 4.5895                19.9108

                     31                     32                     33
                      A                      A                      A
 Frequencies --   1355.2251              1399.9724              1407.4368
 Red. masses --      1.4295                 1.2713                 2.1113
 Frc consts  --      1.5469                 1.4681                 2.4641
 IR Inten    --     22.1585                 3.2984               102.3107

                     34                     35                     36
                      A                      A                      A
 Frequencies --   1444.3687              1472.7612              1496.4972
 Red. masses --      1.4637                 1.5322                 1.1408
 Frc consts  --      1.7991                 1.9580                 1.5052
 IR Inten    --     17.7577                10.7040                10.3445

                     37                     38                     39
                      A                      A                      A
 Frequencies --   1501.6470              1718.1439              1744.4045
 Red. masses --      1.1133                 5.5413                 8.4571
 Frc consts  --      1.4791                 9.6379                15.1623
 IR Inten    --      4.0626                89.0706               236.1580

                     40                     41                     42
                      A                      A                      A
 Frequencies --   2991.0458              3019.5570              3043.4824
 Red. masses --      1.0673                 1.0561                 1.0872
 Frc consts  --      5.6258                 5.6732                 5.9332
 IR Inten    --     36.5373                80.1724                10.7225

                     43                     44                     45
                      A                      A                      A
 Frequencies --   3059.1319              3084.9241              3188.5908
 Red. masses --      1.1031                 1.0969                 1.0845
 Frc consts  --      6.0823                 6.1504                 6.4967
 IR Inten    --     52.5617                35.1376                 0.0949

                     46                     47                     48
                      A                      A                      A
 Frequencies --   3208.3308              3211.7921              3616.4215
 Red. masses --      1.0936                 1.0982                 1.0756
 Frc consts  --      6.6324                 6.6745                 8.2881
 IR Inten    --     21.8067                12.8681                20.9441

 - Thermochemistry -
 -------------------
 Temperature   298.150 Kelvin.  Pressure   1.00000 Atm.
 Atom     1 has atomic number  6 and mass  12.00000

 Molecular mass:   123.06841 amu.
 Principal axes and moments of inertia in atomic units:
                           1         2         3
     Eigenvalues --   608.627171092.158571617.39022
           X            0.99889  -0.04704  -0.00050
           Y            0.04704   0.99889  -0.00333
           Z            0.00066   0.00330   0.99999
 This molecule is an asymmetric top.
 Rotational symmetry number  1.
 Warning -- assumption of classical behavior for rotation
           may cause significant error
 Rotational temperatures (Kelvin)      0.14231     0.07931     0.05355
 Rotational constants (GHZ):           2.96527     1.65245     1.11584
 Zero-point vibrational energy     394866.4 (Joules/Mol)
                                   94.37533 (Kcal/Mol)
 Warning -- explicit consideration of   9 degrees of freedom as
           vibrations may cause significant error
 Vibrational temperatures:    182.90   216.53   376.48   440.72   478.66
          (Kelvin)            571.41   652.14   741.68   774.09   927.69
                              995.63  1070.88  1085.54  1209.66  1258.75
                             1274.98  1286.54  1333.48  1372.21  1439.38
                             1494.21  1530.79  1568.87  1660.98  1664.98
                             1732.00  1766.20  1803.74  1832.31  1863.14
                             1949.87  2014.25  2024.99  2078.12  2118.97
                             2153.13  2160.54  2472.03  2509.81  4303.45
                             4344.47  4378.89  4401.41  4438.52  4587.67
                             4616.07  4621.05  5203.22

 Zero-point correction=                           0.150397 (Hartree/Particle)
 Thermal correction to Energy=                    0.157857
 Thermal correction to Enthalpy=                  0.158801
 Thermal correction to Gibbs Free Energy=         0.118680
 Sum of electronic and zero-point Energies=           -401.927166
 Sum of electronic and thermal Energies=              -401.919706
 Sum of electronic and thermal Enthalpies=            -401.918762
 Sum of electronic and thermal Free Energies=         -401.958883

                     E (Thermal)             CV                S
                      KCal/Mol        Cal/Mol-Kelvin    Cal/Mol-Kelvin
 Total                   99.057             29.700             84.442
 Electronic               0.000              0.000              0.000
 Translational            0.889              2.981             40.337
 Rotational               0.889              2.981             28.466
 Vibrational             97.279             23.739             15.640
 Vibration     1          0.611              1.926              2.989
 Vibration     2          0.618              1.902              2.666
 Vibration     3          0.669              1.743              1.651
 Vibration     4          0.697              1.662              1.382
 Vibration     5          0.715              1.610              1.247
 Vibration     6          0.764              1.476              0.973
 Vibration     7          0.812              1.354              0.786
 Vibration     8          0.871              1.216              0.621
 Vibration     9          0.893              1.166              0.570

                           ! Non-Optimized Parameters !
 Normal termination of Gaussian 16 at Sun Jul  3 22:15:56 2022.
