 Gaussian 16, Revision A.03,
 Gaussian 16:  ES64L-G16RevA.03 25-Dec-2016

 -----------------------------
 # opt freq b3lyp/6-31g(2df,p)
 -----------------------------

 -------------------
 Title Card Required
 -------------------
 Symbolic Z-matrix:
 Charge =  0 Multiplicity = 1

 SCF Done:  E(RB3LYP) =  -412.647128956     A.U. after   40 cycles
 SCF Done:  E(RB3LYP) =  -412.734171413     A.U. after   18 cycles
 SCF Done:  E(RB3LYP) =  -412.827020179     A.U. after   18 cycles
 SCF Done:  E(RB3LYP) =  -412.861688560     A.U. after   16 cycles
 SCF Done:  E(RB3LYP) =  -412.887692978     A.U. after   16 cycles
 SCF Done:  E(RB3LYP) =  -412.901484731     A.U. after   15 cycles
 SCF Done:  E(RB3LYP) =  -412.912985605     A.U. after   16 cycles
 SCF Done:  E(RB3LYP) =  -412.919822504     A.U. after   16 cycles
 SCF Done:  E(RB3LYP) =  -412.924785126     A.U. after   16 cycles
 SCF Done:  E(RB3LYP) =  -412.927675766     A.U. after   15 cycles
 SCF Done:  E(RB3LYP) =  -412.946373995     A.U. after    9 cycles
 SCF Done:  E(RB3LYP) =  -412.947791185     A.U. after   14 cycles
 SCF Done:  E(RB3LYP) =  -412.948098541     A.U. after   14 cycles
 SCF Done:  E(RB3LYP) =  -412.948350791     A.U. after   12 cycles
 SCF Done:  E(RB3LYP) =  -412.948415575     A.U. after   11 cycles
 SCF Done:  E(RB3LYP) =  -412.948444492     A.U. after   10 cycles
 SCF Done:  E(RB3LYP) =  -412.948451984     A.U. after   10 cycles
 SCF Done:  E(RB3LYP) =  -412.948453893     A.U. after    9 cycles
 SCF Done:  E(RB3LYP) =  -412.948454447     A.U. after    8 cycles
 Optimization completed.
    -- Stationary point found.
 Normal termination of Gaussian 16 at Thu Aug  4 13:39:01 2022.

 ----------------------------------------------------------------------
 #N Geom=AllCheck Guess=TCheck SCRF=Check GenChk RB3LYP/6-31G(2df,p) Fr
 eq
 ----------------------------------------------------------------------

 Structure from the checkpoint file:  "C1dCNdNCdCNdNC1.chk"
 -------------------
 Title Card Required
 -------------------
 Charge =  0 Multiplicity = 1

                         Standard orientation:
 ---------------------------------------------------------------------
 Center     Atomic      Atomic             Coordinates (Angstroms)
 Number     Number       Type             X           Y           Z
 ---------------------------------------------------------------------
      1          6           0       -1.300340   -0.745003   -0.405307
      2          6           0       -0.160681   -1.509772    0.172055
      3          7           0        0.880080   -1.241403   -0.534407
      4          7           0        1.963862   -0.785059    0.172707
      5          6           0        1.914796    0.499318    0.291840
      6          6           0        0.887961    1.487627   -0.194778
      7          7           0       -0.404930    1.548088   -0.190693
      8          7           0       -1.057555    0.482392    0.397561
      9          6           0       -2.421606    0.034729    0.218212
     10          1           0       -1.216869   -0.612690   -1.481018
     11          1           0       -0.129560   -1.660209    1.254019
     12          1           0        2.788210    0.960848    0.752775
     13          1           0        1.343849    2.403271   -0.574069
     14          1           0       -3.064391    0.543709   -0.501238
     15          1           0       -2.912223   -0.264455    1.141225
 ---------------------------------------------------------------------

 SCF Done:  E(RB3LYP) =  -412.948454447     A.U. after    1 cycles

 The electronic state is 1-A.
 Alpha  occ. eigenvalues --  -14.38059 -14.37923 -14.37284 -14.35190 -10.24863
 Alpha  occ. eigenvalues --  -10.24757 -10.24504 -10.24072 -10.23669  -1.04076
 Alpha  occ. eigenvalues --   -1.00611  -0.91041  -0.83946  -0.73500  -0.68091
 Alpha  occ. eigenvalues --   -0.62626  -0.59485  -0.57957  -0.51656  -0.50310
 Alpha  occ. eigenvalues --   -0.47754  -0.45911  -0.41956  -0.40808  -0.39621
 Alpha  occ. eigenvalues --   -0.37272  -0.37104  -0.34772  -0.27737  -0.27240
 Alpha  occ. eigenvalues --   -0.23922  -0.22735
 Alpha virt. eigenvalues --   -0.06047  -0.03133   0.03020   0.08060   0.09676
 Alpha virt. eigenvalues --    0.11056   0.12039   0.13377   0.14478   0.16111
 Alpha virt. eigenvalues --    0.17505   0.21360   0.23021   0.24612   0.24847

 Mulliken charges:
               1
     1  C   -0.012223
     2  C   -0.052090
     3  N   -0.116499
     4  N   -0.155012
     5  C   -0.007118
     6  C    0.029817
     7  N   -0.173714
     8  N   -0.041779
     9  C   -0.241685
    10  H    0.134090
    11  H    0.117879
    12  H    0.122471
    13  H    0.123808
    14  H    0.135504
    15  H    0.136552
 Sum of Mulliken charges =  -0.00000

 Dipole moment (field-independent basis, Debye):
    X=             -1.8726    Y=              0.6408    Z=              0.5880  Tot=              2.0647
 Quadrupole moment (field-independent basis, Debye-Ang):
   XX=            -47.2683   YY=            -53.4129   ZZ=            -51.3635
   XY=              6.8643   XZ=              0.6709   YZ=             -1.4943

  Exact polarizability: 102.733   6.216  76.933   0.241  -2.090  51.997
 Approx polarizability: 172.142   3.414 141.063  -7.020   3.527  88.768

                      1                      2                      3
                      A                      A                      A
 Frequencies --    141.4251               258.7508               294.5685
 Red. masses --      4.1330                 3.1088                 5.5344
 Frc consts  --      0.0487                 0.1226                 0.2829
 IR Inten    --      0.2373                 3.9355                 7.3147

                      4                      5                      6
                      A                      A                      A
 Frequencies --    305.6451               363.1591               435.3300
 Red. masses --      5.9929                 3.6371                 3.8000
 Frc consts  --      0.3299                 0.2826                 0.4243
 IR Inten    --      3.9690                15.7317                37.1469

                      7                      8                      9
                      A                      A                      A
 Frequencies --    465.9976               504.2987               605.2088
 Red. masses --      5.9641                 4.6134                 6.0153
 Frc consts  --      0.7631                 0.6913                 1.2981
 IR Inten    --      0.8475                 3.9704                 6.2267

                     10                     11                     12
                      A                      A                      A
 Frequencies --    652.6182               698.8591               799.7883
 Red. masses --      5.6036                 4.7645                 4.6687
 Frc consts  --      1.4062                 1.3710                 1.7595
 IR Inten    --      8.2247                 6.8364                 9.6799

                     13                     14                     15
                      A                      A                      A
 Frequencies --    836.8451               860.7367               904.3484
 Red. masses --      2.0354                 1.7046                 1.7690
 Frc consts  --      0.8398                 0.7441                 0.8524
 IR Inten    --     35.8537                14.6180                 9.0800

                     16                     17                     18
                      A                      A                      A
 Frequencies --    924.4776               957.0336               966.1440
 Red. masses --      2.0147                 2.7303                 2.3286
 Frc consts  --      1.0145                 1.4734                 1.2807
 IR Inten    --     28.8438                13.2888                10.4755

                     19                     20                     21
                      A                      A                      A
 Frequencies --    984.9528              1076.0675              1089.6761
 Red. masses --      1.9978                 2.0160                 1.5418
 Frc consts  --      1.1419                 1.3754                 1.0787
 IR Inten    --     19.3825                29.4584                 1.2430

                     22                     23                     24
                      A                      A                      A
 Frequencies --   1139.0752              1154.0483              1203.4948
 Red. masses --      1.6243                 1.4894                 2.2195
 Frc consts  --      1.2417                 1.1687                 1.8940
 IR Inten    --      0.9424                 7.6858                 6.2736

                     25                     26                     27
                      A                      A                      A
 Frequencies --   1267.6330              1304.2349              1358.6099
 Red. masses --      2.0829                 1.3112                 1.2503
 Frc consts  --      1.9720                 1.3141                 1.3597
 IR Inten    --     22.7990                 4.5268                 0.7465

                     28                     29                     30
                      A                      A                      A
 Frequencies --   1390.5102              1411.4328              1492.5785
 Red. masses --      1.2503                 1.8722                 1.1859
 Frc consts  --      1.4244                 2.1974                 1.5566
 IR Inten    --      1.9915                 2.7103                 5.5788

                     31                     32                     33
                      A                      A                      A
 Frequencies --   1562.8172              1579.1883              1615.2147
 Red. masses --      9.6830                 7.7907                 6.1946
 Frc consts  --     13.9341                11.4471                 9.5220
 IR Inten    --     12.2256                11.8961                 2.3633

                     34                     35                     36
                      A                      A                      A
 Frequencies --   3083.2197              3088.7176              3118.5257
 Red. masses --      1.0532                 1.0890                 1.0854
 Frc consts  --      5.8989                 6.1212                 6.2193
 IR Inten    --     39.1405                27.1395                 7.6107

                     37                     38                     39
                      A                      A                      A
 Frequencies --   3136.9507              3152.5678              3178.8914
 Red. masses --      1.0885                 1.0884                 1.1151
 Frc consts  --      6.3110                 6.3734                 6.6391
 IR Inten    --     21.7009                 6.2506                10.5300

 - Thermochemistry -
 -------------------
 Temperature   298.150 Kelvin.  Pressure   1.00000 Atm.
 Atom     1 has atomic number  6 and mass  12.00000

 Molecular mass:   122.05925 amu.
 Principal axes and moments of inertia in atomic units:
                           1         2         3
     Eigenvalues --   565.41882 979.778921418.59944
           X            0.99868   0.05112   0.00437
           Y           -0.05103   0.99851  -0.01912
           Z           -0.00534   0.01888   0.99981
 This molecule is an asymmetric top.
 Rotational symmetry number  1.
 Warning -- assumption of classical behavior for rotation
           may cause significant error
 Rotational temperatures (Kelvin)      0.15319     0.08840     0.06106
 Rotational constants (GHZ):           3.19187     1.84199     1.27220
 Zero-point vibrational energy     295260.1 (Joules/Mol)
                                   70.56887 (Kcal/Mol)
 Warning -- explicit consideration of   9 degrees of freedom as
           vibrations may cause significant error
 Vibrational temperatures:    203.48   372.28   423.82   439.76   522.50
          (Kelvin)            626.34   670.47   725.57   870.76   938.97
                             1005.50  1150.72  1204.03  1238.41  1301.16
                             1330.12  1376.96  1390.07  1417.13  1548.22
                             1567.80  1638.88  1660.42  1731.56  1823.84
                             1876.50  1954.74  2000.63  2030.74  2147.49
                             2248.55  2272.10  2323.93  4436.07  4443.98
                             4486.86  4513.37  4535.84  4573.72

 Zero-point correction=                           0.112459 (Hartree/Particle)
 Thermal correction to Energy=                    0.119373
 Thermal correction to Enthalpy=                  0.120317
 Thermal correction to Gibbs Free Energy=         0.081462
 Sum of electronic and zero-point Energies=           -412.835996
 Sum of electronic and thermal Energies=              -412.829082
 Sum of electronic and thermal Enthalpies=            -412.828137
 Sum of electronic and thermal Free Energies=         -412.866993

                     E (Thermal)             CV                S
                      KCal/Mol        Cal/Mol-Kelvin    Cal/Mol-Kelvin
 Total                   74.908             27.412             81.778
 Electronic               0.000              0.000              0.000
 Translational            0.889              2.981             40.312
 Rotational               0.889              2.981             28.154
 Vibrational             73.130             21.451             13.311
 Vibration     1          0.615              1.912              2.785
 Vibration     2          0.668              1.748              1.670
 Vibration     3          0.689              1.684              1.448
 Vibration     4          0.696              1.663              1.386
 Vibration     5          0.737              1.548              1.109
 Vibration     6          0.796              1.393              0.841
 Vibration     7          0.823              1.325              0.749
 Vibration     8          0.860              1.240              0.647
 Vibration     9          0.964              1.021              0.441

 Optimization completed.
    -- Stationary point found.
 Normal termination of Gaussian 16 at Thu Aug  4 14:04:31 2022.
