 Gaussian 16, Revision A.03,
 Gaussian 16:  ES64L-G16RevA.03 25-Dec-2016

 -----------------------------
 # opt freq b3lyp/6-31g(2df,p)
 -----------------------------

 -------------------
 Title Card Required
 -------------------
 Symbolic Z-matrix:
 Charge =  0 Multiplicity = 1

 SCF Done:  E(RB3LYP) =  -418.107849699     A.U. after   14 cycles
 SCF Done:  E(RB3LYP) =  -418.129114934     A.U. after   13 cycles
 SCF Done:  E(RB3LYP) =  -418.137678279     A.U. after   13 cycles
 SCF Done:  E(RB3LYP) =  -418.139815427     A.U. after   13 cycles
 SCF Done:  E(RB3LYP) =  -418.140045287     A.U. after   12 cycles
 SCF Done:  E(RB3LYP) =  -418.140096825     A.U. after   11 cycles
 SCF Done:  E(RB3LYP) =  -418.140105667     A.U. after    9 cycles
 SCF Done:  E(RB3LYP) =  -418.140108575     A.U. after    8 cycles
 SCF Done:  E(RB3LYP) =  -418.140110623     A.U. after    7 cycles
 SCF Done:  E(RB3LYP) =  -418.140113012     A.U. after    9 cycles
 SCF Done:  E(RB3LYP) =  -418.140114330     A.U. after    8 cycles
 SCF Done:  E(RB3LYP) =  -418.140114763     A.U. after    7 cycles
 Optimization completed.
    -- Stationary point found.
 Normal termination of Gaussian 16 at Thu Aug  4 11:45:40 2022.

 ----------------------------------------------------------------------
 #N Geom=AllCheck Guess=TCheck SCRF=Check GenChk RB3LYP/6-31G(2df,p) Fr
 eq
 ----------------------------------------------------------------------

 Structure from the checkpoint file:  "C1dNC2CCOC2NdC1.chk"
 -------------------
 Title Card Required
 -------------------
 Charge =  0 Multiplicity = 1

                         Standard orientation:
 ---------------------------------------------------------------------
 Center     Atomic      Atomic             Coordinates (Angstroms)
 Number     Number       Type             X           Y           Z
 ---------------------------------------------------------------------
      1          6           0        2.088080    0.729962    0.139746
      2          7           0        1.049521    1.470931    0.045947
      3          6           0       -0.138384    0.704162   -0.331116
      4          6           0       -1.534727    1.197187    0.032417
      5          6           0       -2.331673   -0.140234   -0.028778
      6          8           0       -1.378214   -1.223736   -0.002178
      7          6           0       -0.136025   -0.659268    0.327915
      8          7           0        1.007347   -1.447645   -0.090226
      9          6           0        2.071711   -0.740580   -0.128662
     10          1           0        3.042975    1.197786    0.385424
     11          1           0       -0.091040    0.545089   -1.420745
     12          1           0       -1.931623    1.951979   -0.648902
     13          1           0       -1.537009    1.615420    1.043261
     14          1           0       -2.909945   -0.233052   -0.953755
     15          1           0       -3.023534   -0.238144    0.815960
     16          1           0       -0.050746   -0.535869    1.427164
     17          1           0        3.014672   -1.223696   -0.390163
 ---------------------------------------------------------------------

 SCF Done:  E(RB3LYP) =  -418.140114763     A.U. after    1 cycles

 The electronic state is 1-A.
 Alpha  occ. eigenvalues --  -19.14200 -14.34778 -14.34557 -10.25832 -10.24267
 Alpha  occ. eigenvalues --  -10.24197 -10.23567 -10.22050 -10.19505  -1.04887
 Alpha  occ. eigenvalues --   -0.96618  -0.90862  -0.78946  -0.74556  -0.65688
 Alpha  occ. eigenvalues --   -0.63612  -0.59970  -0.54990  -0.51876  -0.49707
 Alpha  occ. eigenvalues --   -0.48454  -0.45652  -0.43833  -0.41601  -0.40570
 Alpha  occ. eigenvalues --   -0.37765  -0.36571  -0.35292  -0.33056  -0.31620
 Alpha  occ. eigenvalues --   -0.28993  -0.25855  -0.23705
 Alpha virt. eigenvalues --   -0.07512   0.04344   0.09119   0.09957   0.11731
 Alpha virt. eigenvalues --    0.12167   0.13985   0.15119   0.15467   0.16482
 Alpha virt. eigenvalues --    0.18146   0.20605   0.22136   0.23387   0.25100

 Mulliken charges:
               1
     1  C   -0.014064
     2  N   -0.215102
     3  C    0.047136
     4  C   -0.296510
     5  C   -0.075893
     6  O   -0.275989
     7  C    0.178294
     8  N   -0.205023
     9  C   -0.019341
    10  H    0.118482
    11  H    0.104802
    12  H    0.114828
    13  H    0.118261
    14  H    0.114826
    15  H    0.108307
    16  H    0.076167
    17  H    0.120815
 Sum of Mulliken charges =   0.00000

 Dipole moment (field-independent basis, Debye):
    X=              0.4966    Y=              1.5368    Z=              0.1399  Tot=              1.6211
 Quadrupole moment (field-independent basis, Debye-Ang):
   XX=            -43.2954   YY=            -61.9678   ZZ=            -50.6604
   XY=             -3.2887   XZ=              0.1467   YZ=             -0.9859

  Exact polarizability:  97.596  -2.781  68.241   0.743   0.798  53.791
 Approx polarizability: 135.151  -2.417 115.762   1.851   1.172  86.321

                      1                      2                      3
                      A                      A                      A
 Frequencies --     83.9386               170.2589               235.5172
 Red. masses --      2.1955                 3.4864                 4.2438
 Frc consts  --      0.0091                 0.0595                 0.1387
 IR Inten    --      2.8477                 1.8190                 3.0031

                      4                      5                      6
                      A                      A                      A
 Frequencies --    383.2328               424.1703               465.3964
 Red. masses --      3.7763                 4.1667                 4.2291
 Frc consts  --      0.3268                 0.4417                 0.5397
 IR Inten    --      4.1607                11.8920                 3.9354

                      7                      8                      9
                      A                      A                      A
 Frequencies --    532.8478               560.0398               631.1034
 Red. masses --      4.5609                 5.2189                 5.2198
 Frc consts  --      0.7630                 0.9644                 1.2249
 IR Inten    --      2.3433                 0.7732                 0.6935

                     10                     11                     12
                      A                      A                      A
 Frequencies --    677.7884               828.0149               864.1738
 Red. masses --      3.8367                 1.4806                 1.2828
 Frc consts  --      1.0385                 0.5981                 0.5644
 IR Inten    --      4.9772                 1.5544                26.7768

                     13                     14                     15
                      A                      A                      A
 Frequencies --    881.1580               904.7424               927.4023
 Red. masses --      2.7742                 3.6735                 2.1427
 Frc consts  --      1.2691                 1.7717                 1.0858
 IR Inten    --      0.6917                14.4925                 7.4583

                     16                     17                     18
                      A                      A                      A
 Frequencies --    936.9385               994.8844              1005.6149
 Red. masses --      2.6330                 5.1585                 1.7990
 Frc consts  --      1.3618                 3.0083                 1.0719
 IR Inten    --      6.4370                18.8226                 7.5795

                     19                     20                     21
                      A                      A                      A
 Frequencies --   1055.8346              1072.4180              1147.2023
 Red. masses --      3.4820                 2.2934                 2.4937
 Frc consts  --      2.2870                 1.5540                 1.9336
 IR Inten    --     48.1186                 3.1022                36.3211

                     22                     23                     24
                      A                      A                      A
 Frequencies --   1150.0070              1155.4032              1194.2538
 Red. masses --      3.2025                 3.1260                 1.5182
 Frc consts  --      2.4954                 2.4587                 1.2758
 IR Inten    --     52.1849                59.4406                19.1092

                     25                     26                     27
                      A                      A                      A
 Frequencies --   1224.3980              1260.4891              1288.7457
 Red. masses --      1.1342                 1.3088                 1.3356
 Frc consts  --      1.0018                 1.2252                 1.3069
 IR Inten    --      1.0561                 0.4393                 3.2079

                     28                     29                     30
                      A                      A                      A
 Frequencies --   1347.7549              1362.6027              1373.0608
 Red. masses --      1.3987                 1.2105                 1.3128
 Frc consts  --      1.4969                 1.3242                 1.4582
 IR Inten    --     12.9029                 1.8392                11.0549

                     31                     32                     33
                      A                      A                      A
 Frequencies --   1382.3499              1400.8488              1405.9968
 Red. masses --      1.2971                 1.6004                 1.3822
 Frc consts  --      1.4604                 1.8503                 1.6098
 IR Inten    --      0.6061                13.7717                17.4554

                     34                     35                     36
                      A                      A                      A
 Frequencies --   1499.8751              1527.5538              1627.4842
 Red. masses --      1.0973                 1.0947                11.6469
 Frc consts  --      1.4545                 1.5050                18.1759
 IR Inten    --      3.4590                 0.1266                25.5150

                     37                     38                     39
                      A                      A                      A
 Frequencies --   1693.7607              2890.0925              2981.8620
 Red. masses --      7.9174                 1.0781                 1.0810
 Frc consts  --     13.3824                 5.3054                 5.6633
 IR Inten    --      2.5638                43.2229                15.4318

                     40                     41                     42
                      A                      A                      A
 Frequencies --   3029.9783              3063.3224              3072.3539
 Red. masses --      1.0604                 1.0740                 1.0930
 Frc consts  --      5.7359                 5.9380                 6.0788
 IR Inten    --     67.7321                15.9546                33.0034

                     43                     44                     45
                      A                      A                      A
 Frequencies --   3107.2559              3120.7893              3123.1589
 Red. masses --      1.0883                 1.1046                 1.0923
 Frc consts  --      6.1908                 6.3384                 6.2777
 IR Inten    --     13.2125                30.8356                50.2941

 - Thermochemistry -
 -------------------
 Temperature   298.150 Kelvin.  Pressure   1.00000 Atm.
 Atom     1 has atomic number  6 and mass  12.00000

 Molecular mass:   124.06366 amu.
 Principal axes and moments of inertia in atomic units:
                           1         2         3
     Eigenvalues --   520.584331110.401791554.53896
           X            0.99955  -0.03005   0.00004
           Y            0.03005   0.99955  -0.00118
           Z           -0.00000   0.00118   1.00000
 This molecule is an asymmetric top.
 Rotational symmetry number  1.
 Warning -- assumption of classical behavior for rotation
           may cause significant error
 Rotational temperatures (Kelvin)      0.16638     0.07800     0.05572
 Rotational constants (GHZ):           3.46676     1.62530     1.16095
 Zero-point vibrational energy     365256.2 (Joules/Mol)
                                   87.29834 (Kcal/Mol)
 Warning -- explicit consideration of   8 degrees of freedom as
           vibrations may cause significant error
 Vibrational temperatures:    120.77   244.96   338.86   551.39   610.29
          (Kelvin)            669.60   766.65   805.77   908.02   975.19
                             1191.33  1243.35  1267.79  1301.72  1334.33
                             1348.05  1431.42  1446.86  1519.11  1542.97
                             1650.57  1654.60  1662.37  1718.26  1761.64
                             1813.56  1854.22  1939.12  1960.48  1975.53
                             1988.89  2015.51  2022.92  2157.99  2197.81
                             2341.59  2436.94  4158.20  4290.23  4359.46
                             4407.44  4420.43  4470.65  4490.12  4493.53

 Zero-point correction=                           0.139119 (Hartree/Particle)
 Thermal correction to Energy=                    0.145998
 Thermal correction to Enthalpy=                  0.146942
 Thermal correction to Gibbs Free Energy=         0.107572
 Sum of electronic and zero-point Energies=           -418.000996
 Sum of electronic and thermal Energies=              -417.994116
 Sum of electronic and thermal Enthalpies=            -417.993172
 Sum of electronic and thermal Free Energies=         -418.032543

                     E (Thermal)             CV                S
                      KCal/Mol        Cal/Mol-Kelvin    Cal/Mol-Kelvin
 Total                   91.615             26.793             82.862
 Electronic               0.000              0.000              0.000
 Translational            0.889              2.981             40.361
 Rotational               0.889              2.981             28.287
 Vibrational             89.838             20.832             14.214
 Vibration     1          0.601              1.960              3.797
 Vibration     2          0.625              1.879              2.433
 Vibration     3          0.655              1.786              1.836
 Vibration     4          0.752              1.506              1.026
 Vibration     5          0.786              1.418              0.878
 Vibration     6          0.823              1.327              0.751
 Vibration     7          0.888              1.177              0.581
 Vibration     8          0.916              1.118              0.524

 Optimization completed.
    -- Stationary point found.
 Normal termination of Gaussian 16 at Thu Aug  4 12:11:03 2022.
