 Gaussian 16, Revision A.03,
 Gaussian 16:  ES64L-G16RevA.03 25-Dec-2016

 -----------------------------
 # opt freq b3lyp/6-31g(2df,p)
 -----------------------------

 -------------------
 Title Card Required
 -------------------
 Symbolic Z-matrix:
 Charge =  0 Multiplicity = 1

 SCF Done:  E(RB3LYP) =  -389.760132185     A.U. after   15 cycles
 SCF Done:  E(RB3LYP) =  -389.767229967     A.U. after   14 cycles
 SCF Done:  E(RB3LYP) =  -389.768074004     A.U. after   13 cycles
 SCF Done:  E(RB3LYP) =  -389.768128006     A.U. after   11 cycles
 SCF Done:  E(RB3LYP) =  -389.768156566     A.U. after   10 cycles
 SCF Done:  E(RB3LYP) =  -389.768163382     A.U. after    9 cycles
 SCF Done:  E(RB3LYP) =  -389.768164094     A.U. after    9 cycles
 Optimization completed.
    -- Stationary point found.
 Normal termination of Gaussian 16 at Sun Jul  3 16:24:24 2022.

 ----------------------------------------------------------------------
 #N Geom=AllCheck Guess=TCheck SCRF=Check GenChk RB3LYP/6-31G(2df,p) Fr
 eq
 ----------------------------------------------------------------------

 Structure from the checkpoint file:  "C1dNCdNNdNCdN1.chk"
 -------------------
 Title Card Required
 -------------------
 Charge =  0 Multiplicity = 1

                         Standard orientation:
 ---------------------------------------------------------------------
 Center     Atomic      Atomic             Coordinates (Angstroms)
 Number     Number       Type             X           Y           Z
 ---------------------------------------------------------------------
      1          6           0        1.450761    0.419172   -0.419362
      2          7           0        1.315701   -0.852408   -0.404185
      3          6           0        0.375110   -1.418223    0.449680
      4          7           0       -0.891873   -1.243651    0.421545
      5          7           0       -1.421465   -0.446695   -0.584738
      6          7           0       -1.299910    0.785452   -0.495443
      7          6           0       -0.444227    1.374233    0.482702
      8          7           0        0.826608    1.324532    0.440829
      9          1           0        2.188932    0.859148   -1.088777
     10          1           0        0.762904   -2.123090    1.182629
     11          1           0       -0.945136    2.042235    1.181958
 ---------------------------------------------------------------------

 SCF Done:  E(RB3LYP) =  -389.768164094     A.U. after    1 cycles

 The electronic state is 1-A.
 Alpha  occ. eigenvalues --  -14.44256 -14.40494 -14.37865 -14.37008 -14.36044
 Alpha  occ. eigenvalues --  -10.29860 -10.29493 -10.28455  -1.10140  -0.99775
 Alpha  occ. eigenvalues --   -0.96609  -0.88987  -0.77727  -0.67983  -0.67709
 Alpha  occ. eigenvalues --   -0.58501  -0.55700  -0.50967  -0.49995  -0.46024
 Alpha  occ. eigenvalues --   -0.43526  -0.39048  -0.37237  -0.35994  -0.32270
 Alpha  occ. eigenvalues --   -0.29980  -0.27734  -0.26038
 Alpha virt. eigenvalues --   -0.09101  -0.04845  -0.02875   0.01459   0.11218
 Alpha virt. eigenvalues --    0.11908   0.13456   0.15169   0.21965   0.24527
 Alpha virt. eigenvalues --    0.25369   0.30512   0.32769   0.35376   0.39468

 Mulliken charges:
               1
     1  C    0.075689
     2  N   -0.208263
     3  C    0.094649
     4  N   -0.174702
     5  N   -0.034633
     6  N   -0.100430
     7  C    0.071148
     8  N   -0.181964
     9  H    0.150349
    10  H    0.150726
    11  H    0.157431
 Sum of Mulliken charges =  -0.00000

 Dipole moment (field-independent basis, Debye):
    X=              1.3321    Y=              1.1028    Z=              1.2849  Tot=              2.1545
 Quadrupole moment (field-independent basis, Debye-Ang):
   XX=            -46.8258   YY=            -43.5418   ZZ=            -44.5432
   XY=             -2.2594   XZ=             -2.8818   YZ=             -1.4061

  Exact polarizability:  65.021  -2.050  66.986  -1.846  -1.538  42.289
 Approx polarizability: 122.730  -1.794 125.079  -0.447  -2.442  72.138

                      1                      2                      3
                      A                      A                      A
 Frequencies --    228.8525               258.3825               304.7883
 Red. masses --      9.7475                 8.0347                 4.3638
 Frc consts  --      0.3008                 0.3160                 0.2388
 IR Inten    --      0.7151                 0.8071                 2.9306

                      4                      5                      6
                      A                      A                      A
 Frequencies --    323.7622               475.3217               482.4038
 Red. masses --      4.1626                 4.0524                 3.5518
 Frc consts  --      0.2571                 0.5394                 0.4870
 IR Inten    --      2.3516                 7.2486                 6.0351

                      7                      8                      9
                      A                      A                      A
 Frequencies --    703.2264               715.9774               763.4518
 Red. masses --      7.2277                 6.8046                 4.3679
 Frc consts  --      2.1059                 2.0552                 1.5000
 IR Inten    --     56.0523                51.7102                33.2947

                     10                     11                     12
                      A                      A                      A
 Frequencies --    818.5111               896.6034               940.6535
 Red. masses --      8.5332                 6.2917                 2.8947
 Frc consts  --      3.3683                 2.9800                 1.5091
 IR Inten    --     16.6012                12.3241                42.6920

                     13                     14                     15
                      A                      A                      A
 Frequencies --    954.3941              1000.0904              1028.9463
 Red. masses --      1.7232                 1.6450                 2.4030
 Frc consts  --      0.9248                 0.9694                 1.4990
 IR Inten    --      4.7360                 7.2948                14.4320

                     16                     17                     18
                      A                      A                      A
 Frequencies --   1049.0890              1073.4340              1359.0476
 Red. masses --      5.6873                 3.2235                 1.1888
 Frc consts  --      3.6879                 2.1884                 1.2936
 IR Inten    --     13.9240                72.9354                 1.8509

                     19                     20                     21
                      A                      A                      A
 Frequencies --   1362.8613              1399.5479              1600.5132
 Red. masses --      1.2062                 1.3316                11.7482
 Frc consts  --      1.3201                 1.5367                17.7313
 IR Inten    --     25.4057                20.7670                30.7360

                     22                     23                     24
                      A                      A                      A
 Frequencies --   1642.7297              1664.1395              1689.8270
 Red. masses --     11.3211                 8.5468                 9.1139
 Frc consts  --     18.0000                13.9455                15.3334
 IR Inten    --     53.3748               135.7284               140.1326

                     25                     26                     27
                      A                      A                      A
 Frequencies --   3150.1391              3153.8301              3159.2777
 Red. masses --      1.0886                 1.0913                 1.0901
 Frc consts  --      6.3645                 6.3952                 6.4102
 IR Inten    --     15.2291                 7.8007                 6.4976

 - Thermochemistry -
 -------------------
 Temperature   298.150 Kelvin.  Pressure   1.00000 Atm.
 Atom     1 has atomic number  6 and mass  12.00000

 Molecular mass:   109.03885 amu.
 Principal axes and moments of inertia in atomic units:
                           1         2         3
     Eigenvalues --   545.66494 571.19703 924.15905
           X            0.97034  -0.24054  -0.02408
           Y            0.24037   0.97063  -0.00984
           Z            0.02574   0.00376   0.99966
 This molecule is an asymmetric top.
 Rotational symmetry number  1.
 Warning -- assumption of classical behavior for rotation
           may cause significant error
 Rotational temperatures (Kelvin)      0.15873     0.15164     0.09372
 Rotational constants (GHZ):           3.30742     3.15958     1.95285
 Zero-point vibrational energy     192597.6 (Joules/Mol)
                                   46.03193 (Kcal/Mol)
 Warning -- explicit consideration of   6 degrees of freedom as
           vibrations may cause significant error
 Vibrational temperatures:    329.27   371.75   438.52   465.82   683.88
          (Kelvin)            694.07  1011.79  1030.13  1098.44  1177.65
                             1290.01  1353.39  1373.16  1438.91  1480.42
                             1509.41  1544.43  1955.37  1960.85  2013.64
                             2302.78  2363.52  2394.33  2431.28  4532.35
                             4537.66  4545.50

 Zero-point correction=                           0.073357 (Hartree/Particle)
 Thermal correction to Energy=                    0.079156
 Thermal correction to Enthalpy=                  0.080100
 Thermal correction to Gibbs Free Energy=         0.043703
 Sum of electronic and zero-point Energies=           -389.694808
 Sum of electronic and thermal Energies=              -389.689008
 Sum of electronic and thermal Enthalpies=            -389.688064
 Sum of electronic and thermal Free Energies=         -389.724461

                     E (Thermal)             CV                S
                      KCal/Mol        Cal/Mol-Kelvin    Cal/Mol-Kelvin
 Total                   49.671             21.609             76.604
 Electronic               0.000              0.000              0.000
 Translational            0.889              2.981             39.976
 Rotational               0.889              2.981             27.157
 Vibrational             47.893             15.648              9.471
 Vibration     1          0.652              1.797              1.888
 Vibration     2          0.667              1.749              1.673
 Vibration     3          0.696              1.665              1.390
 Vibration     4          0.708              1.628              1.291
 Vibration     5          0.832              1.305              0.723
 Vibration     6          0.839              1.289              0.704

 Optimization completed.
    -- Stationary point found.
 Normal termination of Gaussian 16 at Sun Jul  3 16:38:19 2022.
