 Gaussian 16, Revision A.03,
 Gaussian 16:  ES64L-G16RevA.03 25-Dec-2016

 -----------------------------
 # opt freq b3lyp/6-31g(2df,p)
 -----------------------------

 -------------------
 Title Card Required
 -------------------
 Symbolic Z-matrix:
 Charge =  0 Multiplicity = 1

 SCF Done:  E(RB3LYP) =  -398.094008575     A.U. after   14 cycles
 SCF Done:  E(RB3LYP) =  -398.127523969     A.U. after   13 cycles
 SCF Done:  E(RB3LYP) =  -398.153698925     A.U. after   13 cycles
 SCF Done:  E(RB3LYP) =  -398.164596764     A.U. after   13 cycles
 SCF Done:  E(RB3LYP) =  -398.173066976     A.U. after   13 cycles
 SCF Done:  E(RB3LYP) =  -398.175741759     A.U. after   12 cycles
 SCF Done:  E(RB3LYP) =  -398.176779319     A.U. after   12 cycles
 SCF Done:  E(RB3LYP) =  -398.176968739     A.U. after   11 cycles
 SCF Done:  E(RB3LYP) =  -398.177036477     A.U. after   10 cycles
 SCF Done:  E(RB3LYP) =  -398.177066075     A.U. after    9 cycles
 SCF Done:  E(RB3LYP) =  -398.177079484     A.U. after    9 cycles
 SCF Done:  E(RB3LYP) =  -398.177086286     A.U. after    8 cycles
 SCF Done:  E(RB3LYP) =  -398.177092960     A.U. after    8 cycles
 SCF Done:  E(RB3LYP) =  -398.177094126     A.U. after    7 cycles
 SCF Done:  E(RB3LYP) =  -398.177094606     A.U. after    7 cycles
 Optimization completed.
    -- Stationary point found.
 Normal termination of Gaussian 16 at Thu Aug  4 04:24:25 2022.

 ----------------------------------------------------------------------
 #N Geom=AllCheck Guess=TCheck SCRF=Check GenChk RB3LYP/6-31G(2df,p) Fr
 eq
 ----------------------------------------------------------------------

 Structure from the checkpoint file:  "C1dNC23CN2CNCC13.chk"
 -------------------
 Title Card Required
 -------------------
 Charge =  0 Multiplicity = 1

                         Standard orientation:
 ---------------------------------------------------------------------
 Center     Atomic      Atomic             Coordinates (Angstroms)
 Number     Number       Type             X           Y           Z
 ---------------------------------------------------------------------
      1          6           0       -0.648407    1.714933   -0.548648
      2          7           0        0.463369    1.272985   -1.021416
      3          6           0        0.718494    0.550183    0.262616
      4          6           0        2.087418   -0.028768    0.469963
      5          7           0        0.909432   -0.851165    0.334837
      6          6           0        0.166723   -1.613940   -0.635151
      7          7           0       -1.226477   -1.114050   -0.458372
      8          6           0       -1.511946   -0.315718    0.752355
      9          6           0       -0.671602    0.995669    0.781082
     10          1           0       -1.357103    2.361878   -1.062231
     11          1           0        2.573920   -0.089955    1.440766
     12          1           0        2.758822    0.139105   -0.375758
     13          1           0        0.259201   -2.687352   -0.413499
     14          1           0        0.480910   -1.445940   -1.677470
     15          1           0       -1.885095   -1.878291   -0.521036
     16          1           0       -1.309382   -0.848905    1.694628
     17          1           0       -2.581281   -0.077664    0.728826
     18          1           0       -0.808339    1.558584    1.707132
 ---------------------------------------------------------------------

 SCF Done:  E(RB3LYP) =  -398.177094606     A.U. after    1 cycles

 The electronic state is 1-A.
 Alpha  occ. eigenvalues --  -14.32227 -14.31407 -14.31216 -10.23716 -10.23658
 Alpha  occ. eigenvalues --  -10.22767 -10.21978 -10.21374 -10.19878  -1.00200
 Alpha  occ. eigenvalues --   -0.92474  -0.88654  -0.75362  -0.71103  -0.62394
 Alpha  occ. eigenvalues --   -0.61842  -0.58883  -0.51561  -0.50303  -0.49275
 Alpha  occ. eigenvalues --   -0.47105  -0.45482  -0.41330  -0.40768  -0.39685
 Alpha  occ. eigenvalues --   -0.39300  -0.37246  -0.32679  -0.31139  -0.27704
 Alpha  occ. eigenvalues --   -0.26042  -0.22746  -0.20744
 Alpha virt. eigenvalues --   -0.00321   0.08693   0.09163   0.11719   0.12748
 Alpha virt. eigenvalues --    0.13562   0.14167   0.14525   0.15341   0.16227
 Alpha virt. eigenvalues --    0.16992   0.17827   0.19075   0.21714   0.21898

 Mulliken charges:
               1
     1  C    0.008835
     2  N   -0.210022
     3  C    0.340750
     4  C   -0.346108
     5  N   -0.083127
     6  C   -0.114947
     7  N   -0.309312
     8  C   -0.160048
     9  C   -0.197903
    10  H    0.113274
    11  H    0.123681
    12  H    0.126834
    13  H    0.092171
    14  H    0.111484
    15  H    0.222349
    16  H    0.100063
    17  H    0.098447
    18  H    0.083579
 Sum of Mulliken charges =   0.00000

 Dipole moment (field-independent basis, Debye):
    X=             -1.1202    Y=             -0.7931    Z=              1.5064  Tot=              2.0379
 Quadrupole moment (field-independent basis, Debye-Ang):
   XX=            -48.2196   YY=            -49.9560   ZZ=            -55.4364
   XY=             -0.9990   XZ=              0.5169   YZ=              3.1313

  Exact polarizability:  87.306  -5.486  76.746  -1.071  -0.200  67.174
 Approx polarizability: 131.832 -11.374 114.082  -3.680  -2.060 105.093

                      1                      2                      3
                      A                      A                      A
 Frequencies --    138.5226               210.4849               265.5693
 Red. masses --      2.3034                 4.5858                 2.4322
 Frc consts  --      0.0260                 0.1197                 0.1011
 IR Inten    --      2.4823                 9.6616                 5.3790

                      4                      5                      6
                      A                      A                      A
 Frequencies --    314.4978               378.1372               406.4990
 Red. masses --      2.9632                 2.6171                 2.9656
 Frc consts  --      0.1727                 0.2205                 0.2887
 IR Inten    --      9.9021                 1.6130                 4.7492

                      7                      8                      9
                      A                      A                      A
 Frequencies --    487.2213               508.1199               597.1966
 Red. masses --      2.8737                 3.6104                 3.6289
 Frc consts  --      0.4019                 0.5492                 0.7625
 IR Inten    --     38.5135                12.4480                 6.4004

                     10                     11                     12
                      A                      A                      A
 Frequencies --    621.2446               714.2247               814.5753
 Red. masses --      4.0443                 2.7799                 3.6336
 Frc consts  --      0.9196                 0.8355                 1.4205
 IR Inten    --     12.6340                34.9492                 0.9757

                     13                     14                     15
                      A                      A                      A
 Frequencies --    845.6538               875.7247               899.5255
 Red. masses --      1.9897                 1.9184                 1.8058
 Frc consts  --      0.8383                 0.8668                 0.8609
 IR Inten    --     13.2569                 3.3614                 3.1774

                     16                     17                     18
                      A                      A                      A
 Frequencies --    913.1785               947.2410               960.8749
 Red. masses --      2.2041                 4.4359                 2.9722
 Frc consts  --      1.0829                 2.3450                 1.6168
 IR Inten    --      9.2563                11.1191                13.0972

                     19                     20                     21
                      A                      A                      A
 Frequencies --   1015.5975              1044.8959              1078.2962
 Red. masses --      2.4077                 1.8065                 1.4895
 Frc consts  --      1.4632                 1.1621                 1.0204
 IR Inten    --      5.2034                 1.0314                 5.3885

                     22                     23                     24
                      A                      A                      A
 Frequencies --   1079.2044              1110.9969              1114.2247
 Red. masses --      1.7410                 1.7266                 2.9620
 Frc consts  --      1.1947                 1.2557                 2.1666
 IR Inten    --      5.3029                13.3031                26.1069

                     25                     26                     27
                      A                      A                      A
 Frequencies --   1145.4276              1161.6299              1210.4642
 Red. masses --      1.4949                 1.9748                 1.2789
 Frc consts  --      1.1555                 1.5700                 1.1041
 IR Inten    --      5.1715                 5.6591                15.1741

                     28                     29                     30
                      A                      A                      A
 Frequencies --   1215.6693              1236.2348              1279.3101
 Red. masses --      1.3715                 1.7270                 1.4138
 Frc consts  --      1.1942                 1.5550                 1.3633
 IR Inten    --      2.5969                19.8716                16.1059

                     31                     32                     33
                      A                      A                      A
 Frequencies --   1295.2475              1346.1579              1413.6562
 Red. masses --      1.5214                 1.5386                 1.3389
 Frc consts  --      1.5039                 1.6427                 1.5765
 IR Inten    --     20.3509                17.5585                12.8368

                     34                     35                     36
                      A                      A                      A
 Frequencies --   1449.8783              1466.3019              1485.2951
 Red. masses --      2.1869                 1.3241                 1.0859
 Frc consts  --      2.7085                 1.6774                 1.4115
 IR Inten    --     36.6653                19.7794                 3.9452

                     37                     38                     39
                      A                      A                      A
 Frequencies --   1508.5789              1538.5510              1637.3635
 Red. masses --      1.4701                 1.1308                 8.2330
 Frc consts  --      1.9712                 1.5771                13.0047
 IR Inten    --     21.5723                 0.3101                12.9550

                     40                     41                     42
                      A                      A                      A
 Frequencies --   2965.0745              2972.7665              2996.4073
 Red. masses --      1.0560                 1.0692                 1.1071
 Frc consts  --      5.4701                 5.5671                 5.8565
 IR Inten    --    109.7827                53.7957                62.8530

                     43                     44                     45
                      A                      A                      A
 Frequencies --   3059.6836              3062.4518              3088.7676
 Red. masses --      1.0891                 1.0561                 1.0869
 Frc consts  --      6.0073                 5.8355                 6.1096
 IR Inten    --     48.1401                23.6457                33.4138

                     46                     47                     48
                      A                      A                      A
 Frequencies --   3152.6805              3160.7079              3574.9885
 Red. masses --      1.0967                 1.1149                 1.0752
 Frc consts  --      6.4222                 6.5624                 8.0962
 IR Inten    --     31.1871                18.9049                 1.9974

 - Thermochemistry -
 -------------------
 Temperature   298.150 Kelvin.  Pressure   1.00000 Atm.
 Atom     1 has atomic number  6 and mass  12.00000

 Molecular mass:   123.07965 amu.
 Principal axes and moments of inertia in atomic units:
                           1         2         3
     Eigenvalues --   761.56325 784.521811131.40159
           X            0.99271  -0.11979  -0.01291
           Y            0.12014   0.99230   0.03029
           Z            0.00919  -0.03162   0.99946
 This molecule is an asymmetric top.
 Rotational symmetry number  1.
 Warning -- assumption of classical behavior for rotation
           may cause significant error
 Rotational temperatures (Kelvin)      0.11373     0.11040     0.07655
 Rotational constants (GHZ):           2.36979     2.30043     1.59514
 Zero-point vibrational energy     393362.1 (Joules/Mol)
                                   94.01579 (Kcal/Mol)
 Warning -- explicit consideration of   9 degrees of freedom as
           vibrations may cause significant error
 Vibrational temperatures:    199.30   302.84   382.10   452.49   544.06
          (Kelvin)            584.86   701.00   731.07   859.23   893.83
                             1027.61  1171.99  1216.71  1259.97  1294.22
                             1313.86  1362.87  1382.48  1461.22  1503.37
                             1551.43  1552.73  1598.48  1603.12  1648.01
                             1671.33  1741.59  1749.08  1778.67  1840.64
                             1863.57  1936.82  2033.94  2086.05  2109.68
                             2137.01  2170.51  2213.63  2355.80  4266.08
                             4277.15  4311.16  4402.20  4406.19  4444.05
                             4536.00  4547.55  5143.61

 Zero-point correction=                           0.149824 (Hartree/Particle)
 Thermal correction to Energy=                    0.156951
 Thermal correction to Enthalpy=                  0.157895
 Thermal correction to Gibbs Free Energy=         0.118714
 Sum of electronic and zero-point Energies=           -398.027271
 Sum of electronic and thermal Energies=              -398.020144
 Sum of electronic and thermal Enthalpies=            -398.019200
 Sum of electronic and thermal Free Energies=         -398.058380

                     E (Thermal)             CV                S
                      KCal/Mol        Cal/Mol-Kelvin    Cal/Mol-Kelvin
 Total                   98.488             28.829             82.462
 Electronic               0.000              0.000              0.000
 Translational            0.889              2.981             40.337
 Rotational               0.889              2.981             28.004
 Vibrational             96.711             22.867             14.121
 Vibration     1          0.614              1.915              2.824
 Vibration     2          0.643              1.825              2.039
 Vibration     3          0.671              1.736              1.625
 Vibration     4          0.702              1.646              1.339
 Vibration     5          0.748              1.517              1.047
 Vibration     6          0.771              1.456              0.939
 Vibration     7          0.843              1.278              0.691
 Vibration     8          0.863              1.232              0.638
 Vibration     9          0.955              1.038              0.455

 Optimization completed.
    -- Stationary point found.
 Normal termination of Gaussian 16 at Thu Aug  4 05:00:58 2022.
