 Gaussian 16, Revision A.03,
 Gaussian 16:  ES64L-G16RevA.03 25-Dec-2016

 -----------------------------
 # opt freq b3lyp/6-31g(2df,p)
 -----------------------------

 -------------------
 Title Card Required
 -------------------
 Symbolic Z-matrix:
 Charge =  0 Multiplicity = 1

 SCF Done:  E(RB3LYP) =  -385.052076290     A.U. after   12 cycles
 SCF Done:  E(RB3LYP) =  -385.070919092     A.U. after   11 cycles
 SCF Done:  E(RB3LYP) =  -385.075129070     A.U. after   11 cycles
 SCF Done:  E(RB3LYP) =  -385.076113210     A.U. after   10 cycles
 SCF Done:  E(RB3LYP) =  -385.076419007     A.U. after   10 cycles
 SCF Done:  E(RB3LYP) =  -385.076491186     A.U. after    9 cycles
 SCF Done:  E(RB3LYP) =  -385.076544745     A.U. after   10 cycles
 SCF Done:  E(RB3LYP) =  -385.076574000     A.U. after   10 cycles
 SCF Done:  E(RB3LYP) =  -385.076613686     A.U. after   10 cycles
 SCF Done:  E(RB3LYP) =  -385.076672543     A.U. after   10 cycles
 SCF Done:  E(RB3LYP) =  -385.079144738     A.U. after   10 cycles
 SCF Done:  E(RB3LYP) =  -385.079337288     A.U. after   10 cycles
 SCF Done:  E(RB3LYP) =  -385.079462790     A.U. after   10 cycles
 SCF Done:  E(RB3LYP) =  -385.079480418     A.U. after    8 cycles
 SCF Done:  E(RB3LYP) =  -385.079484701     A.U. after    7 cycles
 SCF Done:  E(RB3LYP) =  -385.079485627     A.U. after    7 cycles
 SCF Done:  E(RB3LYP) =  -385.079485778     A.U. after    6 cycles
 SCF Done:  E(RB3LYP) =  -385.079485905     A.U. after    6 cycles
 SCF Done:  E(RB3LYP) =  -385.079485954     A.U. after    6 cycles
 Optimization completed.
    -- Stationary point found.
 Normal termination of Gaussian 16 at Thu Aug  4 07:06:48 2022.

 ----------------------------------------------------------------------
 #N Geom=AllCheck Guess=TCheck SCRF=Check GenChk RB3LYP/6-31G(2df,p) Fr
 eq
 ----------------------------------------------------------------------

 Structure from the checkpoint file:  "CC12CC1OCC2O.chk"
 -------------------
 Title Card Required
 -------------------
 Charge =  0 Multiplicity = 1

                         Standard orientation:
 ---------------------------------------------------------------------
 Center     Atomic      Atomic             Coordinates (Angstroms)
 Number     Number       Type             X           Y           Z
 ---------------------------------------------------------------------
      1          6           0        2.133326   -0.249730   -0.586044
      2          6           0        0.753964    0.056181   -0.058624
      3          6           0        0.570887    0.838333    1.242638
      4          6           0        0.111022    1.409882   -0.074240
      5          8           0       -1.255223    1.322897   -0.397851
      6          6           0       -1.653129   -0.033775   -0.237587
      7          6           0       -0.380844   -0.909858   -0.381916
      8          8           0       -0.423697   -2.097553    0.387417
      9          1           0        2.843444    0.544590   -0.335877
     10          1           0        2.123295   -0.360294   -1.676583
     11          1           0        2.514110   -1.184719   -0.160149
     12          1           0        1.467736    1.258477    1.685591
     13          1           0       -0.178095    0.535053    1.968228
     14          1           0        0.573347    2.296739   -0.492366
     15          1           0       -2.419213   -0.255235   -0.984982
     16          1           0       -2.094044   -0.206517    0.756353
     17          1           0       -0.266663   -1.251898   -1.416517
     18          1           0       -0.343923   -1.845148    1.314418
 ---------------------------------------------------------------------

 SCF Done:  E(RB3LYP) =  -385.079485954     A.U. after    1 cycles

 The electronic state is 1-A.
 Alpha  occ. eigenvalues --  -19.14291 -19.13969 -10.23610 -10.23602 -10.22608
 Alpha  occ. eigenvalues --  -10.19779 -10.18961 -10.18320  -1.04762  -1.01933
 Alpha  occ. eigenvalues --   -0.85665  -0.74490  -0.71142  -0.64891  -0.57935
 Alpha  occ. eigenvalues --   -0.57166  -0.52086  -0.48905  -0.47056  -0.43733
 Alpha  occ. eigenvalues --   -0.42405  -0.41452  -0.40366  -0.39039  -0.38604
 Alpha  occ. eigenvalues --   -0.36204  -0.34110  -0.31524  -0.28665  -0.26492
 Alpha  occ. eigenvalues --   -0.23159
 Alpha virt. eigenvalues --    0.06787   0.09195   0.10313   0.11965   0.12121
 Alpha virt. eigenvalues --    0.13431   0.14614   0.15579   0.17093   0.18427
 Alpha virt. eigenvalues --    0.18615   0.19819   0.21211   0.24002   0.25988

 Mulliken charges:
               1
     1  C   -0.490195
     2  C    0.284626
     3  C   -0.391182
     4  C    0.086874
     5  O   -0.257498
     6  C   -0.121570
     7  C    0.051969
     8  O   -0.433882
     9  H    0.114894
    10  H    0.120552
    11  H    0.128341
    12  H    0.115846
    13  H    0.109096
    14  H    0.102903
    15  H    0.115635
    16  H    0.089976
    17  H    0.093927
    18  H    0.279690
 Sum of Mulliken charges =  -0.00000

 Dipole moment (field-independent basis, Debye):
    X=              1.1279    Y=              0.2662    Z=              0.7461  Tot=              1.3783
 Quadrupole moment (field-independent basis, Debye-Ang):
   XX=            -47.5590   YY=            -54.1298   ZZ=            -44.8133
   XY=              2.9622   XZ=             -0.5363   YZ=             -0.3327

  Exact polarizability:  70.646   2.301  64.850   0.465   1.703  63.726
 Approx polarizability:  93.783   1.595  96.440   1.902   0.629  97.334

                      1                      2                      3
                      A                      A                      A
 Frequencies --    131.5114               192.3073               223.5766
 Red. masses --      3.0209                 1.2096                 2.3536
 Frc consts  --      0.0308                 0.0264                 0.0693
 IR Inten    --      3.6661                 0.1333                 2.6247

                      4                      5                      6
                      A                      A                      A
 Frequencies --    242.2413               290.3789               319.9027
 Red. masses --      1.9924                 2.2339                 1.4190
 Frc consts  --      0.0689                 0.1110                 0.0856
 IR Inten    --      9.5455                20.2690                45.0116

                      7                      8                      9
                      A                      A                      A
 Frequencies --    392.8379               457.7038               522.9991
 Red. masses --      3.2202                 2.3524                 3.0083
 Frc consts  --      0.2928                 0.2904                 0.4848
 IR Inten    --     18.2161                 4.9151                 4.3799

                     10                     11                     12
                      A                      A                      A
 Frequencies --    581.2761               681.6232               687.5389
 Red. masses --      4.1626                 2.8055                 4.1433
 Frc consts  --      0.8287                 0.7680                 1.1540
 IR Inten    --      0.8214                 2.4350                13.3031

                     13                     14                     15
                      A                      A                      A
 Frequencies --    827.3489               858.4939               907.5619
 Red. masses --      2.1733                 1.9264                 2.1820
 Frc consts  --      0.8765                 0.8365                 1.0589
 IR Inten    --      9.5449                10.2382                13.5532

                     16                     17                     18
                      A                      A                      A
 Frequencies --    961.4899               999.8055              1021.9930
 Red. masses --      1.4934                 1.9143                 1.6049
 Frc consts  --      0.8134                 1.1274                 0.9876
 IR Inten    --      5.3809                 6.2095                 4.5749

                     19                     20                     21
                      A                      A                      A
 Frequencies --   1026.0532              1032.9548              1058.8996
 Red. masses --      1.9023                 2.1923                 1.9571
 Frc consts  --      1.1800                 1.3782                 1.2930
 IR Inten    --     12.1033                15.6643                 5.6717

                     22                     23                     24
                      A                      A                      A
 Frequencies --   1091.5247              1106.6926              1124.6911
 Red. masses --      2.2193                 3.0476                 1.8727
 Frc consts  --      1.5579                 2.1992                 1.3957
 IR Inten    --     90.0687                52.8061                 3.3064

                     25                     26                     27
                      A                      A                      A
 Frequencies --   1158.8490              1216.6394              1243.8712
 Red. masses --      3.2361                 1.1630                 1.5312
 Frc consts  --      2.5605                 1.0143                 1.3958
 IR Inten    --     69.5769                 1.6049                11.1235

                     28                     29                     30
                      A                      A                      A
 Frequencies --   1285.7291              1310.3984              1318.1704
 Red. masses --      1.8101                 1.5152                 1.7429
 Frc consts  --      1.7630                 1.5330                 1.7843
 IR Inten    --      1.8778                 9.9469                 9.6770

                     31                     32                     33
                      A                      A                      A
 Frequencies --   1366.6018              1400.3094              1419.6992
 Red. masses --      1.4318                 1.4043                 1.4124
 Frc consts  --      1.5755                 1.6224                 1.6772
 IR Inten    --      2.3261                22.9017                 5.0340

                     34                     35                     36
                      A                      A                      A
 Frequencies --   1438.7577              1485.6653              1488.1229
 Red. masses --      1.2817                 1.3709                 1.0783
 Frc consts  --      1.5632                 1.7828                 1.4069
 IR Inten    --     42.2152                10.3146                 7.8979

                     37                     38                     39
                      A                      A                      A
 Frequencies --   1501.4934              1521.6305              2984.9159
 Red. masses --      1.0781                 1.0889                 1.0713
 Frc consts  --      1.4321                 1.4854                 5.6239
 IR Inten    --      4.7736                 2.8367                47.3639

                     40                     41                     42
                      A                      A                      A
 Frequencies --   3024.5579              3050.5028              3086.8291
 Red. masses --      1.0356                 1.0846                 1.1008
 Frc consts  --      5.5817                 5.9466                 6.1797
 IR Inten    --     29.3170                26.1596                19.7840

                     43                     44                     45
                      A                      A                      A
 Frequencies --   3093.1013              3099.6307              3122.7317
 Red. masses --      1.0937                 1.1008                 1.0547
 Frc consts  --      6.1651                 6.2315                 6.0595
 IR Inten    --     36.6932                23.1176                10.9767

                     46                     47                     48
                      A                      A                      A
 Frequencies --   3178.8281              3208.1282              3795.2743
 Red. masses --      1.0931                 1.1149                 1.0656
 Frc consts  --      6.5078                 6.7605                 9.0433
 IR Inten    --     14.6129                11.3172                10.4111

 - Thermochemistry -
 -------------------
 Temperature   298.150 Kelvin.  Pressure   1.00000 Atm.
 Atom     1 has atomic number  6 and mass  12.00000

 Molecular mass:   114.06808 amu.
 Principal axes and moments of inertia in atomic units:
                           1         2         3
     Eigenvalues --   712.46499 738.647401127.33138
           X            0.89845   0.43863  -0.01965
           Y           -0.43832   0.89863   0.01828
           Z            0.02568  -0.00781   0.99964
 This molecule is an asymmetric top.
 Rotational symmetry number  1.
 Warning -- assumption of classical behavior for rotation
           may cause significant error
 Rotational temperatures (Kelvin)      0.12157     0.11726     0.07683
 Rotational constants (GHZ):           2.53309     2.44331     1.60090
 Zero-point vibrational energy     403989.9 (Joules/Mol)
                                   96.55591 (Kcal/Mol)
 Warning -- explicit consideration of  10 degrees of freedom as
           vibrations may cause significant error
 Vibrational temperatures:    189.22   276.69   321.68   348.53   417.79
          (Kelvin)            460.27   565.21   658.53   752.48   836.33
                              980.70   989.22  1190.37  1235.18  1305.78
                             1383.37  1438.50  1470.42  1476.26  1486.19
                             1523.52  1570.46  1592.28  1618.18  1667.33
                             1750.47  1789.65  1849.88  1885.37  1896.55
                             1966.24  2014.73  2042.63  2070.05  2137.54
                             2141.08  2160.31  2189.29  4294.63  4351.66
                             4388.99  4441.26  4450.28  4459.68  4492.91
                             4573.62  4615.78  5460.55

 Zero-point correction=                           0.153872 (Hartree/Particle)
 Thermal correction to Energy=                    0.161592
 Thermal correction to Enthalpy=                  0.162537
 Thermal correction to Gibbs Free Energy=         0.122327
 Sum of electronic and zero-point Energies=           -384.925614
 Sum of electronic and thermal Energies=              -384.917894
 Sum of electronic and thermal Enthalpies=            -384.916949
 Sum of electronic and thermal Free Energies=         -384.957159

                     E (Thermal)             CV                S
                      KCal/Mol        Cal/Mol-Kelvin    Cal/Mol-Kelvin
 Total                  101.401             29.860             84.628
 Electronic               0.000              0.000              0.000
 Translational            0.889              2.981             40.110
 Rotational               0.889              2.981             27.875
 Vibrational             99.623             23.898             16.642
 Vibration     1          0.612              1.922              2.924
 Vibration     2          0.634              1.851              2.205
 Vibration     3          0.649              1.805              1.930
 Vibration     4          0.658              1.776              1.786
 Vibration     5          0.686              1.692              1.472
 Vibration     6          0.706              1.635              1.311
 Vibration     7          0.760              1.485              0.989
 Vibration     8          0.816              1.344              0.773
 Vibration     9          0.878              1.199              0.603
 Vibration    10          0.938              1.072              0.483

 Optimization completed.
    -- Stationary point found.
 Normal termination of Gaussian 16 at Thu Aug  4 07:29:12 2022.
