 Gaussian 16, Revision A.03,
 Gaussian 16:  ES64L-G16RevA.03 25-Dec-2016

 -----------------------------
 # opt freq b3lyp/6-31g(2df,p)
 -----------------------------

 -------------------
 Title Card Required
 -------------------
 Symbolic Z-matrix:
 Charge =  0 Multiplicity = 1

 SCF Done:  E(RB3LYP) =  -366.785663102     A.U. after   19 cycles
 SCF Done:  E(RB3LYP) =  -366.892898276     A.U. after   15 cycles
 SCF Done:  E(RB3LYP) =  -367.024814150     A.U. after   15 cycles
 SCF Done:  E(RB3LYP) =  -367.072354994     A.U. after   15 cycles
 SCF Done:  E(RB3LYP) =  -367.169815824     A.U. after   13 cycles
 SCF Done:  E(RB3LYP) =  -367.271070509     A.U. after   13 cycles
 SCF Done:  E(RB3LYP) =  -367.316620427     A.U. after   12 cycles
 SCF Done:  E(RB3LYP) =  -367.368722287     A.U. after   11 cycles
 SCF Done:  E(RB3LYP) =  -367.383129037     A.U. after   11 cycles
 SCF Done:  E(RB3LYP) =  -367.387325425     A.U. after   12 cycles
 SCF Done:  E(RB3LYP) =  -367.398689006     A.U. after   11 cycles
 SCF Done:  E(RB3LYP) =  -367.399303691     A.U. after   10 cycles
 SCF Done:  E(RB3LYP) =  -367.399737618     A.U. after   10 cycles
 SCF Done:  E(RB3LYP) =  -367.399858538     A.U. after   10 cycles
 SCF Done:  E(RB3LYP) =  -367.399882241     A.U. after    9 cycles
 SCF Done:  E(RB3LYP) =  -367.399887444     A.U. after    7 cycles
 SCF Done:  E(RB3LYP) =  -367.399890049     A.U. after    7 cycles
 SCF Done:  E(RB3LYP) =  -367.399890521     A.U. after    7 cycles
 SCF Done:  E(RB3LYP) =  -367.399890793     A.U. after    6 cycles
 Optimization completed.
    -- Stationary point found.
 Normal termination of Gaussian 16 at Thu Aug  4 06:45:32 2022.

 ----------------------------------------------------------------------
 #N Geom=AllCheck Guess=TCheck SCRF=Check GenChk RB3LYP/6-31G(2df,p) Fr
 eq
 ----------------------------------------------------------------------

 Structure from the checkpoint file:  "CC12CCNC3CC1C32.chk"
 -------------------
 Title Card Required
 -------------------
 Charge =  0 Multiplicity = 1

                         Standard orientation:
 ---------------------------------------------------------------------
 Center     Atomic      Atomic             Coordinates (Angstroms)
 Number     Number       Type             X           Y           Z
 ---------------------------------------------------------------------
      1          6           0       -2.834971   -0.704252   -0.215594
      2          6           0       -1.404751   -0.287157    0.039378
      3          6           0       -1.207415    1.209368   -0.051452
      4          6           0        0.156808    1.795976    0.320954
      5          7           0        1.228879    1.181502   -0.460674
      6          6           0        1.847094    0.065691    0.194983
      7          6           0        2.015622   -1.221682   -0.573015
      8          6           0        0.980472   -1.113025    0.540346
      9          6           0       -0.475059   -1.222401    0.269680
     10          1           0       -3.178749   -0.358035   -1.199447
     11          1           0       -3.515749   -0.259349    0.522109
     12          1           0       -2.956184   -1.789725   -0.178562
     13          1           0       -1.978630    1.699181    0.561887
     14          1           0       -1.430889    1.505719   -1.087752
     15          1           0        0.329378    1.694547    1.404981
     16          1           0        0.132312    2.870316    0.105302
     17          1           0        1.925594    1.862905   -0.732316
     18          1           0        2.618620    0.295760    0.935336
     19          1           0        2.897016   -1.830801   -0.404352
     20          1           0        1.638194   -1.212140   -1.588803
     21          1           0        1.274828   -1.628249    1.453115
     22          1           0       -0.824694   -2.255753    0.281532
 ---------------------------------------------------------------------

 SCF Done:  E(RB3LYP) =  -367.399890793     A.U. after    1 cycles

 The electronic state is 1-A.
 Alpha  occ. eigenvalues --  -14.30751 -10.20524 -10.19992 -10.18465 -10.17897
 Alpha  occ. eigenvalues --  -10.17483 -10.17341 -10.17035 -10.16734  -0.91141
 Alpha  occ. eigenvalues --   -0.82682  -0.79891  -0.71319  -0.68453  -0.62356
 Alpha  occ. eigenvalues --   -0.58659  -0.56051  -0.51132  -0.50153  -0.47169
 Alpha  occ. eigenvalues --   -0.45565  -0.42191  -0.42089  -0.40051  -0.38936
 Alpha  occ. eigenvalues --   -0.37270  -0.36615  -0.35516  -0.34203  -0.31776
 Alpha  occ. eigenvalues --   -0.30258  -0.27245  -0.23186  -0.20431
 Alpha virt. eigenvalues --    0.03421   0.08445   0.10545   0.11328   0.13299
 Alpha virt. eigenvalues --    0.13949   0.14356   0.15699   0.16225   0.17821
 Alpha virt. eigenvalues --    0.18623   0.18870   0.19164   0.19783   0.20208

 Mulliken charges:
               1
     1  C   -0.458602
     2  C    0.295774
     3  C   -0.240812
     4  C   -0.185863
     5  N   -0.294663
     6  C   -0.008619
     7  C   -0.302068
     8  C   -0.046070
     9  C   -0.148267
    10  H    0.118216
    11  H    0.116341
    12  H    0.116054
    13  H    0.090886
    14  H    0.106505
    15  H    0.087341
    16  H    0.089561
    17  H    0.217878
    18  H    0.066297
    19  H    0.102847
    20  H    0.118399
    21  H    0.088352
    22  H    0.070512
 Sum of Mulliken charges =  -0.00000

 Dipole moment (field-independent basis, Debye):
    X=              0.4104    Y=              0.8094    Z=              0.4696  Tot=              1.0218
 Quadrupole moment (field-independent basis, Debye-Ang):
   XX=            -52.5999   YY=            -52.5381   ZZ=            -56.6043
   XY=              0.6504   XZ=              0.9335   YZ=             -0.5243

  Exact polarizability: 108.747  -8.258  93.577   1.777  -1.077  68.620
 Approx polarizability: 145.355 -17.910 136.650   2.167  -4.480 109.029

                      1                      2                      3
                      A                      A                      A
 Frequencies --    107.4385               139.1742               200.1175
 Red. masses --      2.4122                 2.1414                 1.1783
 Frc consts  --      0.0164                 0.0244                 0.0278
 IR Inten    --      0.2676                 0.5672                 0.1038

                      4                      5                      6
                      A                      A                      A
 Frequencies --    263.2652               309.3024               319.7482
 Red. masses --      2.1734                 3.3577                 2.6279
 Frc consts  --      0.0888                 0.1893                 0.1583
 IR Inten    --      0.8344                 7.1017                 0.0438

                      7                      8                      9
                      A                      A                      A
 Frequencies --    370.5821               415.4557               437.1999
 Red. masses --      3.6801                 2.3223                 2.7865
 Frc consts  --      0.2978                 0.2362                 0.3138
 IR Inten    --      0.5292                 0.8172                 1.6241

                     10                     11                     12
                      A                      A                      A
 Frequencies --    475.6043               552.2128               651.3919
 Red. masses --      2.0227                 2.2596                 2.3959
 Frc consts  --      0.2696                 0.4060                 0.5990
 IR Inten    --      8.6438                15.5115                11.9409

                     13                     14                     15
                      A                      A                      A
 Frequencies --    708.7774               762.0555               823.4367
 Red. masses --      1.6826                 2.4142                 2.5017
 Frc consts  --      0.4980                 0.8260                 0.9994
 IR Inten    --     26.5804                 7.7212                 3.3590

                     16                     17                     18
                      A                      A                      A
 Frequencies --    836.7631               859.3950               876.4289
 Red. masses --      2.9954                 1.3255                 1.5347
 Frc consts  --      1.2357                 0.5768                 0.6946
 IR Inten    --      9.4529                 5.8183                17.7339

                     19                     20                     21
                      A                      A                      A
 Frequencies --    915.4401               951.2193              1013.8233
 Red. masses --      1.9243                 2.4674                 1.6441
 Frc consts  --      0.9501                 1.3154                 0.9956
 IR Inten    --      0.0155                 1.8894                 2.6984

                     22                     23                     24
                      A                      A                      A
 Frequencies --   1031.8320              1045.2063              1057.0206
 Red. masses --      1.8489                 1.3336                 1.5006
 Frc consts  --      1.1598                 0.8584                 0.9879
 IR Inten    --      2.3987                 4.3390                 3.4059

                     25                     26                     27
                      A                      A                      A
 Frequencies --   1058.5896              1086.3542              1111.0088
 Red. masses --      2.3559                 2.3660                 1.8884
 Frc consts  --      1.5555                 1.6451                 1.3734
 IR Inten    --      4.8092                 1.7760                 3.9237

                     28                     29                     30
                      A                      A                      A
 Frequencies --   1134.2812              1148.8032              1167.1412
 Red. masses --      1.2896                 1.5149                 2.4259
 Frc consts  --      0.9776                 1.1780                 1.9470
 IR Inten    --      9.0278                 6.6041                 2.7840

                     31                     32                     33
                      A                      A                      A
 Frequencies --   1187.5534              1254.1305              1268.0108
 Red. masses --      1.7151                 1.2445                 1.4139
 Frc consts  --      1.4251                 1.1533                 1.3394
 IR Inten    --     11.1591                 1.5075                 2.5870

                     34                     35                     36
                      A                      A                      A
 Frequencies --   1302.7212              1359.4376              1379.4644
 Red. masses --      1.2266                 1.3326                 1.4287
 Frc consts  --      1.2264                 1.4510                 1.6018
 IR Inten    --      3.3135                 4.6977                32.3094

                     37                     38                     39
                      A                      A                      A
 Frequencies --   1395.1300              1410.4480              1420.4529
 Red. masses --      1.6701                 1.4148                 1.3793
 Frc consts  --      1.9152                 1.6583                 1.6397
 IR Inten    --      6.9934                 2.6906                 1.2576

                     40                     41                     42
                      A                      A                      A
 Frequencies --   1431.3916              1455.2946              1466.7342
 Red. masses --      1.3825                 1.1335                 1.2644
 Frc consts  --      1.6689                 1.4144                 1.6026
 IR Inten    --      5.1227                 3.2651                 7.4671

                     43                     44                     45
                      A                      A                      A
 Frequencies --   1479.3849              1486.8297              1494.8123
 Red. masses --      1.0468                 1.1486                 1.0667
 Frc consts  --      1.3499                 1.4960                 1.4043
 IR Inten    --      6.4509                 0.6464                 5.1892

                     46                     47                     48
                      A                      A                      A
 Frequencies --   1510.1927              1740.8648              2964.8057
 Red. masses --      1.4765                 7.3060                 1.0702
 Frc consts  --      1.9840                13.0454                 5.5425
 IR Inten    --      3.8025                 1.6261                47.8165

                     49                     50                     51
                      A                      A                      A
 Frequencies --   2988.1165              3010.6705              3016.9215
 Red. masses --      1.0593                 1.0398                 1.0976
 Frc consts  --      5.5725                 5.5528                 5.8858
 IR Inten    --     27.2416                53.1799                39.2702

                     52                     53                     54
                      A                      A                      A
 Frequencies --   3043.2169              3053.7695              3054.4454
 Red. masses --      1.0860                 1.0979                 1.0935
 Frc consts  --      5.9259                 6.0322                 6.0107
 IR Inten    --     53.5753                26.5927                51.6832

                     55                     56                     57
                      A                      A                      A
 Frequencies --   3101.5563              3111.5451              3115.7751
 Red. masses --      1.0872                 1.0941                 1.0882
 Frc consts  --      6.1622                 6.2411                 6.2242
 IR Inten    --     16.5880                16.1219                45.7116

                     58                     59                     60
                      A                      A                      A
 Frequencies --   3134.5646              3231.0669              3553.8504
 Red. masses --      1.0551                 1.1171                 1.0747
 Frc consts  --      6.1080                 6.8710                 7.9973
 IR Inten    --     19.4832                 9.9684                 0.1058

 - Thermochemistry -
 -------------------
 Temperature   298.150 Kelvin.  Pressure   1.00000 Atm.
 Atom     1 has atomic number  6 and mass  12.00000

 Molecular mass:   123.10480 amu.
 Principal axes and moments of inertia in atomic units:
                           1         2         3
     Eigenvalues --   695.432471249.260331764.93586
           X            0.99997  -0.00268   0.00765
           Y            0.00262   0.99996   0.00818
           Z           -0.00767  -0.00816   0.99994
 This molecule is an asymmetric top.
 Rotational symmetry number  1.
 Warning -- assumption of classical behavior for rotation
           may cause significant error
 Rotational temperatures (Kelvin)      0.12455     0.06933     0.04907
 Rotational constants (GHZ):           2.59514     1.44465     1.02255
 Zero-point vibrational energy     515902.9 (Joules/Mol)
                                  123.30375 (Kcal/Mol)
 Warning -- explicit consideration of  11 degrees of freedom as
           vibrations may cause significant error
 Vibrational temperatures:    154.58   200.24   287.92   378.78   445.02
          (Kelvin)            460.05   533.19   597.75   629.03   684.29
                              794.51   937.21  1019.77  1096.43  1184.74
                             1203.92  1236.48  1260.99  1317.11  1368.59
                             1458.67  1484.58  1503.82  1520.82  1523.07
                             1563.02  1598.49  1631.98  1652.87  1679.26
                             1708.62  1804.41  1824.38  1874.33  1955.93
                             1984.74  2007.28  2029.32  2043.71  2059.45
                             2093.84  2110.30  2128.50  2139.22  2150.70
                             2172.83  2504.72  4265.69  4299.23  4331.68
                             4340.68  4378.51  4393.69  4394.67  4462.45
                             4476.82  4482.91  4509.94  4648.78  5113.20

 Zero-point correction=                           0.196497 (Hartree/Particle)
 Thermal correction to Energy=                    0.204979
 Thermal correction to Enthalpy=                  0.205923
 Thermal correction to Gibbs Free Energy=         0.163801
 Sum of electronic and zero-point Energies=           -367.203394
 Sum of electronic and thermal Energies=              -367.194912
 Sum of electronic and thermal Enthalpies=            -367.193968
 Sum of electronic and thermal Free Energies=         -367.236090

                     E (Thermal)             CV                S
                      KCal/Mol        Cal/Mol-Kelvin    Cal/Mol-Kelvin
 Total                  128.626             33.952             88.653
 Electronic               0.000              0.000              0.000
 Translational            0.889              2.981             40.338
 Rotational               0.889              2.981             28.818
 Vibrational            126.848             27.991             19.497
 Vibration     1          0.606              1.943              3.315
 Vibration     2          0.615              1.914              2.815
 Vibration     3          0.638              1.840              2.132
 Vibration     4          0.670              1.740              1.640
 Vibration     5          0.699              1.656              1.366
 Vibration     6          0.706              1.636              1.311
 Vibration     7          0.743              1.533              1.077
 Vibration     8          0.779              1.437              0.908
 Vibration     9          0.798              1.389              0.835
 Vibration    10          0.832              1.304              0.722
 Vibration    11          0.908              1.135              0.540

 Optimization completed.
    -- Stationary point found.
 Normal termination of Gaussian 16 at Thu Aug  4 07:25:03 2022.
