 Gaussian 16, Revision A.03,
 Gaussian 16:  ES64L-G16RevA.03 25-Dec-2016

 -----------------------------
 # opt freq b3lyp/6-31g(2df,p)
 -----------------------------

 -------------------
 Title Card Required
 -------------------
 Symbolic Z-matrix:
 Charge =  0 Multiplicity = 1

 SCF Done:  E(RB3LYP) =  -418.064566890     A.U. after   14 cycles
 SCF Done:  E(RB3LYP) =  -418.073216285     A.U. after   12 cycles
 SCF Done:  E(RB3LYP) =  -418.074598501     A.U. after   11 cycles
 SCF Done:  E(RB3LYP) =  -418.074734332     A.U. after   10 cycles
 SCF Done:  E(RB3LYP) =  -418.074756892     A.U. after    9 cycles
 SCF Done:  E(RB3LYP) =  -418.074763232     A.U. after    8 cycles
 SCF Done:  E(RB3LYP) =  -418.074766277     A.U. after    8 cycles
 SCF Done:  E(RB3LYP) =  -418.074767046     A.U. after    7 cycles
 SCF Done:  E(RB3LYP) =  -418.074767579     A.U. after    7 cycles
 Optimization completed.
    -- Stationary point found.
 Normal termination of Gaussian 16 at Sun Jul  3 09:18:05 2022.

 ----------------------------------------------------------------------
 #N Geom=AllCheck Guess=TCheck SCRF=Check GenChk RB3LYP/6-31G(2df,p) Fr
 eq
 ----------------------------------------------------------------------

 Structure from the checkpoint file:  "CC12CONpC1pC2CtN.chk"
 -------------------
 Title Card Required
 -------------------
 Charge =  0 Multiplicity = 1

                         Standard orientation:
 ---------------------------------------------------------------------
 Center     Atomic      Atomic             Coordinates (Angstroms)
 Number     Number       Type             X           Y           Z
 ---------------------------------------------------------------------
      1          6           0        1.346530    1.905254    0.113593
      2          6           0        0.799147    0.502948    0.027234
      3          6           0        0.486818   -0.260747    1.314364
      4          8           0       -0.020206   -1.501934    0.753919
      5          7           0        0.065042   -1.311405   -0.693243
      6          6           0        1.429966   -0.666199   -0.780047
      7          6           0       -0.475721    0.108187   -0.800607
      8          6           0       -1.809187    0.354380   -0.280872
      9          7           0       -2.856446    0.603332    0.139385
     10          1           0        2.292910    1.920315    0.664460
     11          1           0        0.646810    2.567687    0.633750
     12          1           0        1.530976    2.322851   -0.880892
     13          1           0       -0.284910    0.210432    1.931772
     14          1           0        1.379332   -0.453803    1.919677
     15          1           0        1.663833   -0.422685   -1.818187
     16          1           0        2.219134   -1.265119   -0.324646
     17          1           0       -0.411928    0.429364   -1.842264
 ---------------------------------------------------------------------

 SCF Done:  E(RB3LYP) =  -418.074767579     A.U. after    1 cycles

 The electronic state is 1-A.
 Alpha  occ. eigenvalues --  -19.17487 -14.40172 -14.33826 -10.26807 -10.24403
 Alpha  occ. eigenvalues --  -10.23932 -10.23565 -10.22663 -10.20679  -1.09544
 Alpha  occ. eigenvalues --   -0.91422  -0.89754  -0.80788  -0.74313  -0.71535
 Alpha  occ. eigenvalues --   -0.63222  -0.59399  -0.56152  -0.50498  -0.49711
 Alpha  occ. eigenvalues --   -0.46823  -0.43976  -0.42633  -0.41690  -0.40907
 Alpha  occ. eigenvalues --   -0.39024  -0.37349  -0.35567  -0.34701  -0.33855
 Alpha  occ. eigenvalues --   -0.32644  -0.27412  -0.27196
 Alpha virt. eigenvalues --   -0.00070   0.02340   0.05467   0.07314   0.09653
 Alpha virt. eigenvalues --    0.11585   0.12054   0.12646   0.14411   0.14858
 Alpha virt. eigenvalues --    0.15543   0.16065   0.17615   0.19089   0.20459

 Mulliken charges:
               1
     1  C   -0.512235
     2  C    0.257227
     3  C   -0.123927
     4  O   -0.262385
     5  N   -0.046381
     6  C   -0.186872
     7  C   -0.154719
     8  C    0.320719
     9  N   -0.328328
    10  H    0.134181
    11  H    0.142897
    12  H    0.128702
    13  H    0.131194
    14  H    0.112594
    15  H    0.122880
    16  H    0.129325
    17  H    0.135128
 Sum of Mulliken charges =  -0.00000

 Dipole moment (field-independent basis, Debye):
    X=              4.8471    Y=              2.2958    Z=             -0.9297  Tot=              5.4433
 Quadrupole moment (field-independent basis, Debye-Ang):
   XX=            -60.4986   YY=            -56.8547   ZZ=            -48.7663
   XY=              1.3200   XZ=              1.5593   YZ=             -0.5451

  Exact polarizability:  84.567  -4.052  64.621  -3.039   0.674  68.487
 Approx polarizability: 129.214  -8.657  97.861  -9.782   1.112 109.280

                      1                      2                      3
                      A                      A                      A
 Frequencies --    127.6857               148.8979               209.6244
 Red. masses --      5.0854                 5.1953                 1.0805
 Frc consts  --      0.0488                 0.0679                 0.0280
 IR Inten    --      4.3211                 2.2565                 0.1260

                      4                      5                      6
                      A                      A                      A
 Frequencies --    275.0216               286.3267               370.8367
 Red. masses --      2.9387                 2.6406                 3.8618
 Frc consts  --      0.1310                 0.1275                 0.3129
 IR Inten    --      3.0560                 2.5723                 4.6029

                      7                      8                      9
                      A                      A                      A
 Frequencies --    411.1199               495.1554               523.7156
 Red. masses --      4.8594                 2.3993                 4.4983
 Frc consts  --      0.4839                 0.3466                 0.7269
 IR Inten    --      1.7266                 0.6856                 0.4242

                     10                     11                     12
                      A                      A                      A
 Frequencies --    585.1264               599.5137               763.3510
 Red. masses --      4.4406                 3.9418                 5.1305
 Frc consts  --      0.8958                 0.8347                 1.7614
 IR Inten    --      1.2150                 0.5824                 0.0935

                     13                     14                     15
                      A                      A                      A
 Frequencies --    807.4260               819.0825               849.2048
 Red. masses --      7.8185                 3.7438                 3.0293
 Frc consts  --      3.0032                 1.4798                 1.2871
 IR Inten    --     18.6379                 1.3645                 3.3025

                     16                     17                     18
                      A                      A                      A
 Frequencies --    874.5630               937.5815               947.5378
 Red. masses --      3.4913                 2.6098                 3.5383
 Frc consts  --      1.5733                 1.3517                 1.8717
 IR Inten    --     16.4951                10.3897                 7.6465

                     19                     20                     21
                      A                      A                      A
 Frequencies --    972.4857               996.5230              1042.5760
 Red. masses --      3.6630                 1.4601                 1.5386
 Frc consts  --      2.0411                 0.8543                 0.9853
 IR Inten    --      5.2119                 0.1500                 2.5229

                     22                     23                     24
                      A                      A                      A
 Frequencies --   1078.3965              1117.7663              1143.9139
 Red. masses --      2.9903                 1.3639                 1.4178
 Frc consts  --      2.0489                 1.0040                 1.0931
 IR Inten    --      3.3022                 0.4860                 0.7019

                     25                     26                     27
                      A                      A                      A
 Frequencies --   1153.5687              1215.6566              1232.8083
 Red. masses --      1.5369                 1.5993                 1.7986
 Frc consts  --      1.2050                 1.3926                 1.6105
 IR Inten    --      0.7838                 3.5299                 0.1162

                     28                     29                     30
                      A                      A                      A
 Frequencies --   1251.8004              1268.0284              1355.2236
 Red. masses --      2.2470                 1.6808                 1.4643
 Frc consts  --      2.0745                 1.5923                 1.5845
 IR Inten    --      1.5443                 6.5032                 7.1362

                     31                     32                     33
                      A                      A                      A
 Frequencies --   1382.7046              1419.4027              1491.6766
 Red. masses --      1.7040                 1.3671                 1.0602
 Frc consts  --      1.9194                 1.6228                 1.3899
 IR Inten    --      3.5532                 5.6750                 4.2949

                     34                     35                     36
                      A                      A                      A
 Frequencies --   1493.9815              1498.7163              1527.3012
 Red. masses --      1.0478                 1.0986                 1.1032
 Frc consts  --      1.3779                 1.4539                 1.5162
 IR Inten    --      5.5275                 4.5510                 0.5318

                     37                     38                     39
                      A                      A                      A
 Frequencies --   2360.6526              3033.7151              3037.2301
 Red. masses --     12.6599                 1.0424                 1.0489
 Frc consts  --     41.5666                 5.6526                 5.7009
 IR Inten    --      2.8331                15.3090                37.6196

                     40                     41                     42
                      A                      A                      A
 Frequencies --   3080.7685              3086.5454              3101.0154
 Red. masses --      1.0582                 1.1105                 1.0831
 Frc consts  --      5.9172                 6.2332                 6.1363
 IR Inten    --     13.0447                17.3767                 5.3062

                     43                     44                     45
                      A                      A                      A
 Frequencies --   3103.0247              3106.7488              3153.3219
 Red. masses --      1.1009                 1.1016                 1.1120
 Frc consts  --      6.2453                 6.2644                 6.5146
 IR Inten    --     14.0235                14.5798                12.0282

 - Thermochemistry -
 -------------------
 Temperature   298.150 Kelvin.  Pressure   1.00000 Atm.
 Atom     1 has atomic number  6 and mass  12.00000

 Molecular mass:   124.06366 amu.
 Principal axes and moments of inertia in atomic units:
                           1         2         3
     Eigenvalues --   735.670431070.221221313.92144
           X            0.99821   0.05983  -0.00134
           Y           -0.05981   0.99815   0.01123
           Z            0.00201  -0.01113   0.99994
 This molecule is an asymmetric top.
 Rotational symmetry number  1.
 Warning -- assumption of classical behavior for rotation
           may cause significant error
 Rotational temperatures (Kelvin)      0.11773     0.08093     0.06592
 Rotational constants (GHZ):           2.45319     1.68633     1.37355
 Zero-point vibrational energy     357308.5 (Joules/Mol)
                                   85.39879 (Kcal/Mol)
 Warning -- explicit consideration of  11 degrees of freedom as
           vibrations may cause significant error
 Vibrational temperatures:    183.71   214.23   301.60   395.69   411.96
          (Kelvin)            533.55   591.51   712.42   753.51   841.87
                              862.57  1098.29  1161.71  1178.48  1221.82
                             1258.30  1348.97  1363.30  1399.19  1433.77
                             1500.03  1551.57  1608.22  1645.84  1659.73
                             1749.06  1773.74  1801.06  1824.41  1949.86
                             1989.40  2042.20  2146.19  2149.51  2156.32
                             2197.45  3396.45  4364.84  4369.90  4432.54
                             4440.85  4461.67  4464.56  4469.92  4536.93

 Zero-point correction=                           0.136092 (Hartree/Particle)
 Thermal correction to Energy=                    0.143846
 Thermal correction to Enthalpy=                  0.144790
 Thermal correction to Gibbs Free Energy=         0.104070
 Sum of electronic and zero-point Energies=           -417.938676
 Sum of electronic and thermal Energies=              -417.930922
 Sum of electronic and thermal Enthalpies=            -417.929977
 Sum of electronic and thermal Free Energies=         -417.970698

                     E (Thermal)             CV                S
                      KCal/Mol        Cal/Mol-Kelvin    Cal/Mol-Kelvin
 Total                   90.265             30.058             85.703
 Electronic               0.000              0.000              0.000
 Translational            0.889              2.981             40.361
 Rotational               0.889              2.981             28.427
 Vibrational             88.487             24.097             16.915
 Vibration     1          0.611              1.926              2.981
 Vibration     2          0.618              1.904              2.686
 Vibration     3          0.642              1.826              2.047
 Vibration     4          0.677              1.720              1.564
 Vibration     5          0.684              1.699              1.496
 Vibration     6          0.743              1.532              1.076
 Vibration     7          0.775              1.446              0.923
 Vibration     8          0.851              1.261              0.670
 Vibration     9          0.879              1.197              0.601
 Vibration    10          0.942              1.064              0.476
 Vibration    11          0.958              1.033              0.450

 Optimization completed.
    -- Stationary point found.
 Normal termination of Gaussian 16 at Sun Jul  3 09:43:40 2022.
