 Gaussian 16, Revision A.03,
 Gaussian 16:  ES64L-G16RevA.03 25-Dec-2016

 -----------------------------
 # opt freq b3lyp/6-31g(2df,p)
 -----------------------------

 -------------------
 Title Card Required
 -------------------
 Symbolic Z-matrix:
 Charge =  0 Multiplicity = 1

 SCF Done:  E(RB3LYP) =  -383.587806028     A.U. after   20 cycles
 SCF Done:  E(RB3LYP) =  -383.623572165     A.U. after   16 cycles
 SCF Done:  E(RB3LYP) =  -383.672656564     A.U. after   15 cycles
 SCF Done:  E(RB3LYP) =  -383.696967677     A.U. after   14 cycles
 SCF Done:  E(RB3LYP) =  -383.720763328     A.U. after   14 cycles
 SCF Done:  E(RB3LYP) =  -383.748436356     A.U. after   13 cycles
 SCF Done:  E(RB3LYP) =  -383.750657504     A.U. after   13 cycles
 SCF Done:  E(RB3LYP) =  -383.786086600     A.U. after   12 cycles
 SCF Done:  E(RB3LYP) =  -383.795625612     A.U. after   14 cycles
 SCF Done:  E(RB3LYP) =  -383.804281130     A.U. after   13 cycles
 SCF Done:  E(RB3LYP) =  -383.809278779     A.U. after   13 cycles
 SCF Done:  E(RB3LYP) =  -383.809300454     A.U. after    9 cycles
 SCF Done:  E(RB3LYP) =  -383.809314798     A.U. after   10 cycles
 SCF Done:  E(RB3LYP) =  -383.809317838     A.U. after   10 cycles
 SCF Done:  E(RB3LYP) =  -383.809318983     A.U. after    8 cycles
 SCF Done:  E(RB3LYP) =  -383.809319214     A.U. after    8 cycles
 SCF Done:  E(RB3LYP) =  -383.809319381     A.U. after    7 cycles
 SCF Done:  E(RB3LYP) =  -383.809319593     A.U. after    7 cycles
 SCF Done:  E(RB3LYP) =  -383.809319701     A.U. after    7 cycles
 Optimization completed.
    -- Stationary point found.
 Normal termination of Gaussian 16 at Thu Aug  4 01:29:06 2022.

 ----------------------------------------------------------------------
 #N Geom=AllCheck Guess=TCheck SCRF=Check GenChk RB3LYP/6-31G(2df,p) Fr
 eq
 ----------------------------------------------------------------------

 Structure from the checkpoint file:  "CC12CCpO1pC2CdO.chk"
 -------------------
 Title Card Required
 -------------------
 Charge =  0 Multiplicity = 1

                         Standard orientation:
 ---------------------------------------------------------------------
 Center     Atomic      Atomic             Coordinates (Angstroms)
 Number     Number       Type             X           Y           Z
 ---------------------------------------------------------------------
      1          6           0       -1.297855    1.799616    0.072824
      2          6           0       -0.828693    0.379904    0.047331
      3          6           0       -0.891510   -0.723374    1.138341
      4          6           0       -0.448831   -1.355399   -0.197334
      5          8           0       -1.496883   -0.571096   -0.881051
      6          6           0        0.548510   -0.189480   -0.466629
      7          6           0        1.818851   -0.013854    0.313615
      8          8           0        2.845825    0.380316   -0.182732
      9          1           0       -2.353239    1.842517    0.358416
     10          1           0       -1.182937    2.258732   -0.913137
     11          1           0       -0.717097    2.379243    0.796822
     12          1           0       -1.902975   -0.989227    1.447361
     13          1           0       -0.191772   -0.687206    1.975576
     14          1           0       -0.343304   -2.403829   -0.473648
     15          1           0        0.718170    0.004779   -1.526718
     16          1           0        1.778792   -0.263247    1.396705
 ---------------------------------------------------------------------

 SCF Done:  E(RB3LYP) =  -383.809319701     A.U. after    1 cycles

 The electronic state is 1-A.
 Alpha  occ. eigenvalues --  -19.14361 -19.14146 -10.27545 -10.27194 -10.26473
 Alpha  occ. eigenvalues --  -10.20768 -10.20428 -10.19591  -1.06918  -1.04916
 Alpha  occ. eigenvalues --   -0.81146  -0.75651  -0.71254  -0.62760  -0.61420
 Alpha  occ. eigenvalues --   -0.54771  -0.49319  -0.48888  -0.45901  -0.44929
 Alpha  occ. eigenvalues --   -0.43401  -0.42890  -0.40120  -0.38043  -0.36426
 Alpha  occ. eigenvalues --   -0.35046  -0.33514  -0.32012  -0.26853  -0.24031
 Alpha virt. eigenvalues --   -0.03588   0.08421   0.09572   0.10194   0.11472
 Alpha virt. eigenvalues --    0.12473   0.13425   0.14127   0.15925   0.16090
 Alpha virt. eigenvalues --    0.17271   0.18307   0.20564   0.22048   0.22854

 Mulliken charges:
               1
     1  C   -0.509755
     2  C    0.391739
     3  C   -0.276759
     4  C    0.031614
     5  O   -0.333094
     6  C   -0.100815
     7  C    0.124586
     8  O   -0.249631
     9  H    0.140135
    10  H    0.143267
    11  H    0.134132
    12  H    0.114901
    13  H    0.103062
    14  H    0.107343
    15  H    0.103611
    16  H    0.075665
 Sum of Mulliken charges =  -0.00000

 Dipole moment (field-independent basis, Debye):
    X=             -1.5379    Y=             -0.2125    Z=              1.8703  Tot=              2.4307
 Quadrupole moment (field-independent basis, Debye-Ang):
   XX=            -58.0535   YY=            -43.0528   ZZ=            -46.6435
   XY=             -3.8496   XZ=             -0.8722   YZ=             -0.3483

  Exact polarizability:  74.563   1.179  63.316  -2.600  -1.793  60.586
 Approx polarizability: 111.605   5.793  91.098  -3.297  -2.439  94.791

                      1                      2                      3
                      A                      A                      A
 Frequencies --     58.0544               181.8120               194.1919
 Red. masses --      4.3042                 1.0632                 2.3199
 Frc consts  --      0.0085                 0.0207                 0.0515
 IR Inten    --      7.2380                 0.4893                 2.0514

                      4                      5                      6
                      A                      A                      A
 Frequencies --    250.0189               303.0391               354.3341
 Red. masses --      4.0987                 2.4458                 2.6855
 Frc consts  --      0.1510                 0.1323                 0.1987
 IR Inten    --      5.9588                 0.7189                 2.8084

                      7                      8                      9
                      A                      A                      A
 Frequencies --    437.6076               527.3444               616.9360
 Red. masses --      7.2235                 2.5008                 3.2495
 Frc consts  --      0.8150                 0.4097                 0.7287
 IR Inten    --      6.3292                14.7634                 7.4634

                     10                     11                     12
                      A                      A                      A
 Frequencies --    622.1889               680.2064               774.2586
 Red. masses --      3.3042                 4.7960                 3.2331
 Frc consts  --      0.7536                 1.3074                 1.1419
 IR Inten    --      8.3664                10.5459                 7.3382

                     13                     14                     15
                      A                      A                      A
 Frequencies --    876.5130               900.1580               933.1295
 Red. masses --      2.5568                 3.9401                 1.7899
 Frc consts  --      1.1574                 1.8810                 0.9183
 IR Inten    --     24.1635                 9.8094                 2.4024

                     16                     17                     18
                      A                      A                      A
 Frequencies --    987.5953              1013.2725              1029.8865
 Red. masses --      2.9219                 1.1164                 1.5771
 Frc consts  --      1.6791                 0.6754                 0.9855
 IR Inten    --     13.3184                 5.8459                11.5633

                     19                     20                     21
                      A                      A                      A
 Frequencies --   1052.6917              1086.6608              1125.0630
 Red. masses --      1.8820                 1.7515                 3.2237
 Frc consts  --      1.2288                 1.2186                 2.4041
 IR Inten    --      6.1807                 2.0893                21.2147

                     22                     23                     24
                      A                      A                      A
 Frequencies --   1138.6226              1182.2178              1204.6521
 Red. masses --      1.5602                 1.5385                 1.5625
 Frc consts  --      1.1917                 1.2669                 1.3360
 IR Inten    --      8.3751                 3.3500                15.1688

                     25                     26                     27
                      A                      A                      A
 Frequencies --   1226.9140              1246.5386              1280.4514
 Red. masses --      1.4548                 2.0210                 1.7017
 Frc consts  --      1.2903                 1.8502                 1.6438
 IR Inten    --     13.6981                14.6736                20.2094

                     28                     29                     30
                      A                      A                      A
 Frequencies --   1347.5285              1410.8404              1448.1459
 Red. masses --      1.9965                 1.4541                 1.3391
 Frc consts  --      2.1360                 1.7053                 1.6546
 IR Inten    --     12.1311                14.1563                 7.5838

                     31                     32                     33
                      A                      A                      A
 Frequencies --   1474.7202              1486.5800              1502.8884
 Red. masses --      1.0476                 1.0465                 1.2109
 Frc consts  --      1.3423                 1.3626                 1.6115
 IR Inten    --      2.6216                 4.5618                 4.9976

                     34                     35                     36
                      A                      A                      A
 Frequencies --   1813.1526              2882.6374              3041.9722
 Red. masses --     10.2789                 1.0818                 1.0346
 Frc consts  --     19.9097                 5.2963                 5.6407
 IR Inten    --    179.7096                84.2558                11.0886

                     37                     38                     39
                      A                      A                      A
 Frequencies --   3073.5854              3115.7799              3117.3220
 Red. masses --      1.0557                 1.0870                 1.1005
 Frc consts  --      5.8762                 6.2177                 6.3012
 IR Inten    --     32.6473                12.1056                 7.7085

                     40                     41                     42
                      A                      A                      A
 Frequencies --   3121.2540              3129.1483              3150.0559
 Red. masses --      1.1016                 1.0942                 1.1103
 Frc consts  --      6.3232                 6.3122                 6.4914
 IR Inten    --     10.3443                38.2326                22.3194

 - Thermochemistry -
 -------------------
 Temperature   298.150 Kelvin.  Pressure   1.00000 Atm.
 Atom     1 has atomic number  6 and mass  12.00000

 Molecular mass:   112.05243 amu.
 Principal axes and moments of inertia in atomic units:
                           1         2         3
     Eigenvalues --   511.262751103.950601294.46544
           X            0.99922  -0.03865  -0.00841
           Y            0.03841   0.99892  -0.02626
           Z            0.00942   0.02592   0.99962
 This molecule is an asymmetric top.
 Rotational symmetry number  1.
 Warning -- assumption of classical behavior for rotation
           may cause significant error
 Rotational temperatures (Kelvin)      0.16941     0.07846     0.06691
 Rotational constants (GHZ):           3.52997     1.63480     1.39420
 Zero-point vibrational energy     337346.7 (Joules/Mol)
                                   80.62781 (Kcal/Mol)
 Warning -- explicit consideration of   9 degrees of freedom as
           vibrations may cause significant error
 Vibrational temperatures:     83.53   261.59   279.40   359.72   436.01
          (Kelvin)            509.81   629.62   758.73   887.63   895.19
                              978.67  1113.99  1261.11  1295.13  1342.57
                             1420.93  1457.87  1481.78  1514.59  1563.46
                             1618.71  1638.22  1700.95  1733.23  1765.26
                             1793.49  1842.28  1938.79  2029.88  2083.56
                             2121.79  2138.86  2162.32  2608.72  4147.47
                             4376.72  4422.20  4482.91  4485.13  4490.79
                             4502.15  4532.23

 Zero-point correction=                           0.128489 (Hartree/Particle)
 Thermal correction to Energy=                    0.136026
 Thermal correction to Enthalpy=                  0.136970
 Thermal correction to Gibbs Free Energy=         0.096359
 Sum of electronic and zero-point Energies=           -383.680831
 Sum of electronic and thermal Energies=              -383.673294
 Sum of electronic and thermal Enthalpies=            -383.672350
 Sum of electronic and thermal Free Energies=         -383.712961

                     E (Thermal)             CV                S
                      KCal/Mol        Cal/Mol-Kelvin    Cal/Mol-Kelvin
 Total                   85.357             27.996             85.474
 Electronic               0.000              0.000              0.000
 Translational            0.889              2.981             40.057
 Rotational               0.889              2.981             28.082
 Vibrational             83.580             22.034             17.335
 Vibration     1          0.596              1.974              4.522
 Vibration     2          0.630              1.864              2.310
 Vibration     3          0.635              1.848              2.187
 Vibration     4          0.663              1.763              1.730
 Vibration     5          0.694              1.668              1.400
 Vibration     6          0.730              1.566              1.147
 Vibration     7          0.798              1.388              0.834
 Vibration     8          0.882              1.189              0.593
 Vibration     9          0.977              0.996              0.421

                           ! Non-Optimized Parameters !
 Normal termination of Gaussian 16 at Thu Aug  4 01:53:03 2022.
