 Gaussian 16, Revision A.03,
 Gaussian 16:  ES64L-G16RevA.03 25-Dec-2016

 -----------------------------
 # opt freq b3lyp/6-31g(2df,p)
 -----------------------------

 -------------------
 Title Card Required
 -------------------
 Symbolic Z-matrix:
 Charge =  0 Multiplicity = 1

 SCF Done:  E(RB3LYP) =  -381.858814163     A.U. after   15 cycles
 SCF Done:  E(RB3LYP) =  -381.923803181     A.U. after   13 cycles
 SCF Done:  E(RB3LYP) =  -381.989011753     A.U. after   13 cycles
 SCF Done:  E(RB3LYP) =  -382.033848404     A.U. after   13 cycles
 SCF Done:  E(RB3LYP) =  -382.058746101     A.U. after   12 cycles
 SCF Done:  E(RB3LYP) =  -382.075704722     A.U. after   13 cycles
 SCF Done:  E(RB3LYP) =  -382.104643339     A.U. after   13 cycles
 SCF Done:  E(RB3LYP) =  -382.130932937     A.U. after   13 cycles
 SCF Done:  E(RB3LYP) =  -382.168119245     A.U. after   13 cycles
 SCF Done:  E(RB3LYP) =  -382.182133938     A.U. after   12 cycles
 SCF Done:  E(RB3LYP) =  -382.190711796     A.U. after   13 cycles
 SCF Done:  E(RB3LYP) =  -382.193870439     A.U. after   12 cycles
 SCF Done:  E(RB3LYP) =  -382.194815621     A.U. after   11 cycles
 SCF Done:  E(RB3LYP) =  -382.194936051     A.U. after   10 cycles
 SCF Done:  E(RB3LYP) =  -382.194983123     A.U. after    9 cycles
 SCF Done:  E(RB3LYP) =  -382.194989036     A.U. after    8 cycles
 SCF Done:  E(RB3LYP) =  -382.194990413     A.U. after    8 cycles
 SCF Done:  E(RB3LYP) =  -382.194990689     A.U. after    6 cycles
 Optimization completed.
    -- Stationary point found.
 Normal termination of Gaussian 16 at Sun Jul  3 13:11:29 2022.

 ----------------------------------------------------------------------
 #N Geom=AllCheck Guess=TCheck SCRF=Check GenChk RB3LYP/6-31G(2df,p) Fr
 eq
 ----------------------------------------------------------------------

 Structure from the checkpoint file:  "CC12CdNCN1C1CC12.chk"
 -------------------
 Title Card Required
 -------------------
 Charge =  0 Multiplicity = 1

                         Standard orientation:
 ---------------------------------------------------------------------
 Center     Atomic      Atomic             Coordinates (Angstroms)
 Number     Number       Type             X           Y           Z
 ---------------------------------------------------------------------
      1          6           0       -0.842106    2.080515   -0.323521
      2          6           0       -0.263445    0.738887    0.099766
      3          6           0       -1.163463   -0.079542    0.995894
      4          7           0       -1.445512   -1.245092    0.571033
      5          6           0       -0.781049   -1.430276   -0.732553
      6          7           0        0.006986   -0.221774   -1.020260
      7          6           0        1.440046   -0.231000   -0.683360
      8          6           0        1.752988   -0.629365    0.733895
      9          6           0        1.246626    0.761782    0.451130
     10          1           0       -1.819867    1.949447   -0.796410
     11          1           0       -0.177077    2.570087   -1.040559
     12          1           0       -0.961372    2.740997    0.543205
     13          1           0       -1.552889    0.282937    1.946406
     14          1           0       -1.557781   -1.596064   -1.489511
     15          1           0       -0.148040   -2.325962   -0.703434
     16          1           0        2.182914   -0.243443   -1.472771
     17          1           0        2.813803   -0.683465    0.959154
     18          1           0        1.144188   -1.350940    1.270891
     19          1           0        1.808218    1.658468    0.680107
 ---------------------------------------------------------------------

 SCF Done:  E(RB3LYP) =  -382.194990689     A.U. after    1 cycles

 The electronic state is 1-A.
 Alpha  occ. eigenvalues --  -14.32374 -14.31930 -10.22719 -10.22426 -10.21974
 Alpha  occ. eigenvalues --  -10.21923 -10.19929 -10.19147 -10.18136  -0.98694
 Alpha  occ. eigenvalues --   -0.90319  -0.80287  -0.76855  -0.68355  -0.62794
 Alpha  occ. eigenvalues --   -0.61306  -0.56317  -0.53011  -0.51263  -0.49177
 Alpha  occ. eigenvalues --   -0.46852  -0.42088  -0.41710  -0.40682  -0.40142
 Alpha  occ. eigenvalues --   -0.38648  -0.35222  -0.34356  -0.32819  -0.29273
 Alpha  occ. eigenvalues --   -0.28791  -0.25107  -0.22024
 Alpha virt. eigenvalues --   -0.00225   0.09246   0.10318   0.11377   0.11852
 Alpha virt. eigenvalues --    0.12693   0.13637   0.15128   0.15991   0.16663
 Alpha virt. eigenvalues --    0.17700   0.18343   0.19342   0.19990   0.20797

 Mulliken charges:
               1
     1  C   -0.454695
     2  C    0.267871
     3  C   -0.043848
     4  N   -0.185024
     5  C   -0.141323
     6  N   -0.138366
     7  C   -0.009453
     8  C   -0.314866
     9  C   -0.122585
    10  H    0.126331
    11  H    0.128468
    12  H    0.114944
    13  H    0.113378
    14  H    0.114778
    15  H    0.115189
    16  H    0.096060
    17  H    0.114637
    18  H    0.126427
    19  H    0.092076
 Sum of Mulliken charges =  -0.00000

 Dipole moment (field-independent basis, Debye):
    X=              1.4143    Y=              1.3615    Z=              0.2985  Tot=              1.9857
 Quadrupole moment (field-independent basis, Debye-Ang):
   XX=            -52.9499   YY=            -53.4426   ZZ=            -54.5697
   XY=             -2.9160   XZ=              0.7651   YZ=              2.9593

  Exact polarizability:  80.577  -0.097  83.934   0.356   5.252  70.178
 Approx polarizability: 114.346   3.495 130.325   0.207  12.702 112.940

                      1                      2                      3
                      A                      A                      A
 Frequencies --    185.0011               214.4191               222.8015
 Red. masses --      2.5400                 2.5629                 1.3171
 Frc consts  --      0.0512                 0.0694                 0.0385
 IR Inten    --      0.8644                 1.2640                 0.7310

                      4                      5                      6
                      A                      A                      A
 Frequencies --    268.5712               285.1479               416.6893
 Red. masses --      2.3003                 2.4080                 2.4524
 Frc consts  --      0.0978                 0.1154                 0.2509
 IR Inten    --      0.7995                 0.9993                 2.6191

                      7                      8                      9
                      A                      A                      A
 Frequencies --    478.6007               545.1685               595.8190
 Red. masses --      2.7950                 2.2003                 3.6251
 Frc consts  --      0.3772                 0.3853                 0.7582
 IR Inten    --      3.8970                 2.2873                 1.2043

                     10                     11                     12
                      A                      A                      A
 Frequencies --    692.6223               727.8912               790.3143
 Red. masses --      3.6489                 6.9419                 2.0123
 Frc consts  --      1.0314                 2.1670                 0.7405
 IR Inten    --      3.8427                 8.1355                 5.6443

                     13                     14                     15
                      A                      A                      A
 Frequencies --    806.3016               859.9137               903.2931
 Red. masses --      2.0951                 2.5251                 1.8251
 Frc consts  --      0.8025                 1.1001                 0.8774
 IR Inten    --     10.1840                13.0194                18.2543

                     16                     17                     18
                      A                      A                      A
 Frequencies --    916.2851               926.8656               935.9605
 Red. masses --      1.8376                 3.7568                 1.9718
 Frc consts  --      0.9090                 1.9015                 1.0177
 IR Inten    --      4.0286                 8.8517                 9.1962

                     19                     20                     21
                      A                      A                      A
 Frequencies --    963.7164               982.1435               992.3285
 Red. masses --      2.5454                 2.0751                 1.3377
 Frc consts  --      1.3929                 1.1793                 0.7761
 IR Inten    --      1.3392                 4.3319                 1.3472

                     22                     23                     24
                      A                      A                      A
 Frequencies --   1056.4438              1063.8909              1084.5174
 Red. masses --      1.4938                 1.9313                 1.3455
 Frc consts  --      0.9823                 1.2879                 0.9324
 IR Inten    --      6.2248                20.1377                 4.4976

                     25                     26                     27
                      A                      A                      A
 Frequencies --   1097.2472              1148.5068              1157.0024
 Red. masses --      2.0599                 2.2058                 2.4663
 Frc consts  --      1.4612                 1.7143                 1.9452
 IR Inten    --      8.5840                33.3132                16.7406

                     28                     29                     30
                      A                      A                      A
 Frequencies --   1168.7956              1207.9834              1236.0821
 Red. masses --      1.9265                 2.7667                 2.3880
 Frc consts  --      1.5506                 2.3787                 2.1497
 IR Inten    --      3.7190                12.4689                 3.8269

                     31                     32                     33
                      A                      A                      A
 Frequencies --   1247.2053              1280.1559              1320.0721
 Red. masses --      1.3465                 1.6796                 1.6270
 Frc consts  --      1.2340                 1.6218                 1.6704
 IR Inten    --      5.0264                 9.7082                 6.8205

                     34                     35                     36
                      A                      A                      A
 Frequencies --   1339.9491              1354.6037              1403.3709
 Red. masses --      1.5335                 1.6631                 1.2556
 Frc consts  --      1.6223                 1.7980                 1.4569
 IR Inten    --      5.2033                 7.5721                 2.6204

                     37                     38                     39
                      A                      A                      A
 Frequencies --   1481.1889              1485.6079              1490.3444
 Red. masses --      1.1371                 1.1180                 1.0480
 Frc consts  --      1.4699                 1.4538                 1.3715
 IR Inten    --      4.3123                 5.1055                 3.5752

                     40                     41                     42
                      A                      A                      A
 Frequencies --   1500.3868              1692.7766              3020.7525
 Red. masses --      1.0942                 8.4817                 1.0579
 Frc consts  --      1.4513                14.3197                 5.6873
 IR Inten    --      1.7203                22.4193                63.0608

                     43                     44                     45
                      A                      A                      A
 Frequencies --   3031.0591              3052.9611              3102.0569
 Red. masses --      1.0358                 1.1070                 1.0995
 Frc consts  --      5.6071                 6.0792                 6.2339
 IR Inten    --     18.8208                20.1153                15.7659

                     46                     47                     48
                      A                      A                      A
 Frequencies --   3116.9815              3119.0689              3142.8961
 Red. masses --      1.1023                 1.0544                 1.0928
 Frc consts  --      6.3100                 6.0437                 6.3597
 IR Inten    --     15.1452                10.9778                20.8727

                     49                     50                     51
                      A                      A                      A
 Frequencies --   3169.4591              3192.3329              3205.6469
 Red. masses --      1.0912                 1.0987                 1.1114
 Frc consts  --      6.4585                 6.5969                 6.7291
 IR Inten    --     23.9019                 9.3593                13.9772

 - Thermochemistry -
 -------------------
 Temperature   298.150 Kelvin.  Pressure   1.00000 Atm.
 Atom     1 has atomic number  6 and mass  12.00000

 Molecular mass:   122.08440 amu.
 Principal axes and moments of inertia in atomic units:
                           1         2         3
     Eigenvalues --   767.51356 848.332921136.76076
           X            0.97135  -0.23629   0.02557
           Y            0.23611   0.97168   0.00975
           Z           -0.02715  -0.00343   0.99963
 This molecule is an asymmetric top.
 Rotational symmetry number  1.
 Warning -- assumption of classical behavior for rotation
           may cause significant error
 Rotational temperatures (Kelvin)      0.11285     0.10210     0.07619
 Rotational constants (GHZ):           2.35141     2.12740     1.58762
 Zero-point vibrational energy     422755.5 (Joules/Mol)
                                  101.04099 (Kcal/Mol)
 Warning -- explicit consideration of   9 degrees of freedom as
           vibrations may cause significant error
 Vibrational temperatures:    266.18   308.50   320.56   386.41   410.26
          (Kelvin)            599.52   688.60   784.38   857.25   996.53
                             1047.27  1137.09  1160.09  1237.22  1299.64
                             1318.33  1333.55  1346.64  1386.57  1413.09
                             1427.74  1519.99  1530.70  1560.38  1578.69
                             1652.45  1664.67  1681.64  1738.02  1778.45
                             1794.45  1841.86  1899.29  1927.89  1948.97
                             2019.14  2131.10  2137.46  2144.27  2158.72
                             2435.53  4346.19  4361.02  4392.53  4463.17
                             4484.64  4487.64  4521.93  4560.14  4593.06
                             4612.21

 Zero-point correction=                           0.161019 (Hartree/Particle)
 Thermal correction to Energy=                    0.168333
 Thermal correction to Enthalpy=                  0.169277
 Thermal correction to Gibbs Free Energy=         0.129813
 Sum of electronic and zero-point Energies=           -382.033972
 Sum of electronic and thermal Energies=              -382.026658
 Sum of electronic and thermal Enthalpies=            -382.025714
 Sum of electronic and thermal Free Energies=         -382.065178

                     E (Thermal)             CV                S
                      KCal/Mol        Cal/Mol-Kelvin    Cal/Mol-Kelvin
 Total                  105.630             29.851             83.059
 Electronic               0.000              0.000              0.000
 Translational            0.889              2.981             40.313
 Rotational               0.889              2.981             28.095
 Vibrational            103.853             23.889             14.652
 Vibration     1          0.631              1.860              2.277
 Vibration     2          0.644              1.819              2.006
 Vibration     3          0.648              1.806              1.936
 Vibration     4          0.673              1.731              1.605
 Vibration     5          0.683              1.701              1.503
 Vibration     6          0.780              1.434              0.903
 Vibration     7          0.835              1.298              0.714
 Vibration     8          0.900              1.150              0.554
 Vibration     9          0.954              1.041              0.457

 Optimization completed.
    -- Stationary point found.
 Normal termination of Gaussian 16 at Sun Jul  3 13:42:45 2022.
