 Gaussian 16, Revision A.03,
 Gaussian 16:  ES64L-G16RevA.03 25-Dec-2016

 -----------------------------
 # opt freq b3lyp/6-31g(2df,p)
 -----------------------------

 -------------------
 Title Card Required
 -------------------
 Symbolic Z-matrix:
 Charge =  0 Multiplicity = 1

 SCF Done:  E(RB3LYP) =  -403.010584148     A.U. after   18 cycles
 SCF Done:  E(RB3LYP) =  -403.057525825     A.U. after   15 cycles
 SCF Done:  E(RB3LYP) =  -403.115320077     A.U. after   16 cycles
 SCF Done:  E(RB3LYP) =  -403.142323780     A.U. after   16 cycles
 SCF Done:  E(RB3LYP) =  -403.152240224     A.U. after   16 cycles
 SCF Done:  E(RB3LYP) =  -403.162471527     A.U. after   15 cycles
 SCF Done:  E(RB3LYP) =  -403.179219223     A.U. after   16 cycles
 SCF Done:  E(RB3LYP) =  -403.190489237     A.U. after   14 cycles
 SCF Done:  E(RB3LYP) =  -403.223908890     A.U. after   14 cycles
 SCF Done:  E(RB3LYP) =  -403.230926907     A.U. after   14 cycles
 SCF Done:  E(RB3LYP) =  -403.233804227     A.U. after   14 cycles
 SCF Done:  E(RB3LYP) =  -403.235256196     A.U. after   13 cycles
 SCF Done:  E(RB3LYP) =  -403.236529535     A.U. after   13 cycles
 SCF Done:  E(RB3LYP) =  -403.237577959     A.U. after   13 cycles
 SCF Done:  E(RB3LYP) =  -403.237779071     A.U. after   13 cycles
 SCF Done:  E(RB3LYP) =  -403.237881882     A.U. after   11 cycles
 SCF Done:  E(RB3LYP) =  -403.237909549     A.U. after   10 cycles
 SCF Done:  E(RB3LYP) =  -403.237911812     A.U. after    9 cycles
 SCF Done:  E(RB3LYP) =  -403.237912620     A.U. after    9 cycles
 Optimization completed.
    -- Stationary point found.
 Normal termination of Gaussian 16 at Thu Aug  4 07:06:31 2022.

 ----------------------------------------------------------------------
 #N Geom=AllCheck Guess=TCheck SCRF=Check GenChk RB3LYP/6-31G(2df,p) Fr
 eq
 ----------------------------------------------------------------------

 Structure from the checkpoint file:  "CC12CCC1pCpC2NdO.chk"
 -------------------
 Title Card Required
 -------------------
 Charge =  0 Multiplicity = 1

                         Standard orientation:
 ---------------------------------------------------------------------
 Center     Atomic      Atomic             Coordinates (Angstroms)
 Number     Number       Type             X           Y           Z
 ---------------------------------------------------------------------
      1          6           0        0.246268    1.768548   -1.202130
      2          6           0        0.524676    0.757718   -0.125751
      3          6           0        1.731025    0.780960    0.824022
      4          6           0        1.730884   -0.781094    0.824191
      5          6           0        0.524514   -0.757657   -0.125906
      6          6           0        0.246192   -1.768483   -1.202274
      7          6           0       -0.587831   -0.000004    0.622341
      8          7           0       -1.842820    0.000146   -0.049843
      9          8           0       -2.804432   -0.000037    0.695204
     10          1           0        1.134391    1.911511   -1.827931
     11          1           0       -0.013649    2.740909   -0.767854
     12          1           0       -0.581896    1.455639   -1.840919
     13          1           0        1.582271    1.283494    1.784582
     14          1           0        2.622055    1.196703    0.346309
     15          1           0        1.581762   -1.283616    1.784677
     16          1           0        2.621815   -1.197053    0.346506
     17          1           0        1.133392   -1.909410   -1.829837
     18          1           0       -0.583839   -1.457084   -1.839361
     19          1           0       -0.010757   -2.741629   -0.767917
     20          1           0       -0.644717   -0.000119    1.712057
 ---------------------------------------------------------------------

 SCF Done:  E(RB3LYP) =  -403.237912620     A.U. after    1 cycles

 The electronic state is 1-A.
 Alpha  occ. eigenvalues --  -19.17197 -14.42413 -10.21771 -10.21739 -10.21723
 Alpha  occ. eigenvalues --  -10.19682 -10.19665 -10.18574 -10.18574  -1.13017
 Alpha  occ. eigenvalues --   -0.92225  -0.78145  -0.74555  -0.72537  -0.66939
 Alpha  occ. eigenvalues --   -0.63663  -0.56283  -0.50674  -0.49957  -0.48873
 Alpha  occ. eigenvalues --   -0.45318  -0.44452  -0.43256  -0.41995  -0.41090
 Alpha  occ. eigenvalues --   -0.40275  -0.39836  -0.38942  -0.37265  -0.34164
 Alpha  occ. eigenvalues --   -0.32658  -0.27967  -0.26793  -0.20856
 Alpha virt. eigenvalues --   -0.06539   0.08874   0.10371   0.10676   0.11318
 Alpha virt. eigenvalues --    0.12008   0.12271   0.14541   0.15208   0.15956
 Alpha virt. eigenvalues --    0.17641   0.18462   0.19334   0.20509   0.21502

 Mulliken charges:
               1
     1  C   -0.500946
     2  C    0.270762
     3  C   -0.285622
     4  C   -0.285649
     5  C    0.270761
     6  C   -0.501026
     7  C   -0.023427
     8  N   -0.000684
     9  O   -0.243884
    10  H    0.117951
    11  H    0.127799
    12  H    0.146160
    13  H    0.105632
    14  H    0.110971
    15  H    0.105658
    16  H    0.110970
    17  H    0.117981
    18  H    0.146195
    19  H    0.127783
    20  H    0.082614
 Sum of Mulliken charges =  -0.00000

 Dipole moment (field-independent basis, Debye):
    X=              3.4108    Y=             -0.0003    Z=             -0.2574  Tot=              3.4205
 Quadrupole moment (field-independent basis, Debye-Ang):
   XX=            -61.7322   YY=            -51.9888   ZZ=            -53.5546
   XY=              0.0001   XZ=              0.8636   YZ=              0.0005

  Exact polarizability:  99.044   0.000  79.206  -2.357   0.000  75.071
 Approx polarizability: 156.398   0.003 112.579 -10.989  -0.000 111.646

                      1                      2                      3
                      A                      A                      A
 Frequencies --    110.8426               151.7846               191.3272
 Red. masses --      4.8330                 3.1834                 1.0395
 Frc consts  --      0.0350                 0.0432                 0.0224
 IR Inten    --      0.5669                 2.0929                 0.2211

                      4                      5                      6
                      A                      A                      A
 Frequencies --    202.4888               214.6650               216.8312
 Red. masses --      1.0829                 3.2962                 1.8461
 Frc consts  --      0.0262                 0.0895                 0.0511
 IR Inten    --      0.0311                 1.2554                 0.5570

                      7                      8                      9
                      A                      A                      A
 Frequencies --    288.9874               299.6450               384.8092
 Red. masses --      3.9210                 2.6170                 3.0267
 Frc consts  --      0.1929                 0.1384                 0.2641
 IR Inten    --      2.3900                 0.0852                 0.9442

                     10                     11                     12
                      A                      A                      A
 Frequencies --    457.5480               458.2950               522.2935
 Red. masses --      5.0962                 2.3101                 5.0586
 Frc consts  --      0.6286                 0.2859                 0.8130
 IR Inten    --      1.0507                 1.4341                21.8111

                     13                     14                     15
                      A                      A                      A
 Frequencies --    616.3362               670.1243               677.1172
 Red. masses --      4.1510                 3.6854                 3.3890
 Frc consts  --      0.9290                 0.9751                 0.9155
 IR Inten    --      0.0625                 0.2525                10.4527

                     16                     17                     18
                      A                      A                      A
 Frequencies --    791.2502               886.1039               914.6382
 Red. masses --      1.1838                 2.7570                 2.0201
 Frc consts  --      0.4367                 1.2754                 0.9957
 IR Inten    --      1.2548                45.4711                 0.7620

                     19                     20                     21
                      A                      A                      A
 Frequencies --    942.7586               989.2479               989.5672
 Red. masses --      2.6796                 1.7397                 1.3820
 Frc consts  --      1.4032                 1.0031                 0.7974
 IR Inten    --      6.3823                13.4187                 0.0459

                     22                     23                     24
                      A                      A                      A
 Frequencies --   1036.8538              1040.9569              1075.4939
 Red. masses --      1.4793                 1.2673                 2.3176
 Frc consts  --      0.9370                 0.8091                 1.5794
 IR Inten    --      5.0398                 0.0167               104.5330

                     25                     26                     27
                      A                      A                      A
 Frequencies --   1114.2730              1168.8402              1175.7028
 Red. masses --      1.9348                 2.5479                 1.9663
 Frc consts  --      1.4153                 2.0509                 1.6014
 IR Inten    --      1.5363                 5.4299                 5.2431

                     28                     29                     30
                      A                      A                      A
 Frequencies --   1211.3623              1213.7098              1230.1733
 Red. masses --      2.2198                 1.2872                 1.5324
 Frc consts  --      1.9192                 1.1172                 1.3663
 IR Inten    --     36.1415                 1.1265                 0.2537

                     31                     32                     33
                      A                      A                      A
 Frequencies --   1242.1477              1314.8598              1316.6309
 Red. masses --      1.5096                 2.5897                 1.6633
 Frc consts  --      1.3723                 2.6379                 1.6988
 IR Inten    --      3.2297                 2.9487                 7.8801

                     34                     35                     36
                      A                      A                      A
 Frequencies --   1409.7725              1410.9633              1435.5941
 Red. masses --      1.3029                 1.2937                 2.8784
 Frc consts  --      1.5257                 1.5175                 3.4951
 IR Inten    --      0.3298                 4.4560                 4.0034

                     37                     38                     39
                      A                      A                      A
 Frequencies --   1477.7078              1485.9712              1492.6904
 Red. masses --      1.0808                 1.0484                 1.0689
 Frc consts  --      1.3905                 1.3639                 1.4033
 IR Inten    --      0.4497                 1.4929                 8.4706

                     40                     41                     42
                      A                      A                      A
 Frequencies --   1494.0627              1496.9890              1509.2481
 Red. masses --      1.0481                 1.0729                 1.2603
 Frc consts  --      1.3784                 1.4165                 1.6915
 IR Inten    --      0.0112                 1.6351                 4.1005

                     43                     44                     45
                      A                      A                      A
 Frequencies --   1616.6031              3028.6798              3029.9633
 Red. masses --     13.6771                 1.0382                 1.0384
 Frc consts  --     21.0596                 5.6111                 5.6167
 IR Inten    --    152.9049                38.3836                18.8615

                     46                     47                     48
                      A                      A                      A
 Frequencies --   3047.5267              3054.4140              3084.4738
 Red. masses --      1.0570                 1.0605                 1.1008
 Frc consts  --      5.7841                 5.8295                 6.1702
 IR Inten    --     43.5801                43.3385                 8.1955

                     49                     50                     51
                      A                      A                      A
 Frequencies --   3085.3930              3092.7986              3093.4010
 Red. masses --      1.1006                 1.0893                 1.1079
 Frc consts  --      6.1731                 6.1388                 6.2461
 IR Inten    --     27.1406                13.0054                 0.0462

                     52                     53                     54
                      A                      A                      A
 Frequencies --   3111.3544              3129.8244              3131.5898
 Red. masses --      1.1062                 1.0980                 1.0979
 Frc consts  --      6.3096                 6.3373                 6.3439
 IR Inten    --     40.2822                 4.0516                 9.2864

 - Thermochemistry -
 -------------------
 Temperature   298.150 Kelvin.  Pressure   1.00000 Atm.
 Atom     1 has atomic number  6 and mass  12.00000

 Molecular mass:   125.08406 amu.
 Principal axes and moments of inertia in atomic units:
                           1         2         3
     Eigenvalues --   801.577411312.490821485.59092
           X            0.99977  -0.00000   0.02157
           Y            0.00000   1.00000   0.00000
           Z           -0.02157  -0.00000   0.99977
 This molecule is an asymmetric top.
 Rotational symmetry number  1.
 Warning -- assumption of classical behavior for rotation
           may cause significant error
 Rotational temperatures (Kelvin)      0.10805     0.06599     0.05830
 Rotational constants (GHZ):           2.25149     1.37505     1.21483
 Zero-point vibrational energy     441641.5 (Joules/Mol)
                                  105.55484 (Kcal/Mol)
 Warning -- explicit consideration of  13 degrees of freedom as
           vibrations may cause significant error
 Vibrational temperatures:    159.48   218.38   275.28   291.34   308.86
          (Kelvin)            311.97   415.79   431.12   553.65   658.31
                              659.38   751.46   886.77   964.16   974.22
                             1138.43  1274.91  1315.96  1356.42  1423.31
                             1423.77  1491.80  1497.70  1547.40  1603.19
                             1681.70  1691.57  1742.88  1746.26  1769.94
                             1787.17  1891.79  1894.34  2028.35  2030.06
                             2065.50  2126.09  2137.98  2147.65  2149.62
                             2153.83  2171.47  2325.93  4357.59  4359.44
                             4384.71  4394.62  4437.87  4439.19  4449.85
                             4450.71  4476.55  4503.12  4505.66

 Zero-point correction=                           0.168212 (Hartree/Particle)
 Thermal correction to Energy=                    0.177503
 Thermal correction to Enthalpy=                  0.178447
 Thermal correction to Gibbs Free Energy=         0.134675
 Sum of electronic and zero-point Energies=           -403.069700
 Sum of electronic and thermal Energies=              -403.060410
 Sum of electronic and thermal Enthalpies=            -403.059465
 Sum of electronic and thermal Free Energies=         -403.103238

                     E (Thermal)             CV                S
                      KCal/Mol        Cal/Mol-Kelvin    Cal/Mol-Kelvin
 Total                  111.385             35.069             92.127
 Electronic               0.000              0.000              0.000
 Translational            0.889              2.981             40.385
 Rotational               0.889              2.981             28.837
 Vibrational            109.607             29.108             22.904
 Vibration     1          0.607              1.940              3.254
 Vibration     2          0.619              1.901              2.650
 Vibration     3          0.634              1.852              2.215
 Vibration     4          0.639              1.836              2.110
 Vibration     5          0.645              1.819              2.004
 Vibration     6          0.646              1.815              1.985
 Vibration     7          0.686              1.694              1.480
 Vibration     8          0.692              1.674              1.419
 Vibration     9          0.754              1.503              1.020
 Vibration    10          0.816              1.344              0.773
 Vibration    11          0.816              1.343              0.771
 Vibration    12          0.877              1.201              0.605
 Vibration    13          0.976              0.997              0.422

                           ! Non-Optimized Parameters !
 Normal termination of Gaussian 16 at Thu Aug  4 07:41:44 2022.
