 Gaussian 16, Revision A.03,
 Gaussian 16:  ES64L-G16RevA.03 25-Dec-2016

 -----------------------------
 # opt freq b3lyp/6-31g(2df,p)
 -----------------------------

 -------------------
 Title Card Required
 -------------------
 Symbolic Z-matrix:
 Charge =  0 Multiplicity = 1

 SCF Done:  E(RB3LYP) =  -403.024562831     A.U. after   15 cycles
 SCF Done:  E(RB3LYP) =  -403.066541557     A.U. after   13 cycles
 SCF Done:  E(RB3LYP) =  -403.107345817     A.U. after   13 cycles
 SCF Done:  E(RB3LYP) =  -403.114706075     A.U. after   12 cycles
 SCF Done:  E(RB3LYP) =  -403.118175506     A.U. after   13 cycles
 SCF Done:  E(RB3LYP) =  -403.122256695     A.U. after   13 cycles
 SCF Done:  E(RB3LYP) =  -403.129976369     A.U. after   13 cycles
 SCF Done:  E(RB3LYP) =  -403.135085553     A.U. after   12 cycles
 SCF Done:  E(RB3LYP) =  -403.142160360     A.U. after   12 cycles
 SCF Done:  E(RB3LYP) =  -403.144824591     A.U. after   11 cycles
 SCF Done:  E(RB3LYP) =  -403.147217674     A.U. after    9 cycles
 SCF Done:  E(RB3LYP) =  -403.147217497     A.U. after    8 cycles
 SCF Done:  E(RB3LYP) =  -403.147220503     A.U. after    8 cycles
 SCF Done:  E(RB3LYP) =  -403.147221740     A.U. after    8 cycles
 SCF Done:  E(RB3LYP) =  -403.147222139     A.U. after    7 cycles
 SCF Done:  E(RB3LYP) =  -403.147221858     A.U. after    7 cycles
 SCF Done:  E(RB3LYP) =  -403.147221667     A.U. after    7 cycles
 SCF Done:  E(RB3LYP) =  -403.147222103     A.U. after    7 cycles
 SCF Done:  E(RB3LYP) =  -403.147221644     A.U. after    7 cycles
 Optimization completed.
    -- Stationary point found.
 Normal termination of Gaussian 16 at Sun Jul  3 19:19:38 2022.

 ----------------------------------------------------------------------
 #N Geom=AllCheck Guess=TCheck SCRF=Check GenChk RB3LYP/6-31G(2df,p) Fr
 eq
 ----------------------------------------------------------------------

 Structure from the checkpoint file:  "CC12CCC1N1CC12O.chk"
 -------------------
 Title Card Required
 -------------------
 Charge =  0 Multiplicity = 1

                         Standard orientation:
 ---------------------------------------------------------------------
 Center     Atomic      Atomic             Coordinates (Angstroms)
 Number     Number       Type             X           Y           Z
 ---------------------------------------------------------------------
      1          6           0       -0.677711    1.782426    0.138610
      2          6           0       -0.393192    0.352767   -0.403442
      3          6           0       -1.785091   -0.161129   -0.985467
      4          6           0       -2.082190   -0.705402    0.502201
      5          6           0       -0.523628   -0.867876    0.465413
      6          7           0        0.932622   -0.969357    0.920651
      7          6           0        1.547509    0.371284    1.091832
      8          6           0        1.139071    0.021959   -0.287966
      9          8           0        1.958810   -0.226260   -1.348971
     10          1           0       -1.501256    2.250024   -0.408124
     11          1           0        0.199293    2.419925    0.002680
     12          1           0       -0.943687    1.818931    1.200636
     13          1           0       -1.723099   -0.982236   -1.700575
     14          1           0       -2.454557    0.615118   -1.364143
     15          1           0       -2.690109   -1.607222    0.603498
     16          1           0       -2.478422    0.087770    1.137655
     17          1           0       -0.469707   -1.722692   -0.220609
     18          1           0        2.609371    0.269364    1.317153
     19          1           0        1.071233    1.152454    1.674743
     20          1           0        2.833507   -0.470039   -1.022787
 ---------------------------------------------------------------------

 SCF Done:  E(RB3LYP) =  -403.147221644     A.U. after    1 cycles

 The electronic state is 1-A.
 Alpha  occ. eigenvalues --  -19.16427 -14.32027 -10.27548 -10.20955 -10.20931
 Alpha  occ. eigenvalues --  -10.20259 -10.19689 -10.19495 -10.17705  -1.05786
 Alpha  occ. eigenvalues --   -0.95498  -0.84176  -0.72787  -0.68785  -0.64658
 Alpha  occ. eigenvalues --   -0.62127  -0.58961  -0.54299  -0.50277  -0.49854
 Alpha  occ. eigenvalues --   -0.44744  -0.43843  -0.42271  -0.39718  -0.38719
 Alpha  occ. eigenvalues --   -0.38430  -0.36752  -0.35262  -0.35039  -0.32822
 Alpha  occ. eigenvalues --   -0.30884  -0.26881  -0.24890  -0.20725
 Alpha virt. eigenvalues --    0.05980   0.06633   0.07604   0.09700   0.10572
 Alpha virt. eigenvalues --    0.11855   0.12494   0.14709   0.14958   0.16441
 Alpha virt. eigenvalues --    0.17147   0.17859   0.19176   0.19869   0.21097

 Mulliken charges:
               1
     1  C   -0.440684
     2  C    0.237459
     3  C   -0.308008
     4  C   -0.310239
     5  C    0.126930
     6  N   -0.291101
     7  C   -0.293445
     8  C    0.295815
     9  O   -0.449954
    10  H    0.111040
    11  H    0.125172
    12  H    0.122357
    13  H    0.121145
    14  H    0.102224
    15  H    0.104870
    16  H    0.116412
    17  H    0.104606
    18  H    0.109695
    19  H    0.122032
    20  H    0.293675
 Sum of Mulliken charges =  -0.00000

 Dipole moment (field-independent basis, Debye):
    X=             -0.0345    Y=              1.2283    Z=              0.0913  Tot=              1.2321
 Quadrupole moment (field-independent basis, Debye-Ang):
   XX=            -46.9219   YY=            -55.9331   ZZ=            -57.6138
   XY=              1.3447   XZ=              0.3722   YZ=              3.2343

  Exact polarizability:  98.333   2.384  74.254   4.214   2.407  70.712
 Approx polarizability: 138.111   2.387 114.920   4.413  -0.461 115.192

                      1                      2                      3
                      A                      A                      A
 Frequencies --    106.6342               150.6767               210.2982
 Red. masses --      1.6644                 1.4384                 1.6137
 Frc consts  --      0.0112                 0.0192                 0.0420
 IR Inten    --      0.8889                31.9508                50.1329

                      4                      5                      6
                      A                      A                      A
 Frequencies --    260.2695               289.3187               373.5523
 Red. masses --      2.7645                 2.1359                 3.2492
 Frc consts  --      0.1103                 0.1053                 0.2671
 IR Inten    --     17.3106                15.3195                10.6721

                      7                      8                      9
                      A                      A                      A
 Frequencies --    384.4240               430.6040               478.8845
 Red. masses --      3.3071                 3.6516                 2.9583
 Frc consts  --      0.2879                 0.3989                 0.3997
 IR Inten    --      8.4158                18.0076                 0.9187

                     10                     11                     12
                      A                      A                      A
 Frequencies --    492.3102               546.9556               624.2625
 Red. masses --      3.3064                 2.7612                 2.5277
 Frc consts  --      0.4721                 0.4867                 0.5804
 IR Inten    --      4.8118                 7.6622                 2.4323

                     13                     14                     15
                      A                      A                      A
 Frequencies --    649.2464               680.4573               773.9980
 Red. masses --      5.2269                 4.1522                 2.7776
 Frc consts  --      1.2981                 1.1327                 0.9804
 IR Inten    --     12.7872                 3.9195                 3.5656

                     16                     17                     18
                      A                      A                      A
 Frequencies --    819.2019               855.2053               865.6656
 Red. masses --      2.1162                 3.0378                 1.9705
 Frc consts  --      0.8367                 1.3090                 0.8700
 IR Inten    --      3.1756                35.7192                 1.5930

                     19                     20                     21
                      A                      A                      A
 Frequencies --    902.8869               964.5626               992.9022
 Red. masses --      2.1886                 1.8407                 1.8781
 Frc consts  --      1.0512                 1.0090                 1.0909
 IR Inten    --      4.1751                21.8050                 3.2834

                     22                     23                     24
                      A                      A                      A
 Frequencies --   1003.6770              1032.7601              1055.4444
 Red. masses --      2.6409                 2.6294                 1.2309
 Frc consts  --      1.5674                 1.6524                 0.8079
 IR Inten    --      5.9925                38.1699                 2.6419

                     25                     26                     27
                      A                      A                      A
 Frequencies --   1083.2900              1108.2354              1122.6365
 Red. masses --      1.8612                 1.8380                 1.6800
 Frc consts  --      1.2869                 1.3300                 1.2475
 IR Inten    --     61.5868                 6.9865                 5.0928

                     28                     29                     30
                      A                      A                      A
 Frequencies --   1138.7384              1149.4713              1167.9988
 Red. masses --      1.5047                 1.4201                 2.3628
 Frc consts  --      1.1496                 1.1055                 1.8991
 IR Inten    --      1.0452                 9.1255                11.2868

                     31                     32                     33
                      A                      A                      A
 Frequencies --   1200.7137              1204.7550              1220.3839
 Red. masses --      1.2437                 2.0188                 1.4948
 Frc consts  --      1.0564                 1.7264                 1.3117
 IR Inten    --      1.2964                 3.9812                 1.2247

                     34                     35                     36
                      A                      A                      A
 Frequencies --   1297.3209              1348.5805              1387.7431
 Red. masses --      1.3642                 2.7343                 2.3790
 Frc consts  --      1.3528                 2.9299                 2.6994
 IR Inten    --      1.4872               175.8199                34.2510

                     37                     38                     39
                      A                      A                      A
 Frequencies --   1417.0270              1480.1848              1493.2430
 Red. masses --      1.1967                 1.0834                 1.1282
 Frc consts  --      1.4158                 1.3986                 1.4822
 IR Inten    --      0.9828                 1.5330                 3.5410

                     40                     41                     42
                      A                      A                      A
 Frequencies --   1502.2030              1508.8142              1520.6115
 Red. masses --      1.1333                 1.0625                 1.1061
 Frc consts  --      1.5068                 1.4252                 1.5069
 IR Inten    --      9.3848                 6.1036                 8.4100

                     43                     44                     45
                      A                      A                      A
 Frequencies --   1571.7888              2985.3696              3031.7765
 Red. masses --      1.0663                 1.0839                 1.0391
 Frc consts  --      1.5521                 5.6915                 5.6275
 IR Inten    --      1.9035                26.7631                20.3896

                     46                     47                     48
                      A                      A                      A
 Frequencies --   3063.4604              3074.9720              3088.9967
 Red. masses --      1.0584                 1.0585                 1.0963
 Frc consts  --      5.8525                 5.8971                 6.1631
 IR Inten    --     34.3045                57.7803                27.2680

                     49                     50                     51
                      A                      A                      A
 Frequencies --   3092.4629              3112.1498              3131.9397
 Red. masses --      1.0618                 1.1007                 1.1089
 Frc consts  --      5.9829                 6.2811                 6.4086
 IR Inten    --     30.8821                20.9742                 4.2920

                     52                     53                     54
                      A                      A                      A
 Frequencies --   3146.8814              3184.6132              3789.7995
 Red. masses --      1.1081                 1.1091                 1.0653
 Frc consts  --      6.4654                 6.6273                 9.0145
 IR Inten    --     45.4396                12.1316                28.9268

 - Thermochemistry -
 -------------------
 Temperature   298.150 Kelvin.  Pressure   1.00000 Atm.
 Atom     1 has atomic number  6 and mass  12.00000

 Molecular mass:   125.08406 amu.
 Principal axes and moments of inertia in atomic units:
                           1         2         3
     Eigenvalues --   652.771611240.145291274.65300
           X            0.99976  -0.00738   0.02049
           Y           -0.00492   0.84003   0.54252
           Z           -0.02121  -0.54249   0.83979
 This molecule is an asymmetric top.
 Rotational symmetry number  1.
 Warning -- assumption of classical behavior for rotation
           may cause significant error
 Rotational temperatures (Kelvin)      0.13269     0.06984     0.06795
 Rotational constants (GHZ):           2.76474     1.45527     1.41587
 Zero-point vibrational energy     446029.8 (Joules/Mol)
                                  106.60368 (Kcal/Mol)
 Warning -- explicit consideration of  11 degrees of freedom as
           vibrations may cause significant error
 Vibrational temperatures:    153.42   216.79   302.57   374.47   416.27
          (Kelvin)            537.46   553.10   619.54   689.01   708.32
                              786.95   898.17   934.12   979.03  1113.61
                             1178.65  1230.45  1245.50  1299.05  1387.79
                             1428.56  1444.07  1485.91  1518.55  1558.61
                             1594.50  1615.22  1638.39  1653.83  1680.49
                             1727.56  1733.37  1755.86  1866.56  1940.31
                             1996.65  2038.79  2129.66  2148.44  2161.34
                             2170.85  2187.82  2261.45  4295.28  4362.05
                             4407.64  4424.20  4444.38  4449.36  4477.69
                             4506.16  4527.66  4581.95  5452.68

 Zero-point correction=                           0.169884 (Hartree/Particle)
 Thermal correction to Energy=                    0.178300
 Thermal correction to Enthalpy=                  0.179244
 Thermal correction to Gibbs Free Energy=         0.137468
 Sum of electronic and zero-point Energies=           -402.977338
 Sum of electronic and thermal Energies=              -402.968921
 Sum of electronic and thermal Enthalpies=            -402.967977
 Sum of electronic and thermal Free Energies=         -403.009754

                     E (Thermal)             CV                S
                      KCal/Mol        Cal/Mol-Kelvin    Cal/Mol-Kelvin
 Total                  111.885             33.815             87.926
 Electronic               0.000              0.000              0.000
 Translational            0.889              2.981             40.385
 Rotational               0.889              2.981             28.425
 Vibrational            110.108             27.854             19.116
 Vibration     1          0.606              1.944              3.329
 Vibration     2          0.618              1.902              2.664
 Vibration     3          0.642              1.825              2.041
 Vibration     4          0.668              1.745              1.660
 Vibration     5          0.686              1.694              1.478
 Vibration     6          0.745              1.526              1.065
 Vibration     7          0.753              1.503              1.022
 Vibration     8          0.792              1.404              0.857
 Vibration     9          0.835              1.297              0.713
 Vibration    10          0.848              1.267              0.678
 Vibration    11          0.902              1.146              0.551

 Optimization completed.
    -- Stationary point found.
 Normal termination of Gaussian 16 at Sun Jul  3 19:54:56 2022.
