 Gaussian 16, Revision A.03,
 Gaussian 16:  ES64L-G16RevA.03 25-Dec-2016

 -----------------------------
 # opt freq b3lyp/6-31g(2df,p)
 -----------------------------

 -------------------
 Title Card Required
 -------------------
 Symbolic Z-matrix:
 Charge =  0 Multiplicity = 1

 SCF Done:  E(RB3LYP) =  -387.134909064     A.U. after   12 cycles
 SCF Done:  E(RB3LYP) =  -387.174097133     A.U. after   11 cycles
 SCF Done:  E(RB3LYP) =  -387.207838321     A.U. after   11 cycles
 SCF Done:  E(RB3LYP) =  -387.223859985     A.U. after   11 cycles
 SCF Done:  E(RB3LYP) =  -387.239055883     A.U. after   12 cycles
 SCF Done:  E(RB3LYP) =  -387.245806863     A.U. after   11 cycles
 SCF Done:  E(RB3LYP) =  -387.251445064     A.U. after   12 cycles
 SCF Done:  E(RB3LYP) =  -387.252621156     A.U. after   10 cycles
 SCF Done:  E(RB3LYP) =  -387.252731814     A.U. after    9 cycles
 SCF Done:  E(RB3LYP) =  -387.252756941     A.U. after    9 cycles
 SCF Done:  E(RB3LYP) =  -387.252759808     A.U. after    7 cycles
 SCF Done:  E(RB3LYP) =  -387.252760509     A.U. after    6 cycles
 SCF Done:  E(RB3LYP) =  -387.252760697     A.U. after    6 cycles
 Optimization completed.
    -- Stationary point found.
 Normal termination of Gaussian 16 at Thu Aug  4 02:39:53 2022.

 ----------------------------------------------------------------------
 #N Geom=AllCheck Guess=TCheck SCRF=Check GenChk RB3LYP/6-31G(2df,p) Fr
 eq
 ----------------------------------------------------------------------

 Structure from the checkpoint file:  "CC12COC3CC1C3C2.chk"
 -------------------
 Title Card Required
 -------------------
 Charge =  0 Multiplicity = 1

                         Standard orientation:
 ---------------------------------------------------------------------
 Center     Atomic      Atomic             Coordinates (Angstroms)
 Number     Number       Type             X           Y           Z
 ---------------------------------------------------------------------
      1          6           0        2.395526   -0.019632    0.513710
      2          6           0        0.955620    0.006030    0.037172
      3          6           0        0.334909    1.405592    0.100099
      4          8           0       -0.987765    1.377337   -0.437762
      5          6           0       -1.603277    0.122039   -0.199568
      6          6           0       -1.345127   -0.374607    1.250365
      7          6           0       -0.067538   -1.023958    0.688238
      8          6           0       -0.704970   -1.067364   -0.733962
      9          6           0        0.601503   -0.576219   -1.367344
     10          1           0        2.479098    0.328482    1.550313
     11          1           0        3.031759    0.623060   -0.106245
     12          1           0        2.804775   -1.034296    0.469929
     13          1           0        0.906614    2.116912   -0.506975
     14          1           0        0.324496    1.779813    1.135448
     15          1           0       -2.628782    0.202986   -0.562992
     16          1           0       -2.069718   -1.142447    1.538758
     17          1           0       -1.289770    0.377409    2.043198
     18          1           0        0.393836   -1.885716    1.174808
     19          1           0       -1.248284   -1.928435   -1.126468
     20          1           0        0.547578    0.127719   -2.203365
     21          1           0        1.250650   -1.415469   -1.636580
 ---------------------------------------------------------------------

 SCF Done:  E(RB3LYP) =  -387.252760697     A.U. after    1 cycles

 The electronic state is 1-A.
 Alpha  occ. eigenvalues --  -19.13282 -10.22801 -10.22015 -10.19389 -10.18376
 Alpha  occ. eigenvalues --  -10.18026 -10.17662 -10.17647 -10.17459  -1.03144
 Alpha  occ. eigenvalues --   -0.86644  -0.78310  -0.71554  -0.68740  -0.61894
 Alpha  occ. eigenvalues --   -0.60451  -0.58558  -0.51409  -0.48039  -0.47678
 Alpha  occ. eigenvalues --   -0.45788  -0.43271  -0.42145  -0.40301  -0.39291
 Alpha  occ. eigenvalues --   -0.38397  -0.37443  -0.35456  -0.34887  -0.30958
 Alpha  occ. eigenvalues --   -0.29022  -0.27964  -0.26766  -0.23576
 Alpha virt. eigenvalues --    0.08892   0.09398   0.11229   0.12435   0.12866
 Alpha virt. eigenvalues --    0.13454   0.14580   0.14957   0.16548   0.17556
 Alpha virt. eigenvalues --    0.18576   0.18701   0.19183   0.20366   0.20977

 Mulliken charges:
               1
     1  C   -0.488463
     2  C    0.290405
     3  C   -0.117747
     4  O   -0.269935
     5  C    0.109813
     6  C   -0.264426
     7  C   -0.066731
     8  C   -0.043205
     9  C   -0.265812
    10  H    0.115243
    11  H    0.115923
    12  H    0.115025
    13  H    0.101348
    14  H    0.089059
    15  H    0.075947
    16  H    0.098984
    17  H    0.097364
    18  H    0.056510
    19  H    0.059744
    20  H    0.099473
    21  H    0.091485
 Sum of Mulliken charges =  -0.00000

 Dipole moment (field-independent basis, Debye):
    X=              0.7193    Y=             -1.0627    Z=              0.5702  Tot=              1.4043
 Quadrupole moment (field-independent basis, Debye-Ang):
   XX=            -53.7229   YY=            -55.9207   ZZ=            -55.0208
   XY=              2.7248   XZ=             -0.6199   YZ=              1.0613

  Exact polarizability:  88.101   3.430  77.410  -1.343   1.198  77.375
 Approx polarizability: 120.396   3.052 117.076  -0.226   0.061 116.724

                      1                      2                      3
                      A                      A                      A
 Frequencies --    207.4962               242.6105               275.4984
 Red. masses --      1.1825                 1.9187                 2.3635
 Frc consts  --      0.0300                 0.0665                 0.1057
 IR Inten    --      0.0636                 0.3244                 0.6915

                      4                      5                      6
                      A                      A                      A
 Frequencies --    313.8666               392.7557               409.0358
 Red. masses --      2.7161                 2.0576                 2.2653
 Frc consts  --      0.1576                 0.1870                 0.2233
 IR Inten    --      4.6434                 0.6117                 0.1713

                      7                      8                      9
                      A                      A                      A
 Frequencies --    437.2926               494.6369               596.8078
 Red. masses --      2.1355                 4.1260                 3.9840
 Frc consts  --      0.2406                 0.5948                 0.8361
 IR Inten    --      1.7134                 0.5132                 2.3997

                     10                     11                     12
                      A                      A                      A
 Frequencies --    631.0028               704.7727               774.6213
 Red. masses --      3.7958                 3.4427                 2.5669
 Frc consts  --      0.8905                 1.0075                 0.9075
 IR Inten    --      0.7287                 5.3095                 4.3576

                     13                     14                     15
                      A                      A                      A
 Frequencies --    823.4753               841.7938               865.9561
 Red. masses --      1.8635                 2.6521                 2.1561
 Frc consts  --      0.7445                 1.1073                 0.9526
 IR Inten    --      2.8193                 5.4211                 4.6513

                     16                     17                     18
                      A                      A                      A
 Frequencies --    913.8901               923.0816               956.1203
 Red. masses --      2.3776                 1.9406                 2.3007
 Frc consts  --      1.1700                 0.9743                 1.2392
 IR Inten    --      6.4402                 1.4060                 6.3276

                     19                     20                     21
                      A                      A                      A
 Frequencies --    965.3289               982.8164              1008.3100
 Red. masses --      1.5026                 1.8220                 2.1803
 Frc consts  --      0.8250                 1.0369                 1.3060
 IR Inten    --      3.5138                 1.2299                11.2482

                     22                     23                     24
                      A                      A                      A
 Frequencies --   1016.4488              1042.9487              1064.4930
 Red. masses --      1.4934                 1.7611                 2.4235
 Frc consts  --      0.9091                 1.1287                 1.6180
 IR Inten    --      4.2468                22.7396                26.1387

                     25                     26                     27
                      A                      A                      A
 Frequencies --   1081.9729              1128.1662              1156.8486
 Red. masses --      1.2155                 1.8946                 2.2253
 Frc consts  --      0.8384                 1.4208                 1.7546
 IR Inten    --      0.3345                 5.8969                35.2599

                     28                     29                     30
                      A                      A                      A
 Frequencies --   1181.0551              1203.2197              1214.4792
 Red. masses --      2.1768                 2.3199                 1.6019
 Frc consts  --      1.7890                 1.9789                 1.3921
 IR Inten    --      6.4465                 6.7379                 4.7667

                     31                     32                     33
                      A                      A                      A
 Frequencies --   1215.9021              1257.4703              1260.0284
 Red. masses --      1.4694                 1.3766                 1.7710
 Frc consts  --      1.2799                 1.2825                 1.6567
 IR Inten    --      0.4955                 2.1381                 0.7528

                     34                     35                     36
                      A                      A                      A
 Frequencies --   1274.7068              1279.5053              1302.1110
 Red. masses --      1.7282                 1.8123                 1.7069
 Frc consts  --      1.6545                 1.7481                 1.7051
 IR Inten    --      6.1942                 1.0835                 1.9150

                     37                     38                     39
                      A                      A                      A
 Frequencies --   1308.1716              1360.0438              1405.2623
 Red. masses --      1.5736                 1.3938                 1.5190
 Frc consts  --      1.5866                 1.5190                 1.7674
 IR Inten    --      0.9508                 7.7651                 1.4325

                     40                     41                     42
                      A                      A                      A
 Frequencies --   1412.4734              1480.6418              1481.3778
 Red. masses --      1.2404                 1.1150                 1.1206
 Frc consts  --      1.4581                 1.4402                 1.4489
 IR Inten    --      3.0811                 1.0937                 3.0991

                     43                     44                     45
                      A                      A                      A
 Frequencies --   1492.9901              1494.5562              1518.6554
 Red. masses --      1.0595                 1.0501                 1.0861
 Frc consts  --      1.3914                 1.3820                 1.4758
 IR Inten    --      6.0271                 3.1294                 0.5503

                     46                     47                     48
                      A                      A                      A
 Frequencies --   2981.4075              3019.0852              3041.4859
 Red. masses --      1.0677                 1.0360                 1.0569
 Frc consts  --      5.5916                 5.5634                 5.7606
 IR Inten    --     55.9084                32.5185                35.6719

                     49                     50                     51
                      A                      A                      A
 Frequencies --   3045.6955              3055.2023              3082.1624
 Red. masses --      1.0575                 1.0943                 1.0918
 Frc consts  --      5.7796                 6.0184                 6.1111
 IR Inten    --     34.1157                43.1048                22.1789

                     52                     53                     54
                      A                      A                      A
 Frequencies --   3082.7596              3091.6620              3092.6424
 Red. masses --      1.0967                 1.0925                 1.1010
 Frc consts  --      6.1405                 6.1525                 6.2046
 IR Inten    --     46.4511                14.9079                18.0275

                     55                     56                     57
                      A                      A                      A
 Frequencies --   3096.4543              3096.7598              3104.5317
 Red. masses --      1.1053                 1.1054                 1.0919
 Frc consts  --      6.2442                 6.2457                 6.2003
 IR Inten    --     43.2393                27.1645                77.6190

 - Thermochemistry -
 -------------------
 Temperature   298.150 Kelvin.  Pressure   1.00000 Atm.
 Atom     1 has atomic number  6 and mass  12.00000

 Molecular mass:   124.08882 amu.
 Principal axes and moments of inertia in atomic units:
                           1         2         3
     Eigenvalues --   670.299111006.978611095.69898
           X            0.99927   0.03780  -0.00552
           Y           -0.03732   0.99688   0.06956
           Z            0.00814  -0.06931   0.99756
 This molecule is an asymmetric top.
 Rotational symmetry number  1.
 Warning -- assumption of classical behavior for rotation
           may cause significant error
 Rotational temperatures (Kelvin)      0.12922     0.08601     0.07905
 Rotational constants (GHZ):           2.69244     1.79223     1.64711
 Zero-point vibrational energy     485591.4 (Joules/Mol)
                                  116.05914 (Kcal/Mol)
 Warning -- explicit consideration of   9 degrees of freedom as
           vibrations may cause significant error
 Vibrational temperatures:    298.54   349.06   396.38   451.58   565.09
          (Kelvin)            588.51   629.17   711.67   858.67   907.87
                             1014.01  1114.51  1184.80  1211.15  1245.92
                             1314.88  1328.11  1375.64  1388.89  1414.05
                             1450.73  1462.44  1500.57  1531.57  1556.72
                             1623.18  1664.45  1699.27  1731.16  1747.36
                             1749.41  1809.22  1812.90  1834.02  1840.92
                             1873.45  1882.17  1956.80  2021.86  2032.23
                             2130.31  2131.37  2148.08  2150.33  2185.01
                             4289.58  4343.79  4376.02  4382.08  4395.75
                             4434.54  4435.40  4448.21  4449.62  4455.11
                             4455.55  4466.73

 Zero-point correction=                           0.184952 (Hartree/Particle)
 Thermal correction to Energy=                    0.192120
 Thermal correction to Enthalpy=                  0.193065
 Thermal correction to Gibbs Free Energy=         0.154065
 Sum of electronic and zero-point Energies=           -387.067809
 Sum of electronic and thermal Energies=              -387.060640
 Sum of electronic and thermal Enthalpies=            -387.059696
 Sum of electronic and thermal Free Energies=         -387.098695

                     E (Thermal)             CV                S
                      KCal/Mol        Cal/Mol-Kelvin    Cal/Mol-Kelvin
 Total                  120.557             30.606             82.081
 Electronic               0.000              0.000              0.000
 Translational            0.889              2.981             40.361
 Rotational               0.889              2.981             28.094
 Vibrational            118.780             24.644             13.625
 Vibration     1          0.641              1.829              2.066
 Vibration     2          0.659              1.775              1.784
 Vibration     3          0.677              1.719              1.561
 Vibration     4          0.702              1.647              1.342
 Vibration     5          0.760              1.486              0.990
 Vibration     6          0.773              1.451              0.930
 Vibration     7          0.798              1.389              0.835
 Vibration     8          0.850              1.262              0.672
 Vibration     9          0.955              1.039              0.455

                           ! Non-Optimized Parameters !
 Normal termination of Gaussian 16 at Thu Aug  4 03:15:11 2022.
