 Gaussian 16, Revision A.03,
 Gaussian 16:  ES64L-G16RevA.03 25-Dec-2016

 -----------------------------
 # opt freq b3lyp/6-31g(2df,p)
 -----------------------------

 -------------------
 Title Card Required
 -------------------
 Symbolic Z-matrix:
 Charge =  0 Multiplicity = 1

 SCF Done:  E(RB3LYP) =  -423.096098869     A.U. after   13 cycles
 SCF Done:  E(RB3LYP) =  -423.118746751     A.U. after   12 cycles
 SCF Done:  E(RB3LYP) =  -423.127850240     A.U. after   11 cycles
 SCF Done:  E(RB3LYP) =  -423.131014492     A.U. after   10 cycles
 SCF Done:  E(RB3LYP) =  -423.133474724     A.U. after   11 cycles
 SCF Done:  E(RB3LYP) =  -423.134755714     A.U. after   10 cycles
 SCF Done:  E(RB3LYP) =  -423.135674065     A.U. after   11 cycles
 SCF Done:  E(RB3LYP) =  -423.135930140     A.U. after   10 cycles
 SCF Done:  E(RB3LYP) =  -423.136171093     A.U. after    9 cycles
 SCF Done:  E(RB3LYP) =  -423.136364919     A.U. after   10 cycles
 SCF Done:  E(RB3LYP) =  -423.138786216     A.U. after   11 cycles
 SCF Done:  E(RB3LYP) =  -423.116644884     A.U. after   12 cycles
 SCF Done:  E(RB3LYP) =  -423.140927067     A.U. after   11 cycles
 SCF Done:  E(RB3LYP) =  -423.105136930     A.U. after   12 cycles
 SCF Done:  E(RB3LYP) =  -423.141457234     A.U. after   10 cycles
 SCF Done:  E(RB3LYP) =  -423.141553420     A.U. after   10 cycles
 SCF Done:  E(RB3LYP) =  -423.141603650     A.U. after   10 cycles
 SCF Done:  E(RB3LYP) =  -423.141608342     A.U. after    8 cycles
 SCF Done:  E(RB3LYP) =  -423.141609219     A.U. after    7 cycles
 Optimization completed.
    -- Stationary point found.
 Normal termination of Gaussian 16 at Thu Aug  4 05:50:34 2022.

 ----------------------------------------------------------------------
 #N Geom=AllCheck Guess=TCheck SCRF=Check GenChk RB3LYP/6-31G(2df,p) Fr
 eq
 ----------------------------------------------------------------------

 Structure from the checkpoint file:  "CC12COCC1C21CO1.chk"
 -------------------
 Title Card Required
 -------------------
 Charge =  0 Multiplicity = 1

                         Standard orientation:
 ---------------------------------------------------------------------
 Center     Atomic      Atomic             Coordinates (Angstroms)
 Number     Number       Type             X           Y           Z
 ---------------------------------------------------------------------
      1          6           0        0.304744    2.251195   -0.147289
      2          6           0       -0.117588    0.817640    0.056224
      3          6           0       -1.331934    0.506501    0.922604
      4          8           0       -1.758312   -0.804282    0.572010
      5          6           0       -1.469580   -1.021990   -0.806450
      6          6           0       -0.211990   -0.221613   -1.093206
      7          6           0        0.852513   -0.293287   -0.069001
      8          6           0        1.656441   -1.224677    0.695347
      9          8           0        2.248627   -0.256479   -0.210253
     10          1           0       -0.506286    2.847311   -0.580265
     11          1           0        1.171193    2.312855   -0.810726
     12          1           0        0.589426    2.715254    0.804009
     13          1           0       -2.120781    1.252810    0.725899
     14          1           0       -1.125122    0.502286    1.998287
     15          1           0       -2.293558   -0.672624   -1.449958
     16          1           0       -1.360015   -2.102708   -0.944010
     17          1           0        0.037395    0.051249   -2.113194
     18          1           0        1.741119   -2.261666    0.375574
     19          1           0        1.848465   -1.041290    1.750957
 ---------------------------------------------------------------------

 SCF Done:  E(RB3LYP) =  -423.141609219     A.U. after    1 cycles

 The electronic state is 1-A.
 Alpha  occ. eigenvalues --  -19.15435 -19.14001 -10.24243 -10.23713 -10.23238
 Alpha  occ. eigenvalues --  -10.23060 -10.20211 -10.19435 -10.18501  -1.07380
 Alpha  occ. eigenvalues --   -1.03843  -0.86133  -0.75094  -0.70316  -0.66655
 Alpha  occ. eigenvalues --   -0.64491  -0.57077  -0.54538  -0.49742  -0.48971
 Alpha  occ. eigenvalues --   -0.48469  -0.45994  -0.44203  -0.41636  -0.40366
 Alpha  occ. eigenvalues --   -0.40184  -0.39545  -0.36384  -0.33597  -0.32378
 Alpha  occ. eigenvalues --   -0.31591  -0.27076  -0.25495  -0.24655
 Alpha virt. eigenvalues --    0.07520   0.09344   0.09907   0.11208   0.12303
 Alpha virt. eigenvalues --    0.13580   0.14361   0.14893   0.15436   0.16125
 Alpha virt. eigenvalues --    0.17428   0.18086   0.19050   0.19588   0.21943

 Mulliken charges:
               1
     1  C   -0.485105
     2  C    0.169207
     3  C   -0.131116
     4  O   -0.253380
     5  C   -0.092383
     6  C   -0.234488
     7  C    0.448519
     8  C   -0.263969
     9  O   -0.284814
    10  H    0.118774
    11  H    0.136674
    12  H    0.124688
    13  H    0.088741
    14  H    0.107950
    15  H    0.093363
    16  H    0.111086
    17  H    0.102011
    18  H    0.122625
    19  H    0.121618
 Sum of Mulliken charges =  -0.00000

 Dipole moment (field-independent basis, Debye):
    X=             -0.6340    Y=              0.4524    Z=             -0.1812  Tot=              0.7996
 Quadrupole moment (field-independent basis, Debye-Ang):
   XX=            -59.7994   YY=            -50.4229   ZZ=            -50.4753
   XY=             -2.9684   XZ=              3.8454   YZ=              0.9679

  Exact polarizability:  76.302  -4.019  79.892   4.785   1.597  70.994
 Approx polarizability: 108.445  -4.046 111.041   4.015   1.171 108.249

                      1                      2                      3
                      A                      A                      A
 Frequencies --    132.3711               177.7799               184.3328
 Red. masses --      4.1829                 1.0807                 2.5099
 Frc consts  --      0.0432                 0.0201                 0.0502
 IR Inten    --      4.1064                 0.0478                 1.4116

                      4                      5                      6
                      A                      A                      A
 Frequencies --    206.6797               241.1945               264.8259
 Red. masses --      2.7776                 2.9294                 2.1721
 Frc consts  --      0.0699                 0.1004                 0.0898
 IR Inten    --      1.1518                 1.6086                 3.3292

                      7                      8                      9
                      A                      A                      A
 Frequencies --    328.2040               431.8160               497.9519
 Red. masses --      3.1226                 2.8148                 3.7825
 Frc consts  --      0.1982                 0.3092                 0.5526
 IR Inten    --      2.4384                 3.8579                 4.9072

                     10                     11                     12
                      A                      A                      A
 Frequencies --    586.7615               624.9338               702.8566
 Red. masses --      4.0052                 3.7647                 3.2038
 Frc consts  --      0.8125                 0.8663                 0.9325
 IR Inten    --      3.5996                 0.9407                 5.0086

                     13                     14                     15
                      A                      A                      A
 Frequencies --    742.5162               879.2103               901.8487
 Red. masses --      5.0333                 3.7700                 1.8984
 Frc consts  --      1.6350                 1.7170                 0.9097
 IR Inten    --     15.6671                14.3006                22.3854

                     16                     17                     18
                      A                      A                      A
 Frequencies --    919.1771               931.6662               954.4118
 Red. masses --      3.1959                 2.7596                 1.6890
 Frc consts  --      1.5909                 1.4113                 0.9065
 IR Inten    --     13.7916                18.3917                10.7510

                     19                     20                     21
                      A                      A                      A
 Frequencies --    996.1618              1015.5614              1037.6952
 Red. masses --      1.6874                 1.4061                 2.1910
 Frc consts  --      0.9866                 0.8544                 1.3900
 IR Inten    --      9.3697                 3.3410                10.5765

                     22                     23                     24
                      A                      A                      A
 Frequencies --   1085.1562              1096.3713              1108.1472
 Red. masses --      1.8990                 2.6301                 1.9772
 Frc consts  --      1.3175                 1.8627                 1.4305
 IR Inten    --      2.8098                27.1991                20.2328

                     25                     26                     27
                      A                      A                      A
 Frequencies --   1112.6147              1147.1525              1165.3628
 Red. masses --      1.7367                 1.9109                 1.5423
 Frc consts  --      1.2667                 1.4816                 1.2341
 IR Inten    --     29.1699                 0.2352                 2.9507

                     28                     29                     30
                      A                      A                      A
 Frequencies --   1212.6683              1248.1404              1256.9152
 Red. masses --      1.2114                 1.6309                 2.2920
 Frc consts  --      1.0496                 1.4970                 2.1335
 IR Inten    --      8.8214                 1.4173                 5.7107

                     31                     32                     33
                      A                      A                      A
 Frequencies --   1262.7116              1291.3273              1361.2590
 Red. masses --      1.9963                 2.0086                 1.3818
 Frc consts  --      1.8753                 1.9734                 1.5086
 IR Inten    --      5.7015                 6.0888                 0.6339

                     34                     35                     36
                      A                      A                      A
 Frequencies --   1397.0739              1417.8277              1487.3160
 Red. masses --      1.4824                 1.2463                 1.0571
 Frc consts  --      1.7047                 1.4761                 1.3777
 IR Inten    --     17.4484                 2.4097                 5.7269

                     37                     38                     39
                      A                      A                      A
 Frequencies --   1491.5456              1502.2270              1509.8983
 Red. masses --      1.1189                 1.0986                 1.0842
 Frc consts  --      1.4666                 1.4608                 1.4563
 IR Inten    --      0.4538                 3.8974                 0.5695

                     40                     41                     42
                      A                      A                      A
 Frequencies --   1521.7482              1614.2697              2957.0786
 Red. masses --      1.0962                 5.9111                 1.0703
 Frc consts  --      1.4956                 9.0755                 5.5140
 IR Inten    --      0.5160                22.5490                70.4805

                     43                     44                     45
                      A                      A                      A
 Frequencies --   2972.0243              3028.3670              3063.1118
 Red. masses --      1.0709                 1.0369                 1.0910
 Frc consts  --      5.5730                 5.6030                 6.0310
 IR Inten    --     89.6217                35.7184                32.0041

                     46                     47                     48
                      A                      A                      A
 Frequencies --   3068.6893              3085.5889              3090.0788
 Red. masses --      1.0929                 1.1009                 1.0507
 Frc consts  --      6.0636                 6.1755                 5.9112
 IR Inten    --     28.3585                22.8972                26.1785

                     49                     50                     51
                      A                      A                      A
 Frequencies --   3116.7119              3173.5958              3178.7670
 Red. masses --      1.0994                 1.0904                 1.1195
 Frc consts  --      6.2920                 6.4707                 6.6647
 IR Inten    --     12.5111                 6.1262                16.2148

 - Thermochemistry -
 -------------------
 Temperature   298.150 Kelvin.  Pressure   1.00000 Atm.
 Atom     1 has atomic number  6 and mass  12.00000

 Molecular mass:   126.06808 amu.
 Principal axes and moments of inertia in atomic units:
                           1         2         3
     Eigenvalues --   752.165181085.171471399.50425
           X            0.99950  -0.02022   0.02427
           Y            0.02004   0.99977   0.00782
           Z           -0.02443  -0.00733   0.99967
 This molecule is an asymmetric top.
 Rotational symmetry number  1.
 Warning -- assumption of classical behavior for rotation
           may cause significant error
 Rotational temperatures (Kelvin)      0.11515     0.07982     0.06189
 Rotational constants (GHZ):           2.39939     1.66309     1.28956
 Zero-point vibrational energy     417387.3 (Joules/Mol)
                                   99.75795 (Kcal/Mol)
 Warning -- explicit consideration of  10 degrees of freedom as
           vibrations may cause significant error
 Vibrational temperatures:    190.45   255.79   265.21   297.37   347.03
          (Kelvin)            381.03   472.21   621.29   716.44   844.22
                              899.14  1011.25  1068.32  1264.99  1297.56
                             1322.49  1340.46  1373.19  1433.25  1461.17
                             1493.01  1561.30  1577.43  1594.38  1600.80
                             1650.50  1676.70  1744.76  1795.80  1808.42
                             1816.76  1857.93  1958.55  2010.08  2039.94
                             2139.92  2146.00  2161.37  2172.41  2189.46
                             2322.57  4254.58  4276.08  4357.14  4407.13
                             4415.16  4439.47  4445.93  4484.25  4566.10
                             4573.54

 Zero-point correction=                           0.158974 (Hartree/Particle)
 Thermal correction to Energy=                    0.167208
 Thermal correction to Enthalpy=                  0.168152
 Thermal correction to Gibbs Free Energy=         0.126455
 Sum of electronic and zero-point Energies=           -422.982635
 Sum of electronic and thermal Energies=              -422.974401
 Sum of electronic and thermal Enthalpies=            -422.973457
 Sum of electronic and thermal Free Energies=         -423.015155

                     E (Thermal)             CV                S
                      KCal/Mol        Cal/Mol-Kelvin    Cal/Mol-Kelvin
 Total                  104.925             31.517             87.761
 Electronic               0.000              0.000              0.000
 Translational            0.889              2.981             40.409
 Rotational               0.889              2.981             28.526
 Vibrational            103.147             25.555             18.826
 Vibration     1          0.612              1.921              2.911
 Vibration     2          0.628              1.870              2.352
 Vibration     3          0.631              1.861              2.284
 Vibration     4          0.641              1.830              2.073
 Vibration     5          0.658              1.777              1.794
 Vibration     6          0.671              1.737              1.630
 Vibration     7          0.711              1.619              1.269
 Vibration     8          0.793              1.401              0.853
 Vibration     9          0.853              1.255              0.663
 Vibration    10          0.944              1.060              0.473

 Optimization completed.
    -- Stationary point found.
 Normal termination of Gaussian 16 at Thu Aug  4 06:21:38 2022.
