 Gaussian 16, Revision A.03,
 Gaussian 16:  ES64L-G16RevA.03 25-Dec-2016

 -----------------------------
 # opt freq b3lyp/6-31g(2df,p)
 -----------------------------

 -------------------
 Title Card Required
 -------------------
 Symbolic Z-matrix:
 Charge =  0 Multiplicity = 1

 SCF Done:  E(RB3LYP) =  -388.482832277     A.U. after   12 cycles
 SCF Done:  E(RB3LYP) =  -388.493941115     A.U. after   10 cycles
 SCF Done:  E(RB3LYP) =  -388.496378523     A.U. after   10 cycles
 SCF Done:  E(RB3LYP) =  -388.497083887     A.U. after   10 cycles
 SCF Done:  E(RB3LYP) =  -388.497403686     A.U. after   10 cycles
 SCF Done:  E(RB3LYP) =  -388.497822215     A.U. after   10 cycles
 SCF Done:  E(RB3LYP) =  -388.498273382     A.U. after   10 cycles
 SCF Done:  E(RB3LYP) =  -388.498161887     A.U. after   10 cycles
 SCF Done:  E(RB3LYP) =  -388.498498303     A.U. after   10 cycles
 SCF Done:  E(RB3LYP) =  -388.498472943     A.U. after    9 cycles
 SCF Done:  E(RB3LYP) =  -388.499421981     A.U. after   11 cycles
 SCF Done:  E(RB3LYP) =  -388.499725395     A.U. after   10 cycles
 SCF Done:  E(RB3LYP) =  -388.499960166     A.U. after   10 cycles
 SCF Done:  E(RB3LYP) =  -388.499996493     A.U. after   10 cycles
 SCF Done:  E(RB3LYP) =  -388.500038817     A.U. after    9 cycles
 SCF Done:  E(RB3LYP) =  -388.500061157     A.U. after    9 cycles
 SCF Done:  E(RB3LYP) =  -388.500063121     A.U. after    8 cycles
 SCF Done:  E(RB3LYP) =  -388.500063906     A.U. after    8 cycles
 SCF Done:  E(RB3LYP) =  -388.500064498     A.U. after    7 cycles
 Optimization completed.
    -- Stationary point found.
 Normal termination of Gaussian 16 at Thu Aug  4 07:00:42 2022.

 ----------------------------------------------------------------------
 #N Geom=AllCheck Guess=TCheck SCRF=Check GenChk RB3LYP/6-31G(2df,p) Fr
 eq
 ----------------------------------------------------------------------

 Structure from the checkpoint file:  "CC12CCCOC1CC2.chk"
 -------------------
 Title Card Required
 -------------------
 Charge =  0 Multiplicity = 1

                         Standard orientation:
 ---------------------------------------------------------------------
 Center     Atomic      Atomic             Coordinates (Angstroms)
 Number     Number       Type             X           Y           Z
 ---------------------------------------------------------------------
      1          6           0        2.078100   -0.916285   -0.798123
      2          6           0        0.903282   -0.333384   -0.021198
      3          6           0       -0.072223   -1.435623    0.419224
      4          6           0       -1.417304   -0.859182    0.875671
      5          6           0       -2.083099   -0.037908   -0.247525
      6          8           0       -1.174177    0.508340   -1.200608
      7          6           0        0.117847    0.816408   -0.738544
      8          6           0        0.313737    1.739589    0.500428
      9          6           0        1.283002    0.684760    1.105791
     10          1           0        1.733677   -1.442101   -1.696278
     11          1           0        2.642364   -1.632612   -0.188439
     12          1           0        2.773978   -0.131759   -1.115782
     13          1           0        0.378605   -2.035515    1.219370
     14          1           0       -0.241251   -2.114467   -0.426782
     15          1           0       -1.265370   -0.237848    1.764869
     16          1           0       -2.097579   -1.661505    1.179507
     17          1           0       -2.700521    0.764174    0.184235
     18          1           0       -2.751911   -0.677226   -0.834239
     19          1           0        0.645905    1.192478   -1.619701
     20          1           0       -0.600152    1.879334    1.081933
     21          1           0        0.733274    2.726512    0.291864
     22          1           0        1.069804    0.367151    2.130283
     23          1           0        2.332540    0.986422    1.059675
 ---------------------------------------------------------------------

 SCF Done:  E(RB3LYP) =  -388.500064498     A.U. after    1 cycles

 The electronic state is 1-A.
 Alpha  occ. eigenvalues --  -19.12977 -10.22194 -10.21935 -10.18308 -10.18111
 Alpha  occ. eigenvalues --  -10.17873 -10.17517 -10.17338 -10.16966  -1.02241
 Alpha  occ. eigenvalues --   -0.83994  -0.77837  -0.72578  -0.68545  -0.64200
 Alpha  occ. eigenvalues --   -0.59910  -0.59083  -0.51742  -0.48700  -0.47058
 Alpha  occ. eigenvalues --   -0.45941  -0.43330  -0.42356  -0.41239  -0.39935
 Alpha  occ. eigenvalues --   -0.38303  -0.36725  -0.36074  -0.34708  -0.33982
 Alpha  occ. eigenvalues --   -0.33169  -0.30763  -0.29784  -0.26645  -0.23035
 Alpha virt. eigenvalues --    0.07896   0.08490   0.10768   0.11663   0.13003
 Alpha virt. eigenvalues --    0.14017   0.14901   0.15755   0.16368   0.17501
 Alpha virt. eigenvalues --    0.18033   0.18245   0.19125   0.19905   0.20129

 Mulliken charges:
               1
     1  C   -0.471873
     2  C    0.320534
     3  C   -0.236087
     4  C   -0.257837
     5  C   -0.059589
     6  O   -0.264635
     7  C    0.117687
     8  C   -0.271588
     9  C   -0.269949
    10  H    0.116491
    11  H    0.110324
    12  H    0.106914
    13  H    0.092222
    14  H    0.098302
    15  H    0.104864
    16  H    0.099570
    17  H    0.090001
    18  H    0.105001
    19  H    0.075144
    20  H    0.105030
    21  H    0.097835
    22  H    0.095096
    23  H    0.096543
 Sum of Mulliken charges =   0.00000

 Dipole moment (field-independent basis, Debye):
    X=              0.2804    Y=             -0.4636    Z=              1.1728  Tot=              1.2919
 Quadrupole moment (field-independent basis, Debye-Ang):
   XX=            -55.1453   YY=            -55.7953   ZZ=            -58.2783
   XY=              1.7767   XZ=             -2.3374   YZ=              0.4408

  Exact polarizability:  91.544   1.647  83.876  -1.564   0.901  76.762
 Approx polarizability: 122.251   2.641 118.282  -0.156   0.619 117.503

                      1                      2                      3
                      A                      A                      A
 Frequencies --    102.7542               160.3890               223.3374
 Red. masses --      2.1626                 2.2467                 1.2323
 Frc consts  --      0.0135                 0.0341                 0.0362
 IR Inten    --      0.9217                 2.0856                 0.3415

                      4                      5                      6
                      A                      A                      A
 Frequencies --    241.3816               263.4212               333.5231
 Red. masses --      2.3274                 1.8126                 2.2460
 Frc consts  --      0.0799                 0.0741                 0.1472
 IR Inten    --      0.4631                 0.4133                 0.1327

                      7                      8                      9
                      A                      A                      A
 Frequencies --    339.2147               406.7779               474.7432
 Red. masses --      2.6018                 2.4698                 2.9786
 Frc consts  --      0.1764                 0.2408                 0.3955
 IR Inten    --      1.2753                 1.6679                 1.3275

                     10                     11                     12
                      A                      A                      A
 Frequencies --    503.9375               600.1593               653.2478
 Red. masses --      3.0233                 3.3295                 2.5141
 Frc consts  --      0.4524                 0.7066                 0.6321
 IR Inten    --      1.1635                 1.6532                 2.1823

                     13                     14                     15
                      A                      A                      A
 Frequencies --    719.8890               773.8217               841.3371
 Red. masses --      1.9072                 1.4175                 2.0718
 Frc consts  --      0.5823                 0.5001                 0.8641
 IR Inten    --      1.8577                 1.2974                 0.2880

                     16                     17                     18
                      A                      A                      A
 Frequencies --    851.6678               887.9881               892.1894
 Red. masses --      1.9063                 2.1404                 2.3374
 Frc consts  --      0.8147                 0.9944                 1.0962
 IR Inten    --      1.3114                 2.5149                 7.3615

                     19                     20                     21
                      A                      A                      A
 Frequencies --    930.5135               950.1207               955.3380
 Red. masses --      1.7709                 2.4802                 2.0995
 Frc consts  --      0.9034                 1.3191                 1.1289
 IR Inten    --      6.6977                 2.1171                 9.1189

                     22                     23                     24
                      A                      A                      A
 Frequencies --    984.9250              1011.0889              1052.6921
 Red. masses --      1.6664                 1.7678                 1.7683
 Frc consts  --      0.9524                 1.0648                 1.1545
 IR Inten    --      0.7977                 7.3709                 7.1724

                     25                     26                     27
                      A                      A                      A
 Frequencies --   1073.3009              1111.9117              1145.3174
 Red. masses --      2.0159                 2.1405                 2.2533
 Frc consts  --      1.3683                 1.5592                 1.7415
 IR Inten    --      6.4074                40.0107                14.8441

                     28                     29                     30
                      A                      A                      A
 Frequencies --   1164.0897              1197.9882              1208.0942
 Red. masses --      2.5208                 2.2598                 1.6045
 Frc consts  --      2.0126                 1.9109                 1.3797
 IR Inten    --     73.1835                 1.1147                 7.1706

                     31                     32                     33
                      A                      A                      A
 Frequencies --   1230.4219              1247.5806              1256.3212
 Red. masses --      1.3593                 1.4098                 1.3766
 Frc consts  --      1.2125                 1.2928                 1.2801
 IR Inten    --      2.4585                18.9341                 3.2527

                     34                     35                     36
                      A                      A                      A
 Frequencies --   1268.8784              1286.1533              1295.2202
 Red. masses --      1.4559                 1.8213                 1.4797
 Frc consts  --      1.3811                 1.7750                 1.4625
 IR Inten    --      6.4046                 5.0862                 3.6794

                     37                     38                     39
                      A                      A                      A
 Frequencies --   1308.0960              1365.8955              1379.3364
 Red. masses --      1.3606                 1.3883                 1.3119
 Frc consts  --      1.3717                 1.5261                 1.4706
 IR Inten    --      6.5562                 0.2364                 0.2558

                     40                     41                     42
                      A                      A                      A
 Frequencies --   1393.1834              1409.8380              1423.0282
 Red. masses --      1.4290                 1.2309                 1.3290
 Frc consts  --      1.6341                 1.4415                 1.5856
 IR Inten    --      3.9581                 2.0158                 7.3727

                     43                     44                     45
                      A                      A                      A
 Frequencies --   1476.1255              1481.3802              1490.4859
 Red. masses --      1.0824                 1.0891                 1.1119
 Frc consts  --      1.3896                 1.4081                 1.4553
 IR Inten    --      0.1801                 2.1321                 5.3251

                     46                     47                     48
                      A                      A                      A
 Frequencies --   1495.0388              1495.5292              1506.7476
 Red. masses --      1.0552                 1.0543                 1.0942
 Frc consts  --      1.3896                 1.3893                 1.4636
 IR Inten    --      5.1507                 5.1743                 5.4850

                     49                     50                     51
                      A                      A                      A
 Frequencies --   1521.4540              2984.6195              3013.1419
 Red. masses --      1.0872                 1.0707                 1.0462
 Frc consts  --      1.4828                 5.6192                 5.5961
 IR Inten    --      1.4329                72.6230                 9.3375

                     52                     53                     54
                      A                      A                      A
 Frequencies --   3017.6860              3039.5439              3050.0987
 Red. masses --      1.0483                 1.0693                 1.0920
 Frc consts  --      5.6243                 5.8204                 5.9857
 IR Inten    --     50.6142                18.3267                16.7807

                     55                     56                     57
                      A                      A                      A
 Frequencies --   3052.6241              3057.0801              3060.0098
 Red. masses --      1.0605                 1.0933                 1.0843
 Frc consts  --      5.8223                 6.0202                 5.9820
 IR Inten    --     32.1728                50.6448                15.7821

                     58                     59                     60
                      A                      A                      A
 Frequencies --   3068.8908              3080.8578              3081.7489
 Red. masses --      1.0639                 1.1004                 1.1026
 Frc consts  --      5.9035                 6.1540                 6.1696
 IR Inten    --     22.6418                33.4283                53.2937

                     61                     62                     63
                      A                      A                      A
 Frequencies --   3087.2777              3097.1781              3120.9058
 Red. masses --      1.1015                 1.1072                 1.1061
 Frc consts  --      6.1855                 6.2574                 6.3474
 IR Inten    --     45.4319                 7.1223                47.4482

 - Thermochemistry -
 -------------------
 Temperature   298.150 Kelvin.  Pressure   1.00000 Atm.
 Atom     1 has atomic number  6 and mass  12.00000

 Molecular mass:   126.10447 amu.
 Principal axes and moments of inertia in atomic units:
                           1         2         3
     Eigenvalues --   776.633991126.725321279.63288
           X            0.99922   0.00741  -0.03883
           Y           -0.00533   0.99856   0.05343
           Z            0.03917  -0.05318   0.99782
 This molecule is an asymmetric top.
 Rotational symmetry number  1.
 Warning -- assumption of classical behavior for rotation
           may cause significant error
 Rotational temperatures (Kelvin)      0.11152     0.07687     0.06769
 Rotational constants (GHZ):           2.32380     1.60176     1.41036
 Zero-point vibrational energy     545482.4 (Joules/Mol)
                                  130.37343 (Kcal/Mol)
 Warning -- explicit consideration of  11 degrees of freedom as
           vibrations may cause significant error
 Vibrational temperatures:    147.84   230.76   321.33   347.29   379.00
          (Kelvin)            479.87   488.05   585.26   683.05   725.05
                              863.50   939.88  1035.76  1113.36  1210.50
                             1225.36  1277.62  1283.66  1338.80  1367.01
                             1374.52  1417.09  1454.73  1514.59  1544.24
                             1599.79  1647.86  1674.87  1723.64  1738.18
                             1770.30  1794.99  1807.57  1825.63  1850.49
                             1863.53  1882.06  1965.22  1984.56  2004.48
                             2028.44  2047.42  2123.82  2131.38  2144.48
                             2151.03  2151.73  2167.87  2189.03  4294.20
                             4335.24  4341.78  4373.23  4388.41  4392.05
                             4398.46  4402.67  4415.45  4432.67  4433.95
                             4441.90  4456.15  4490.29

 Zero-point correction=                           0.207763 (Hartree/Particle)
 Thermal correction to Energy=                    0.216219
 Thermal correction to Enthalpy=                  0.217163
 Thermal correction to Gibbs Free Energy=         0.175219
 Sum of electronic and zero-point Energies=           -388.292301
 Sum of electronic and thermal Energies=              -388.283845
 Sum of electronic and thermal Enthalpies=            -388.282901
 Sum of electronic and thermal Free Energies=         -388.324845

                     E (Thermal)             CV                S
                      KCal/Mol        Cal/Mol-Kelvin    Cal/Mol-Kelvin
 Total                  135.680             34.032             88.279
 Electronic               0.000              0.000              0.000
 Translational            0.889              2.981             40.409
 Rotational               0.889              2.981             28.506
 Vibrational            133.902             28.071             19.363
 Vibration     1          0.605              1.947              3.401
 Vibration     2          0.622              1.891              2.545
 Vibration     3          0.649              1.806              1.932
 Vibration     4          0.658              1.777              1.793
 Vibration     5          0.670              1.740              1.639
 Vibration     6          0.715              1.609              1.243
 Vibration     7          0.719              1.597              1.216
 Vibration     8          0.772              1.455              0.938
 Vibration     9          0.831              1.306              0.724
 Vibration    10          0.859              1.241              0.648
 Vibration    11          0.958              1.031              0.449

 Optimization completed.
    -- Stationary point found.
 Normal termination of Gaussian 16 at Thu Aug  4 07:47:47 2022.
