 Gaussian 16, Revision A.03,
 Gaussian 16:  ES64L-G16RevA.03 25-Dec-2016

 -----------------------------
 # opt freq b3lyp/6-31g(2df,p)
 -----------------------------

 -------------------
 Title Card Required
 -------------------
 Symbolic Z-matrix:
 Charge =  0 Multiplicity = 1

 SCF Done:  E(RB3LYP) =  -384.633239529     A.U. after   12 cycles
 SCF Done:  E(RB3LYP) =  -384.641543766     A.U. after   11 cycles
 SCF Done:  E(RB3LYP) =  -384.643606724     A.U. after   10 cycles
 SCF Done:  E(RB3LYP) =  -384.644798617     A.U. after   11 cycles
 SCF Done:  E(RB3LYP) =  -384.645464893     A.U. after   10 cycles
 SCF Done:  E(RB3LYP) =  -384.645813216     A.U. after   10 cycles
 SCF Done:  E(RB3LYP) =  -384.645894328     A.U. after   10 cycles
 SCF Done:  E(RB3LYP) =  -384.645914275     A.U. after    8 cycles
 SCF Done:  E(RB3LYP) =  -384.645928777     A.U. after    8 cycles
 SCF Done:  E(RB3LYP) =  -384.645972778     A.U. after   10 cycles
 SCF Done:  E(RB3LYP) =  -384.645987211     A.U. after   10 cycles
 SCF Done:  E(RB3LYP) =  -384.645990901     A.U. after    9 cycles
 SCF Done:  E(RB3LYP) =  -384.645991607     A.U. after    7 cycles
 SCF Done:  E(RB3LYP) =  -384.645991826     A.U. after    7 cycles
 SCF Done:  E(RB3LYP) =  -384.645991875     A.U. after    6 cycles
 Optimization completed.
    -- Stationary point found.
 Normal termination of Gaussian 16 at Thu Aug  4 08:32:26 2022.

 ----------------------------------------------------------------------
 #N Geom=AllCheck Guess=TCheck SCRF=Check GenChk RB3LYP/6-31G(2df,p) Fr
 eq
 ----------------------------------------------------------------------

 Structure from the checkpoint file:  "CC1C2CCpNpCN1C2.chk"
 -------------------
 Title Card Required
 -------------------
 Charge =  0 Multiplicity = 1

                         Standard orientation:
 ---------------------------------------------------------------------
 Center     Atomic      Atomic             Coordinates (Angstroms)
 Number     Number       Type             X           Y           Z
 ---------------------------------------------------------------------
      1          6           0        1.860520   -1.499535    0.093712
      2          6           0        1.597960   -0.006895    0.003989
      3          6           0        0.707090    0.770238    1.009391
      4          6           0       -0.574084   -0.006073    1.331335
      5          6           0       -1.251185   -0.627763    0.058949
      6          7           0       -2.675998   -0.310397   -0.112639
      7          6           0       -0.491520   -0.259050   -1.263953
      8          7           0        0.734155    0.537460   -1.116101
      9          6           0        0.431482    1.690728   -0.198705
     10          1           0        2.545210   -1.705051    0.923603
     11          1           0        2.338770   -1.854168   -0.825593
     12          1           0        0.958193   -2.094269    0.254541
     13          1           0        2.565226    0.503777   -0.087347
     14          1           0        1.170421    1.188556    1.909312
     15          1           0       -1.287477    0.675658    1.811476
     16          1           0       -0.362627   -0.794874    2.063441
     17          1           0       -1.214156   -1.716401    0.168713
     18          1           0       -2.795908    0.697994   -0.180958
     19          1           0       -3.195123   -0.595261    0.714570
     20          1           0       -1.173831    0.306455   -1.907642
     21          1           0       -0.242156   -1.173312   -1.811315
     22          1           0       -0.570717    2.118872   -0.307355
     23          1           0        1.175499    2.482686   -0.332571
 ---------------------------------------------------------------------

 SCF Done:  E(RB3LYP) =  -384.645991875     A.U. after    1 cycles

 The electronic state is 1-A.
 Alpha  occ. eigenvalues --  -14.30861 -14.30597 -10.20642 -10.20562 -10.19901
 Alpha  occ. eigenvalues --  -10.19297 -10.18509 -10.17834 -10.17609  -0.94003
 Alpha  occ. eigenvalues --   -0.87538  -0.76192  -0.73906  -0.72899  -0.62859
 Alpha  occ. eigenvalues --   -0.60936  -0.59815  -0.51828  -0.49836  -0.46988
 Alpha  occ. eigenvalues --   -0.45377  -0.44567  -0.43565  -0.41121  -0.39834
 Alpha  occ. eigenvalues --   -0.38392  -0.37236  -0.36655  -0.34568  -0.33976
 Alpha  occ. eigenvalues --   -0.32537  -0.31570  -0.29446  -0.23330  -0.20039
 Alpha virt. eigenvalues --    0.06980   0.09222   0.10472   0.11493   0.12419
 Alpha virt. eigenvalues --    0.13311   0.14173   0.15499   0.16497   0.16542
 Alpha virt. eigenvalues --    0.17124   0.17495   0.18511   0.19423   0.20676

 Mulliken charges:
               1
     1  C   -0.441390
     2  C    0.080627
     3  C   -0.039800
     4  C   -0.236343
     5  C    0.038382
     6  N   -0.521996
     7  C   -0.177478
     8  N   -0.120380
     9  C   -0.177579
    10  H    0.118334
    11  H    0.128851
    12  H    0.123291
    13  H    0.076164
    14  H    0.053491
    15  H    0.086182
    16  H    0.092245
    17  H    0.082656
    18  H    0.218076
    19  H    0.220385
    20  H    0.106448
    21  H    0.103833
    22  H    0.085983
    23  H    0.100017
 Sum of Mulliken charges =  -0.00000

 Dipole moment (field-independent basis, Debye):
    X=              0.0046    Y=              0.1878    Z=              2.1610  Tot=              2.1692
 Quadrupole moment (field-independent basis, Debye-Ang):
   XX=            -56.5753   YY=            -54.5518   ZZ=            -59.2273
   XY=             -2.8357   XZ=             -1.5824   YZ=              0.1205

  Exact polarizability:  92.313  -1.563  83.332   0.969   0.192  77.072
 Approx polarizability: 126.011  -1.964 123.130   1.612  -0.563 116.066

                      1                      2                      3
                      A                      A                      A
 Frequencies --     43.4212               193.6370               214.3401
 Red. masses --      2.7063                 1.1886                 2.2875
 Frc consts  --      0.0030                 0.0263                 0.0619
 IR Inten    --      0.5627                 0.8511                 0.7605

                      4                      5                      6
                      A                      A                      A
 Frequencies --    238.9679               286.9759               344.6316
 Red. masses --      1.8912                 1.2143                 2.1516
 Frc consts  --      0.0636                 0.0589                 0.1506
 IR Inten    --      2.5670                28.5448                 6.5430

                      7                      8                      9
                      A                      A                      A
 Frequencies --    383.5486               400.7742               447.1024
 Red. masses --      2.2864                 2.1444                 2.4874
 Frc consts  --      0.1982                 0.2029                 0.2930
 IR Inten    --      7.0446                 0.9752                 3.6689

                     10                     11                     12
                      A                      A                      A
 Frequencies --    511.2495               524.5217               612.7132
 Red. masses --      3.4028                 2.7182                 3.6605
 Frc consts  --      0.5240                 0.4406                 0.8097
 IR Inten    --      1.7782                 2.0475                 1.8639

                     13                     14                     15
                      A                      A                      A
 Frequencies --    753.2466               766.8714               791.6267
 Red. masses --      3.3880                 2.5101                 2.8091
 Frc consts  --      1.1326                 0.8697                 1.0372
 IR Inten    --      1.9013                 1.2519                13.7019

                     16                     17                     18
                      A                      A                      A
 Frequencies --    845.4894               882.0778               887.6446
 Red. masses --      2.2210                 1.8449                 1.8720
 Frc consts  --      0.9354                 0.8457                 0.8691
 IR Inten    --      3.0249                15.3200               143.5570

                     19                     20                     21
                      A                      A                      A
 Frequencies --    911.1423               940.8390               972.9021
 Red. masses --      2.4428                 2.1807                 2.1143
 Frc consts  --      1.1949                 1.1373                 1.1791
 IR Inten    --      9.2716                 6.2410                 1.7350

                     22                     23                     24
                      A                      A                      A
 Frequencies --    990.8829              1028.5013              1036.7347
 Red. masses --      1.7942                 1.6158                 2.5723
 Frc consts  --      1.0379                 1.0071                 1.6290
 IR Inten    --      1.6685                 7.2014                26.7581

                     25                     26                     27
                      A                      A                      A
 Frequencies --   1066.8904              1090.0782              1115.1878
 Red. masses --      1.7629                 1.4605                 1.6548
 Frc consts  --      1.1823                 1.0225                 1.2126
 IR Inten    --      3.1382                 6.6702                 5.5549

                     28                     29                     30
                      A                      A                      A
 Frequencies --   1131.1997              1163.0186              1177.2197
 Red. masses --      1.8408                 2.3866                 1.3190
 Frc consts  --      1.3879                 1.9020                 1.0770
 IR Inten    --      4.3370                 3.7556                 2.1672

                     31                     32                     33
                      A                      A                      A
 Frequencies --   1215.3059              1241.3701              1263.3651
 Red. masses --      1.7773                 1.7024                 1.8272
 Frc consts  --      1.5466                 1.5457                 1.7183
 IR Inten    --     12.1041                 2.6391                 6.1026

                     34                     35                     36
                      A                      A                      A
 Frequencies --   1274.6457              1285.9877              1314.3439
 Red. masses --      1.3727                 1.4255                 1.2624
 Frc consts  --      1.3141                 1.3890                 1.2848
 IR Inten    --      2.2836                 0.4311                 1.0292

                     37                     38                     39
                      A                      A                      A
 Frequencies --   1318.0396              1348.5503              1355.7923
 Red. masses --      1.3138                 1.3356                 1.3737
 Frc consts  --      1.3448                 1.4311                 1.4877
 IR Inten    --      4.0965                 0.9520                 1.1144

                     40                     41                     42
                      A                      A                      A
 Frequencies --   1376.0074              1403.0565              1415.1783
 Red. masses --      1.4008                 1.2511                 1.3843
 Frc consts  --      1.5627                 1.4510                 1.6335
 IR Inten    --      2.9532                 0.0339                11.5741

                     43                     44                     45
                      A                      A                      A
 Frequencies --   1424.4105              1483.2015              1490.2521
 Red. masses --      1.2613                 1.0703                 1.0817
 Frc consts  --      1.5077                 1.3873                 1.4154
 IR Inten    --      3.9496                 4.7028                 0.8178

                     46                     47                     48
                      A                      A                      A
 Frequencies --   1494.5612              1502.9795              1510.9659
 Red. masses --      1.0545                 1.0569                 1.1168
 Frc consts  --      1.3878                 1.4066                 1.5022
 IR Inten    --      3.0467                 0.3224                 2.5006

                     49                     50                     51
                      A                      A                      A
 Frequencies --   1655.7599              3012.5238              3014.1838
 Red. masses --      1.0883                 1.0836                 1.0623
 Frc consts  --      1.7578                 5.7941                 5.6864
 IR Inten    --     21.6600                25.8317                32.6789

                     52                     53                     54
                      A                      A                      A
 Frequencies --   3030.5907              3031.0355              3037.4196
 Red. masses --      1.0610                 1.0829                 1.0394
 Frc consts  --      5.7412                 5.8619                 5.6499
 IR Inten    --     25.3991                26.9872                21.6285

                     55                     56                     57
                      A                      A                      A
 Frequencies --   3041.5230              3048.4826              3057.3077
 Red. masses --      1.0678                 1.0778                 1.1003
 Frc consts  --      5.8199                 5.9013                 6.0598
 IR Inten    --     96.0083                32.6433                36.8540

                     58                     59                     60
                      A                      A                      A
 Frequencies --   3081.3474              3086.3122              3098.4013
 Red. masses --      1.1063                 1.1078                 1.1005
 Frc consts  --      6.1887                 6.2172                 6.2247
 IR Inten    --     33.6179                51.4038                18.1682

                     61                     62                     63
                      A                      A                      A
 Frequencies --   3120.8841              3463.8114              3543.4724
 Red. masses --      1.0989                 1.0488                 1.0920
 Frc consts  --      6.3061                 7.4142                 8.0785
 IR Inten    --     29.7862                 1.1992                 0.5306

 - Thermochemistry -
 -------------------
 Temperature   298.150 Kelvin.  Pressure   1.00000 Atm.
 Atom     1 has atomic number  6 and mass  12.00000

 Molecular mass:   126.11570 amu.
 Principal axes and moments of inertia in atomic units:
                           1         2         3
     Eigenvalues --   715.238661253.947531315.65899
           X            0.99948  -0.03235  -0.00026
           Y            0.03235   0.99919   0.02393
           Z           -0.00052  -0.02393   0.99971
 This molecule is an asymmetric top.
 Rotational symmetry number  1.
 Warning -- assumption of classical behavior for rotation
           may cause significant error
 Rotational temperatures (Kelvin)      0.12110     0.06907     0.06583
 Rotational constants (GHZ):           2.52327     1.43925     1.37174
 Zero-point vibrational energy     549053.1 (Joules/Mol)
                                  131.22683 (Kcal/Mol)
 Warning -- explicit consideration of  12 degrees of freedom as
           vibrations may cause significant error
 Vibrational temperatures:     62.47   278.60   308.39   343.82   412.89
          (Kelvin)            495.85   551.84   576.62   643.28   735.57
                              754.67   881.56  1083.75  1103.36  1138.97
                             1216.47  1269.11  1277.12  1310.93  1353.66
                             1399.79  1425.66  1479.78  1491.63  1535.02
                             1568.38  1604.51  1627.54  1673.32  1693.76
                             1748.55  1786.05  1817.70  1833.93  1850.25
                             1891.05  1896.37  1940.26  1950.68  1979.77
                             2018.69  2036.13  2049.41  2134.00  2144.14
                             2150.34  2162.45  2173.94  2382.27  4334.35
                             4336.74  4360.34  4360.98  4370.17  4376.07
                             4386.09  4398.78  4433.37  4440.51  4457.91
                             4490.26  4983.65  5098.27

 Zero-point correction=                           0.209123 (Hartree/Particle)
 Thermal correction to Energy=                    0.217682
 Thermal correction to Enthalpy=                  0.218626
 Thermal correction to Gibbs Free Energy=         0.175992
 Sum of electronic and zero-point Energies=           -384.436869
 Sum of electronic and thermal Energies=              -384.428310
 Sum of electronic and thermal Enthalpies=            -384.427366
 Sum of electronic and thermal Free Energies=         -384.470000

                     E (Thermal)             CV                S
                      KCal/Mol        Cal/Mol-Kelvin    Cal/Mol-Kelvin
 Total                  136.597             34.376             89.731
 Electronic               0.000              0.000              0.000
 Translational            0.889              2.981             40.410
 Rotational               0.889              2.981             28.558
 Vibrational            134.820             28.414             20.763
 Vibration     1          0.595              1.980              5.097
 Vibration     2          0.635              1.849              2.193
 Vibration     3          0.644              1.819              2.006
 Vibration     4          0.657              1.781              1.811
 Vibration     5          0.684              1.698              1.492
 Vibration     6          0.723              1.586              1.191
 Vibration     7          0.753              1.505              1.025
 Vibration     8          0.767              1.468              0.960
 Vibration     9          0.806              1.367              0.805
 Vibration    10          0.866              1.225              0.631
 Vibration    11          0.879              1.196              0.600
 Vibration    12          0.972              1.005              0.428

 Optimization completed.
    -- Stationary point found.
 Normal termination of Gaussian 16 at Thu Aug  4 09:16:49 2022.
