 Gaussian 16, Revision A.03,
 Gaussian 16:  ES64L-G16RevA.03 25-Dec-2016

 -----------------------------
 # opt freq b3lyp/6-31g(2df,p)
 -----------------------------

 -------------------
 Title Card Required
 -------------------
 Symbolic Z-matrix:
 Charge =  0 Multiplicity = 1

 SCF Done:  E(RB3LYP) =  -421.729541666     A.U. after   13 cycles
 SCF Done:  E(RB3LYP) =  -421.737746822     A.U. after   11 cycles
 SCF Done:  E(RB3LYP) =  -421.739202502     A.U. after   10 cycles
 SCF Done:  E(RB3LYP) =  -421.739624475     A.U. after   10 cycles
 SCF Done:  E(RB3LYP) =  -421.739684296     A.U. after   10 cycles
 SCF Done:  E(RB3LYP) =  -421.739710762     A.U. after    9 cycles
 SCF Done:  E(RB3LYP) =  -421.739719808     A.U. after    8 cycles
 SCF Done:  E(RB3LYP) =  -421.739722954     A.U. after    8 cycles
 SCF Done:  E(RB3LYP) =  -421.739725354     A.U. after    7 cycles
 SCF Done:  E(RB3LYP) =  -421.739726338     A.U. after    8 cycles
 SCF Done:  E(RB3LYP) =  -421.739726537     A.U. after    7 cycles
 Optimization completed.
    -- Stationary point found.
 Normal termination of Gaussian 16 at Thu Aug  4 00:24:39 2022.

 ----------------------------------------------------------------------
 #N Geom=AllCheck Guess=TCheck SCRF=Check GenChk RB3LYP/6-31G(2df,p) Fr
 eq
 ----------------------------------------------------------------------

 Structure from the checkpoint file:  "CC1CCONCCN1.chk"
 -------------------
 Title Card Required
 -------------------
 Charge =  0 Multiplicity = 1

                         Standard orientation:
 ---------------------------------------------------------------------
 Center     Atomic      Atomic             Coordinates (Angstroms)
 Number     Number       Type             X           Y           Z
 ---------------------------------------------------------------------
      1          6           0       -2.786416   -0.091897   -0.561150
      2          6           0       -1.279966   -0.018700   -0.290408
      3          6           0       -0.930742    1.287925    0.452057
      4          6           0        0.572538    1.563357    0.605148
      5          8           0        1.318907    1.216455   -0.571526
      6          7           0        2.186631    0.099078   -0.443816
      7          6           0        1.514906   -1.202737   -0.445880
      8          6           0        0.512014   -1.549925    0.675179
      9          7           0       -0.884015   -1.277784    0.341373
     10          1           0       -3.128362    0.777333   -1.130070
     11          1           0       -3.353675   -0.115819    0.378378
     12          1           0       -3.027186   -0.997707   -1.123197
     13          1           0       -0.767141    0.031341   -1.256716
     14          1           0       -1.400104    1.300545    1.445848
     15          1           0       -1.377741    2.116325   -0.111621
     16          1           0        0.992425    1.042955    1.472231
     17          1           0        0.734149    2.636772    0.766887
     18          1           0        2.683574    0.221920    0.439333
     19          1           0        2.345767   -1.916793   -0.392251
     20          1           0        1.044538   -1.345567   -1.423610
     21          1           0        0.860810   -1.071160    1.608711
     22          1           0        0.580676   -2.630589    0.857101
     23          1           0       -1.471306   -1.458383    1.148621
 ---------------------------------------------------------------------

 SCF Done:  E(RB3LYP) =  -421.739726537     A.U. after    1 cycles

 The electronic state is 1-A.
 Alpha  occ. eigenvalues --  -19.15566 -14.35984 -14.30712 -10.22480 -10.20683
 Alpha  occ. eigenvalues --  -10.20646 -10.20545 -10.17692 -10.17048  -1.05387
 Alpha  occ. eigenvalues --   -0.89891  -0.84473  -0.76414  -0.73733  -0.68098
 Alpha  occ. eigenvalues --   -0.62666  -0.61156  -0.56516  -0.51230  -0.48711
 Alpha  occ. eigenvalues --   -0.47911  -0.45934  -0.44384  -0.42688  -0.40880
 Alpha  occ. eigenvalues --   -0.40072  -0.39233  -0.37706  -0.36200  -0.34792
 Alpha  occ. eigenvalues --   -0.34112  -0.33213  -0.31675  -0.26537  -0.22430
 Alpha  occ. eigenvalues --   -0.21034
 Alpha virt. eigenvalues --    0.06795   0.09020   0.09948   0.10965   0.11951
 Alpha virt. eigenvalues --    0.12331   0.13317   0.14994   0.15550   0.16747
 Alpha virt. eigenvalues --    0.17619   0.18991   0.19087   0.20753   0.21262

 Mulliken charges:
               1
     1  C   -0.398587
     2  C    0.062999
     3  C   -0.201941
     4  C   -0.076597
     5  O   -0.266603
     6  N   -0.187972
     7  C   -0.128569
     8  C   -0.163422
     9  N   -0.294272
    10  H    0.114183
    11  H    0.104187
    12  H    0.121877
    13  H    0.099945
    14  H    0.084169
    15  H    0.101990
    16  H    0.092027
    17  H    0.102961
    18  H    0.217507
    19  H    0.109470
    20  H    0.130288
    21  H    0.070578
    22  H    0.098730
    23  H    0.207052
 Sum of Mulliken charges =   0.00000

 Dipole moment (field-independent basis, Debye):
    X=             -0.7002    Y=             -0.4866    Z=              2.5216  Tot=              2.6619
 Quadrupole moment (field-independent basis, Debye-Ang):
   XX=            -57.2803   YY=            -56.2825   ZZ=            -55.8644
   XY=             -3.5646   XZ=              3.5797   YZ=              0.9096

  Exact polarizability:  91.184  -4.732  85.967   1.998   0.646  70.804
 Approx polarizability: 117.906  -5.567 120.519   0.960  -1.995 112.293

                      1                      2                      3
                      A                      A                      A
 Frequencies --     92.9828               132.9962               195.8886
 Red. masses --      2.2385                 3.1573                 3.1111
 Frc consts  --      0.0114                 0.0329                 0.0703
 IR Inten    --      1.8094                 3.2382                 2.5444

                      4                      5                      6
                      A                      A                      A
 Frequencies --    226.8138               233.2365               292.4447
 Red. masses --      2.3636                 1.1792                 2.4267
 Frc consts  --      0.0716                 0.0378                 0.1223
 IR Inten    --      1.2383                 0.2658                 2.0389

                      7                      8                      9
                      A                      A                      A
 Frequencies --    324.4632               348.5943               411.4540
 Red. masses --      3.2178                 2.3100                 2.2817
 Frc consts  --      0.1996                 0.1654                 0.2276
 IR Inten    --      1.2953                 0.5250                 1.1042

                     10                     11                     12
                      A                      A                      A
 Frequencies --    426.6803               487.0636               566.0809
 Red. masses --      2.1759                 2.3498                 1.9095
 Frc consts  --      0.2334                 0.3284                 0.3605
 IR Inten    --      1.4371                24.3082                16.2078

                     13                     14                     15
                      A                      A                      A
 Frequencies --    585.0416               660.3488               746.6171
 Red. masses --      3.8329                 1.8054                 2.7863
 Frc consts  --      0.7729                 0.4638                 0.9151
 IR Inten    --      1.7919                59.5168                52.8563

                     16                     17                     18
                      A                      A                      A
 Frequencies --    776.5554               836.6260               866.4010
 Red. masses --      1.6933                 2.1375                 1.7802
 Frc consts  --      0.6016                 0.8815                 0.7873
 IR Inten    --      4.4943                16.1881                 7.1129

                     19                     20                     21
                      A                      A                      A
 Frequencies --    890.0381               946.3177               968.2886
 Red. masses --      1.7758                 2.0382                 1.7990
 Frc consts  --      0.8288                 1.0754                 0.9938
 IR Inten    --     12.4664                 2.5681                11.7784

                     22                     23                     24
                      A                      A                      A
 Frequencies --    993.7587              1019.0967              1041.8673
 Red. masses --      2.1772                 1.9773                 3.0208
 Frc consts  --      1.2668                 1.2099                 1.9320
 IR Inten    --      6.2633                 1.5013                 8.2719

                     25                     26                     27
                      A                      A                      A
 Frequencies --   1076.2343              1113.4618              1124.2437
 Red. masses --      2.7647                 2.6704                 2.1700
 Frc consts  --      1.8868                 1.9506                 1.6160
 IR Inten    --     46.3074                 9.0096                 3.1459

                     28                     29                     30
                      A                      A                      A
 Frequencies --   1139.0827              1151.9014              1204.0815
 Red. masses --      2.2185                 2.1715                 2.6259
 Frc consts  --      1.6960                 1.6976                 2.2431
 IR Inten    --     26.2993                 1.3448                41.6441

                     31                     32                     33
                      A                      A                      A
 Frequencies --   1244.4698              1253.3905              1280.5678
 Red. masses --      1.3161                 1.2115                 1.2107
 Frc consts  --      1.2009                 1.1214                 1.1697
 IR Inten    --     14.6676                 7.4370                11.6129

                     34                     35                     36
                      A                      A                      A
 Frequencies --   1314.1808              1327.2566              1368.4745
 Red. masses --      1.2128                 1.2093                 1.2747
 Frc consts  --      1.2341                 1.2552                 1.4065
 IR Inten    --      1.4719                 5.2188                 5.3130

                     37                     38                     39
                      A                      A                      A
 Frequencies --   1378.4358              1380.1331              1399.7312
 Red. masses --      1.2738                 1.4073                 1.3149
 Frc consts  --      1.4260                 1.5794                 1.5178
 IR Inten    --      5.4095                 8.6065                 3.3689

                     40                     41                     42
                      A                      A                      A
 Frequencies --   1402.8670              1413.5858              1461.8502
 Red. masses --      1.2511                 1.2583                 1.0810
 Frc consts  --      1.4507                 1.4814                 1.3610
 IR Inten    --      7.6525                29.1816                 5.7362

                     43                     44                     45
                      A                      A                      A
 Frequencies --   1471.2238              1486.5855              1488.5439
 Red. masses --      1.0899                 1.0857                 1.0698
 Frc consts  --      1.3899                 1.4136                 1.3966
 IR Inten    --      0.9478                 0.8189                 5.2793

                     46                     47                     48
                      A                      A                      A
 Frequencies --   1499.7884              1510.4280              1518.0692
 Red. masses --      1.0537                 1.1253                 1.1722
 Frc consts  --      1.3965                 1.5126                 1.5916
 IR Inten    --      5.9926                 2.4959                 6.2184

                     49                     50                     51
                      A                      A                      A
 Frequencies --   1526.5216              2920.6348              3006.1713
 Red. masses --      1.1340                 1.0742                 1.0600
 Frc consts  --      1.5570                 5.3986                 5.6442
 IR Inten    --      7.0020                76.4554                16.7350

                     52                     53                     54
                      A                      A                      A
 Frequencies --   3014.7668              3021.1454              3024.2490
 Red. masses --      1.0830                 1.0578                 1.0481
 Frc consts  --      5.7992                 5.6886                 5.6479
 IR Inten    --     31.7792                63.5939                38.4529

                     55                     56                     57
                      A                      A                      A
 Frequencies --   3041.3161              3043.3146              3056.7948
 Red. masses --      1.0810                 1.0796                 1.0861
 Frc consts  --      5.8912                 5.8914                 5.9794
 IR Inten    --      9.8439                31.0444                16.5017

                     58                     59                     60
                      A                      A                      A
 Frequencies --   3074.0963              3091.6173              3096.3966
 Red. masses --      1.1025                 1.0990                 1.0943
 Frc consts  --      6.1387                 6.1892                 6.1814
 IR Inten    --     40.7748                 8.3568                54.3666

                     61                     62                     63
                      A                      A                      A
 Frequencies --   3123.4788              3429.5353              3519.0630
 Red. masses --      1.1023                 1.0745                 1.0735
 Frc consts  --      6.3363                 7.4460                 7.8325
 IR Inten    --     22.6470                 4.8258                 0.2423

 - Thermochemistry -
 -------------------
 Temperature   298.150 Kelvin.  Pressure   1.00000 Atm.
 Atom     1 has atomic number  6 and mass  12.00000

 Molecular mass:   130.11061 amu.
 Principal axes and moments of inertia in atomic units:
                           1         2         3
     Eigenvalues --   781.698271294.626231753.79117
           X            0.99880  -0.04468   0.02017
           Y            0.04433   0.99886   0.01781
           Z           -0.02094  -0.01690   0.99964
 This molecule is an asymmetric top.
 Rotational symmetry number  1.
 Warning -- assumption of classical behavior for rotation
           may cause significant error
 Rotational temperatures (Kelvin)      0.11080     0.06690     0.04939
 Rotational constants (GHZ):           2.30874     1.39402     1.02905
 Zero-point vibrational energy     544703.7 (Joules/Mol)
                                  130.18731 (Kcal/Mol)
 Warning -- explicit consideration of  13 degrees of freedom as
           vibrations may cause significant error
 Vibrational temperatures:    133.78   191.35   281.84   326.33   335.58
          (Kelvin)            420.76   466.83   501.55   591.99   613.90
                              700.78   814.46   841.74   950.09  1074.22
                             1117.29  1203.72  1246.56  1280.57  1361.54
                             1393.15  1429.80  1466.25  1499.01  1548.46
                             1602.02  1617.54  1638.89  1657.33  1732.40
                             1790.51  1803.35  1842.45  1890.81  1909.63
                             1968.93  1983.26  1985.70  2013.90  2018.41
                             2033.83  2103.28  2116.76  2138.87  2141.68
                             2157.86  2173.17  2184.16  2196.32  4202.14
                             4325.21  4337.58  4346.75  4351.22  4375.78
                             4378.65  4398.05  4422.94  4448.15  4455.02
                             4493.99  4934.34  5063.15

 Zero-point correction=                           0.207467 (Hartree/Particle)
 Thermal correction to Energy=                    0.216631
 Thermal correction to Enthalpy=                  0.217575
 Thermal correction to Gibbs Free Energy=         0.173969
 Sum of electronic and zero-point Energies=           -421.532260
 Sum of electronic and thermal Energies=              -421.523096
 Sum of electronic and thermal Enthalpies=            -421.522151
 Sum of electronic and thermal Free Energies=         -421.565757

                     E (Thermal)             CV                S
                      KCal/Mol        Cal/Mol-Kelvin    Cal/Mol-Kelvin
 Total                  135.938             35.962             91.776
 Electronic               0.000              0.000              0.000
 Translational            0.889              2.981             40.503
 Rotational               0.889              2.981             28.964
 Vibrational            134.161             30.000             22.310
 Vibration     1          0.602              1.954              3.596
 Vibration     2          0.613              1.920              2.902
 Vibration     3          0.636              1.846              2.171
 Vibration     4          0.650              1.800              1.904
 Vibration     5          0.654              1.790              1.854
 Vibration     6          0.688              1.688              1.460
 Vibration     7          0.709              1.627              1.288
 Vibration     8          0.726              1.578              1.173
 Vibration     9          0.775              1.445              0.921
 Vibration    10          0.788              1.412              0.870
 Vibration    11          0.843              1.279              0.691
 Vibration    12          0.922              1.105              0.512
 Vibration    13          0.942              1.064              0.476

 Optimization completed.
    -- Stationary point found.
 Normal termination of Gaussian 16 at Thu Aug  4 01:10:53 2022.
