 Gaussian 16, Revision A.03,
 Gaussian 16:  ES64L-G16RevA.03 25-Dec-2016

 -----------------------------
 # opt freq b3lyp/6-31g(2df,p)
 -----------------------------

 -------------------
 Title Card Required
 -------------------
 Symbolic Z-matrix:
 Charge =  0 Multiplicity = 1

 SCF Done:  E(RB3LYP) =  -387.011728611     A.U. after   14 cycles
 SCF Done:  E(RB3LYP) =  -387.059829493     A.U. after   11 cycles
 SCF Done:  E(RB3LYP) =  -387.125883914     A.U. after   12 cycles
 SCF Done:  E(RB3LYP) =  -387.184552042     A.U. after   12 cycles
 SCF Done:  E(RB3LYP) =  -387.219210080     A.U. after   11 cycles
 SCF Done:  E(RB3LYP) =  -387.243417198     A.U. after   11 cycles
 SCF Done:  E(RB3LYP) =  -387.252521440     A.U. after   10 cycles
 SCF Done:  E(RB3LYP) =  -387.255665201     A.U. after   10 cycles
 SCF Done:  E(RB3LYP) =  -387.257239792     A.U. after   10 cycles
 SCF Done:  E(RB3LYP) =  -387.257737236     A.U. after   10 cycles
 SCF Done:  E(RB3LYP) =  -387.258075661     A.U. after   10 cycles
 SCF Done:  E(RB3LYP) =  -387.258229910     A.U. after   10 cycles
 SCF Done:  E(RB3LYP) =  -387.258265919     A.U. after    9 cycles
 SCF Done:  E(RB3LYP) =  -387.258269820     A.U. after    7 cycles
 SCF Done:  E(RB3LYP) =  -387.258270009     A.U. after    6 cycles
 Optimization completed.
    -- Stationary point found.
 Normal termination of Gaussian 16 at Thu Aug  4 12:36:40 2022.

 ----------------------------------------------------------------------
 #N Geom=AllCheck Guess=TCheck SCRF=Check GenChk RB3LYP/6-31G(2df,p) Fr
 eq
 ----------------------------------------------------------------------

 Structure from the checkpoint file:  "CC1C2CC2C2COC12.chk"
 -------------------
 Title Card Required
 -------------------
 Charge =  0 Multiplicity = 1

                         Standard orientation:
 ---------------------------------------------------------------------
 Center     Atomic      Atomic             Coordinates (Angstroms)
 Number     Number       Type             X           Y           Z
 ---------------------------------------------------------------------
      1          6           0        2.014277    1.496947    0.223539
      2          6           0        0.807798    0.804180   -0.420234
      3          6           0        1.030407   -0.671990   -0.764842
      4          6           0        1.342140   -1.621174    0.368466
      5          6           0       -0.065682   -1.526625   -0.159755
      6          6           0       -1.003559   -0.633858    0.625184
      7          6           0       -2.245153   -0.111155   -0.123800
      8          8           0       -1.650174    1.188911   -0.307291
      9          6           0       -0.471619    0.818538    0.450393
     10          1           0        2.890819    1.445092   -0.430155
     11          1           0        2.288158    1.032019    1.176572
     12          1           0        1.801775    2.553748    0.416425
     13          1           0        0.549519    1.340992   -1.339995
     14          1           0        1.438222   -0.909984   -1.741367
     15          1           0        1.549679   -1.215482    1.354690
     16          1           0        1.911327   -2.513923    0.133684
     17          1           0       -0.480963   -2.373926   -0.696077
     18          1           0       -1.189040   -0.981969    1.644201
     19          1           0       -3.161739   -0.056581    0.477459
     20          1           0       -2.473924   -0.601069   -1.078991
     21          1           0       -0.374094    1.440621    1.348182
 ---------------------------------------------------------------------

 SCF Done:  E(RB3LYP) =  -387.258270009     A.U. after    1 cycles

 The electronic state is 1-A.
 Alpha  occ. eigenvalues --  -19.12451 -10.22587 -10.22351 -10.18884 -10.18848
 Alpha  occ. eigenvalues --  -10.18711 -10.18348 -10.18334 -10.17217  -1.03036
 Alpha  occ. eigenvalues --   -0.87389  -0.76659  -0.73597  -0.67982  -0.63375
 Alpha  occ. eigenvalues --   -0.59648  -0.54950  -0.53457  -0.50868  -0.48946
 Alpha  occ. eigenvalues --   -0.44962  -0.43845  -0.42451  -0.40405  -0.39931
 Alpha  occ. eigenvalues --   -0.38857  -0.36270  -0.33974  -0.33449  -0.32046
 Alpha  occ. eigenvalues --   -0.29755  -0.27621  -0.26780  -0.24065
 Alpha virt. eigenvalues --    0.07437   0.09529   0.09714   0.10821   0.13345
 Alpha virt. eigenvalues --    0.13581   0.14882   0.15584   0.16280   0.16945
 Alpha virt. eigenvalues --    0.17768   0.18251   0.18330   0.19048   0.21254

 Mulliken charges:
               1
     1  C   -0.407331
     2  C   -0.007432
     3  C   -0.034215
     4  C   -0.302013
     5  C   -0.046924
     6  C   -0.091244
     7  C   -0.088958
     8  O   -0.292588
     9  C    0.120773
    10  H    0.114377
    11  H    0.113272
    12  H    0.115714
    13  H    0.090097
    14  H    0.081190
    15  H    0.107516
    16  H    0.110515
    17  H    0.083089
    18  H    0.075335
    19  H    0.095207
    20  H    0.096797
    21  H    0.066825
 Sum of Mulliken charges =   0.00000

 Dipole moment (field-independent basis, Debye):
    X=              0.6760    Y=             -1.3983    Z=              0.4826  Tot=              1.6264
 Quadrupole moment (field-independent basis, Debye-Ang):
   XX=            -55.1600   YY=            -55.8973   ZZ=            -53.4780
   XY=              3.0319   XZ=             -1.4479   YZ=              1.6986

  Exact polarizability:  90.237   2.421  81.183  -0.034   1.214  71.128
 Approx polarizability: 120.263   2.259 115.668   1.271  -1.039 111.843

                      1                      2                      3
                      A                      A                      A
 Frequencies --     65.0991               187.8044               218.0046
 Red. masses --      3.2569                 2.3798                 1.1426
 Frc consts  --      0.0081                 0.0495                 0.0320
 IR Inten    --      2.3976                 0.4157                 0.1796

                      4                      5                      6
                      A                      A                      A
 Frequencies --    262.1987               277.0410               337.9632
 Red. masses --      2.4494                 2.4016                 3.2927
 Frc consts  --      0.0992                 0.1086                 0.2216
 IR Inten    --      0.3338                 0.7077                 2.0555

                      7                      8                      9
                      A                      A                      A
 Frequencies --    414.4624               499.0546               627.4850
 Red. masses --      3.1053                 3.0969                 3.8868
 Frc consts  --      0.3143                 0.4544                 0.9017
 IR Inten    --      0.0877                 1.2463                 0.8148

                     10                     11                     12
                      A                      A                      A
 Frequencies --    660.7964               754.2689               806.6333
 Red. masses --      3.0546                 1.9178                 1.9348
 Frc consts  --      0.7858                 0.6428                 0.7417
 IR Inten    --      1.6750                 4.6670                 3.6322

                     13                     14                     15
                      A                      A                      A
 Frequencies --    823.4441               856.4328               879.9398
 Red. masses --      1.9920                 1.7537                 3.7256
 Frc consts  --      0.7958                 0.7579                 1.6996
 IR Inten    --      8.7093                 3.3458                 7.0328

                     16                     17                     18
                      A                      A                      A
 Frequencies --    909.5695               926.7384               962.4822
 Red. masses --      1.8826                 2.0507                 2.4676
 Frc consts  --      0.9176                 1.0377                 1.3468
 IR Inten    --      6.2988                 2.4849                 2.3690

                     19                     20                     21
                      A                      A                      A
 Frequencies --    995.0485               998.5513              1028.4850
 Red. masses --      1.5965                 2.3551                 6.2154
 Frc consts  --      0.9313                 1.3835                 3.8736
 IR Inten    --      3.0875                14.5661                85.4169

                     22                     23                     24
                      A                      A                      A
 Frequencies --   1045.8265              1063.6499              1073.8808
 Red. masses --      1.9048                 1.5144                 1.4700
 Frc consts  --      1.2275                 1.0095                 0.9988
 IR Inten    --     19.4358                 2.8648                 2.4964

                     25                     26                     27
                      A                      A                      A
 Frequencies --   1078.3514              1108.4925              1123.4316
 Red. masses --      2.1789                 1.2442                 2.0943
 Frc consts  --      1.4928                 0.9008                 1.5574
 IR Inten    --      5.8036                 1.2805                 0.4391

                     28                     29                     30
                      A                      A                      A
 Frequencies --   1137.2819              1141.2558              1167.4829
 Red. masses --      1.5989                 1.5880                 1.1212
 Frc consts  --      1.2185                 1.2187                 0.9004
 IR Inten    --      0.6662                 0.3839                 0.4934

                     31                     32                     33
                      A                      A                      A
 Frequencies --   1203.0347              1229.9060              1254.6602
 Red. masses --      1.6411                 1.9768                 1.5111
 Frc consts  --      1.3994                 1.7618                 1.4015
 IR Inten    --      1.2902                 3.0860                 0.4199

                     34                     35                     36
                      A                      A                      A
 Frequencies --   1298.6044              1309.0293              1314.5312
 Red. masses --      1.3367                 1.4258                 1.2980
 Frc consts  --      1.3281                 1.4395                 1.3215
 IR Inten    --      0.1973                 0.5971                 7.7348

                     37                     38                     39
                      A                      A                      A
 Frequencies --   1350.9696              1364.2915              1376.9601
 Red. masses --      1.5563                 1.5790                 1.6813
 Frc consts  --      1.6735                 1.7316                 1.8782
 IR Inten    --      1.7899                 2.6206                 1.9119

                     40                     41                     42
                      A                      A                      A
 Frequencies --   1386.1336              1412.4677              1485.2495
 Red. masses --      1.9091                 1.2496                 1.2056
 Frc consts  --      2.1612                 1.4689                 1.5669
 IR Inten    --      0.0861                 2.2497                 1.4746

                     43                     44                     45
                      A                      A                      A
 Frequencies --   1497.8267              1500.1176              1523.9249
 Red. masses --      1.0544                 1.0729                 1.0998
 Frc consts  --      1.3937                 1.4225                 1.5049
 IR Inten    --      2.5640                 7.0105                 1.0204

                     46                     47                     48
                      A                      A                      A
 Frequencies --   3005.0331              3028.0370              3032.7986
 Red. masses --      1.0550                 1.0667                 1.0538
 Frc consts  --      5.6131                 5.7628                 5.7107
 IR Inten    --     95.4549                13.6723                51.3014

                     49                     50                     51
                      A                      A                      A
 Frequencies --   3042.4087              3045.8279              3077.4782
 Red. masses --      1.0839                 1.1096                 1.0884
 Frc consts  --      5.9113                 6.0649                 6.0733
 IR Inten    --     10.2627                29.2373                51.3624

                     52                     53                     54
                      A                      A                      A
 Frequencies --   3098.8577              3101.0388              3121.0935
 Red. masses --      1.1007                 1.1013                 1.0554
 Frc consts  --      6.2279                 6.2397                 6.0572
 IR Inten    --     30.5020                26.0634                18.3514

                     55                     56                     57
                      A                      A                      A
 Frequencies --   3153.9108              3165.0839              3206.4005
 Red. masses --      1.0886                 1.0933                 1.1141
 Frc consts  --      6.3797                 6.4529                 6.7488
 IR Inten    --     15.6314                16.1689                15.9087

 - Thermochemistry -
 -------------------
 Temperature   298.150 Kelvin.  Pressure   1.00000 Atm.
 Atom     1 has atomic number  6 and mass  12.00000

 Molecular mass:   124.08882 amu.
 Principal axes and moments of inertia in atomic units:
                           1         2         3
     Eigenvalues --   712.023251032.109861491.41362
           X            0.99674   0.08071   0.00234
           Y           -0.08073   0.99661   0.01589
           Z           -0.00105  -0.01603   0.99987
 This molecule is an asymmetric top.
 Rotational symmetry number  1.
 Warning -- assumption of classical behavior for rotation
           may cause significant error
 Rotational temperatures (Kelvin)      0.12164     0.08392     0.05808
 Rotational constants (GHZ):           2.53467     1.74859     1.21009
 Zero-point vibrational energy     484588.3 (Joules/Mol)
                                  115.81938 (Kcal/Mol)
 Warning -- explicit consideration of   8 degrees of freedom as
           vibrations may cause significant error
 Vibrational temperatures:     93.66   270.21   313.66   377.25   398.60
          (Kelvin)            486.25   596.32   718.03   902.81   950.74
                             1085.22  1160.57  1184.75  1232.22  1266.04
                             1308.67  1333.37  1384.80  1431.65  1436.69
                             1479.76  1504.71  1530.35  1545.07  1551.51
                             1594.87  1616.37  1636.30  1642.01  1679.75
                             1730.90  1769.56  1805.18  1868.40  1883.40
                             1891.32  1943.74  1962.91  1981.14  1994.34
                             2032.23  2136.94  2155.04  2158.33  2192.59
                             4323.57  4356.67  4363.52  4377.35  4382.27
                             4427.80  4458.57  4461.70  4490.56  4537.77
                             4553.85  4613.30

 Zero-point correction=                           0.184570 (Hartree/Particle)
 Thermal correction to Energy=                    0.192383
 Thermal correction to Enthalpy=                  0.193328
 Thermal correction to Gibbs Free Energy=         0.152176
 Sum of electronic and zero-point Energies=           -387.073700
 Sum of electronic and thermal Energies=              -387.065887
 Sum of electronic and thermal Enthalpies=            -387.064942
 Sum of electronic and thermal Free Energies=         -387.106094

                     E (Thermal)             CV                S
                      KCal/Mol        Cal/Mol-Kelvin    Cal/Mol-Kelvin
 Total                  120.722             31.150             86.611
 Electronic               0.000              0.000              0.000
 Translational            0.889              2.981             40.361
 Rotational               0.889              2.981             28.485
 Vibrational            118.945             25.188             17.765
 Vibration     1          0.597              1.971              4.296
 Vibration     2          0.632              1.857              2.249
 Vibration     3          0.646              1.814              1.976
 Vibration     4          0.669              1.742              1.647
 Vibration     5          0.678              1.716              1.552
 Vibration     6          0.718              1.600              1.222
 Vibration     7          0.778              1.439              0.911
 Vibration     8          0.855              1.252              0.660

 Optimization completed.
    -- Stationary point found.
 Normal termination of Gaussian 16 at Thu Aug  4 13:16:51 2022.
