 Gaussian 16, Revision A.03,
 Gaussian 16:  ES64L-G16RevA.03 25-Dec-2016

 -----------------------------
 # opt freq b3lyp/6-31g(2df,p)
 -----------------------------

 -------------------
 Title Card Required
 -------------------
 Symbolic Z-matrix:
 Charge =  0 Multiplicity = 1

 SCF Done:  E(RB3LYP) =  -367.303254769     A.U. after   12 cycles
 SCF Done:  E(RB3LYP) =  -367.331090049     A.U. after   10 cycles
 SCF Done:  E(RB3LYP) =  -367.353482922     A.U. after   11 cycles
 SCF Done:  E(RB3LYP) =  -367.366788283     A.U. after   11 cycles
 SCF Done:  E(RB3LYP) =  -367.373946412     A.U. after   11 cycles
 SCF Done:  E(RB3LYP) =  -367.376051119     A.U. after   10 cycles
 SCF Done:  E(RB3LYP) =  -367.376648245     A.U. after   10 cycles
 SCF Done:  E(RB3LYP) =  -367.376744401     A.U. after    9 cycles
 SCF Done:  E(RB3LYP) =  -367.376758720     A.U. after    8 cycles
 SCF Done:  E(RB3LYP) =  -367.376762534     A.U. after    7 cycles
 SCF Done:  E(RB3LYP) =  -367.376763894     A.U. after    7 cycles
 SCF Done:  E(RB3LYP) =  -367.376764198     A.U. after    6 cycles
 Optimization completed.
    -- Stationary point found.
 Normal termination of Gaussian 16 at Sun Jul  3 14:16:46 2022.

 ----------------------------------------------------------------------
 #N Geom=AllCheck Guess=TCheck SCRF=Check GenChk RB3LYP/6-31G(2df,p) Fr
 eq
 ----------------------------------------------------------------------

 Structure from the checkpoint file:  "CC1C2CC2CC2CN21.chk"
 -------------------
 Title Card Required
 -------------------
 Charge =  0 Multiplicity = 1

                         Standard orientation:
 ---------------------------------------------------------------------
 Center     Atomic      Atomic             Coordinates (Angstroms)
 Number     Number       Type             X           Y           Z
 ---------------------------------------------------------------------
      1          6           0        2.432050   -0.249636    0.058764
      2          6           0        1.083648   -0.118754   -0.652661
      3          6           0        0.172238   -1.315909   -0.387391
      4          6           0       -0.475738   -1.617934    0.945306
      5          6           0       -1.312828   -1.123289   -0.211521
      6          6           0       -1.897481    0.278983   -0.274299
      7          6           0       -0.896846    1.427253   -0.220965
      8          6           0        0.056189    1.627019    0.909521
      9          7           0        0.537808    1.225268   -0.411867
     10          1           0        2.929980   -1.180483   -0.229923
     11          1           0        2.302020   -0.262006    1.145627
     12          1           0        3.082209    0.590549   -0.200938
     13          1           0        1.278968   -0.136977   -1.734543
     14          1           0        0.481155   -2.189687   -0.955928
     15          1           0       -0.299703   -0.969901    1.793872
     16          1           0       -0.578682   -2.662557    1.220914
     17          1           0       -1.955826   -1.870958   -0.666957
     18          1           0       -2.654119    0.418288    0.509110
     19          1           0       -2.435246    0.365593   -1.226668
     20          1           0       -1.266603    2.328092   -0.710362
     21          1           0        0.045406    0.913435    1.725943
     22          1           0        0.338385    2.633339    1.212400
 ---------------------------------------------------------------------

 SCF Done:  E(RB3LYP) =  -367.376764198     A.U. after    1 cycles

 The electronic state is 1-A.
 Alpha  occ. eigenvalues --  -14.31652 -10.20970 -10.20852 -10.19880 -10.18934
 Alpha  occ. eigenvalues --  -10.18580 -10.18492 -10.17982 -10.16712  -0.95553
 Alpha  occ. eigenvalues --   -0.85583  -0.77797  -0.72086  -0.65985  -0.61394
 Alpha  occ. eigenvalues --   -0.59684  -0.57785  -0.51367  -0.49711  -0.48119
 Alpha  occ. eigenvalues --   -0.45200  -0.44013  -0.42733  -0.39585  -0.38832
 Alpha  occ. eigenvalues --   -0.38353  -0.36355  -0.34494  -0.33382  -0.31630
 Alpha  occ. eigenvalues --   -0.30646  -0.27609  -0.26672  -0.21428
 Alpha virt. eigenvalues --    0.07943   0.09779   0.11209   0.11710   0.12443
 Alpha virt. eigenvalues --    0.14293   0.14759   0.15196   0.16352   0.17120
 Alpha virt. eigenvalues --    0.17471   0.18256   0.18816   0.19350   0.21368

 Mulliken charges:
               1
     1  C   -0.376715
     2  C    0.021219
     3  C   -0.008547
     4  C   -0.310181
     5  C   -0.039150
     6  C   -0.252294
     7  C   -0.004069
     8  C   -0.262756
     9  N   -0.093348
    10  H    0.109364
    11  H    0.112640
    12  H    0.120434
    13  H    0.081864
    14  H    0.080987
    15  H    0.114461
    16  H    0.106219
    17  H    0.083721
    18  H    0.106224
    19  H    0.105365
    20  H    0.085766
    21  H    0.111564
    22  H    0.107233
 Sum of Mulliken charges =  -0.00000

 Dipole moment (field-independent basis, Debye):
    X=             -0.7655    Y=             -0.9091    Z=              0.3319  Tot=              1.2339
 Quadrupole moment (field-independent basis, Debye-Ang):
   XX=            -55.4326   YY=            -55.3147   ZZ=            -55.0027
   XY=             -1.4410   XZ=              0.9200   YZ=              1.9019

  Exact polarizability:  90.801  -1.675  87.243   1.624   1.504  76.208
 Approx polarizability: 125.598  -2.560 119.923   1.223   1.901 123.283

                      1                      2                      3
                      A                      A                      A
 Frequencies --    119.7748               199.6168               238.9111
 Red. masses --      2.6809                 2.5901                 1.0869
 Frc consts  --      0.0227                 0.0608                 0.0366
 IR Inten    --      0.2906                 0.4921                 0.0694

                      4                      5                      6
                      A                      A                      A
 Frequencies --    244.0743               293.6387               354.3375
 Red. masses --      2.1408                 2.3872                 2.7622
 Frc consts  --      0.0751                 0.1213                 0.2043
 IR Inten    --      0.4507                 0.9088                 0.1817

                      7                      8                      9
                      A                      A                      A
 Frequencies --    379.0209               454.5300               496.3124
 Red. masses --      2.6037                 3.0048                 5.0102
 Frc consts  --      0.2204                 0.3658                 0.7271
 IR Inten    --      1.5776                 1.1165                 0.2860

                     10                     11                     12
                      A                      A                      A
 Frequencies --    616.9836               679.7246               712.9430
 Red. masses --      2.5761                 2.6903                 2.3921
 Frc consts  --      0.5778                 0.7324                 0.7164
 IR Inten    --      7.5271                 2.9942                 2.7883

                     13                     14                     15
                      A                      A                      A
 Frequencies --    749.9640               765.1319               825.8997
 Red. masses --      3.3907                 2.2782                 1.9002
 Frc consts  --      1.1236                 0.7858                 0.7637
 IR Inten    --      2.5024                 0.2989                 5.4758

                     16                     17                     18
                      A                      A                      A
 Frequencies --    858.8355               889.1056               923.5325
 Red. masses --      1.4335                 2.5177                 2.5291
 Frc consts  --      0.6230                 1.1727                 1.2709
 IR Inten    --      3.3375                 4.1655                 4.2309

                     19                     20                     21
                      A                      A                      A
 Frequencies --    955.9733               966.8697              1002.8734
 Red. masses --      1.7681                 1.7485                 1.7796
 Frc consts  --      0.9520                 0.9631                 1.0545
 IR Inten    --      0.6851                 5.2162                 3.9115

                     22                     23                     24
                      A                      A                      A
 Frequencies --   1038.3956              1056.9212              1068.2523
 Red. masses --      1.4326                 1.4851                 2.1491
 Frc consts  --      0.9101                 0.9774                 1.4450
 IR Inten    --     12.8130                 5.9735                 3.1050

                     25                     26                     27
                      A                      A                      A
 Frequencies --   1088.9437              1104.1064              1115.5454
 Red. masses --      1.6544                 1.5990                 1.4162
 Frc consts  --      1.1558                 1.1485                 1.0384
 IR Inten    --      1.5045                 8.4539                 3.2573

                     28                     29                     30
                      A                      A                      A
 Frequencies --   1125.6493              1139.7838              1146.0390
 Red. masses --      1.4751                 1.6751                 1.2721
 Frc consts  --      1.1012                 1.2821                 0.9844
 IR Inten    --      0.9742                 3.6593                 0.5264

                     31                     32                     33
                      A                      A                      A
 Frequencies --   1179.1698              1196.2293              1244.5430
 Red. masses --      1.5746                 1.7545                 1.4237
 Frc consts  --      1.2899                 1.4792                 1.2992
 IR Inten    --      0.7858                 7.9728                 2.0096

                     34                     35                     36
                      A                      A                      A
 Frequencies --   1265.1915              1333.2769              1343.7646
 Red. masses --      1.2796                 1.5910                 2.7530
 Frc consts  --      1.2068                 1.6663                 2.9289
 IR Inten    --      7.1531                23.4080                 5.7406

                     37                     38                     39
                      A                      A                      A
 Frequencies --   1352.2690              1375.4962              1378.5490
 Red. masses --      1.4244                 1.6185                 1.2550
 Frc consts  --      1.5346                 1.8042                 1.4053
 IR Inten    --      7.0559                 6.0888                 1.0196

                     40                     41                     42
                      A                      A                      A
 Frequencies --   1404.5245              1417.7645              1434.4820
 Red. masses --      1.2582                 1.3851                 1.8644
 Frc consts  --      1.4624                 1.6404                 2.2604
 IR Inten    --      4.6977                 3.2385                 8.3670

                     43                     44                     45
                      A                      A                      A
 Frequencies --   1487.2922              1488.7559              1492.2689
 Red. masses --      1.1554                 1.0646                 1.2346
 Frc consts  --      1.5058                 1.3902                 1.6199
 IR Inten    --      0.9204                 4.0613                 1.7240

                     46                     47                     48
                      A                      A                      A
 Frequencies --   1497.9081              1526.2463              2991.5344
 Red. masses --      1.0626                 1.2217                 1.0834
 Frc consts  --      1.4048                 1.6767                 5.7126
 IR Inten    --      1.4562                 6.1200                37.1852

                     49                     50                     51
                      A                      A                      A
 Frequencies --   3013.8102              3037.3925              3042.0739
 Red. masses --      1.0601                 1.0344                 1.1015
 Frc consts  --      5.6733                 5.6228                 6.0059
 IR Inten    --     42.6768                19.4655                21.2075

                     52                     53                     54
                      A                      A                      A
 Frequencies --   3095.8715              3105.2485              3107.2112
 Red. masses --      1.0843                 1.0631                 1.0987
 Frc consts  --      6.1230                 6.0395                 6.2496
 IR Inten    --     41.5784                27.3362                35.8723

                     55                     56                     57
                      A                      A                      A
 Frequencies --   3116.4381              3126.4128              3136.0761
 Red. masses --      1.1023                 1.0866                 1.0682
 Frc consts  --      6.3074                 6.2577                 6.1900
 IR Inten    --     21.4379                23.3415                21.7742

                     58                     59                     60
                      A                      A                      A
 Frequencies --   3144.5861              3194.5833              3228.8478
 Red. masses --      1.0806                 1.1120                 1.1089
 Frc consts  --      6.2958                 6.6860                 6.8113
 IR Inten    --     19.0434                29.6337                 9.4105

 - Thermochemistry -
 -------------------
 Temperature   298.150 Kelvin.  Pressure   1.00000 Atm.
 Atom     1 has atomic number  6 and mass  12.00000

 Molecular mass:   123.10480 amu.
 Principal axes and moments of inertia in atomic units:
                           1         2         3
     Eigenvalues --   812.23575 927.490111387.77175
           X            0.99797  -0.06273   0.01079
           Y            0.06262   0.99799   0.00976
           Z           -0.01138  -0.00907   0.99989
 This molecule is an asymmetric top.
 Rotational symmetry number  1.
 Warning -- assumption of classical behavior for rotation
           may cause significant error
 Rotational temperatures (Kelvin)      0.10664     0.09339     0.06241
 Rotational constants (GHZ):           2.22194     1.94583     1.30046
 Zero-point vibrational energy     516604.4 (Joules/Mol)
                                  123.47141 (Kcal/Mol)
 Warning -- explicit consideration of  10 degrees of freedom as
           vibrations may cause significant error
 Vibrational temperatures:    172.33   287.20   343.74   351.17   422.48
          (Kelvin)            509.81   545.33   653.97   714.08   887.70
                              977.97  1025.77  1079.03  1100.85  1188.29
                             1235.67  1279.22  1328.76  1375.43  1391.11
                             1442.91  1494.02  1520.67  1536.98  1566.75
                             1588.56  1605.02  1619.56  1639.89  1648.89
                             1696.56  1721.11  1790.62  1820.33  1918.29
                             1933.38  1945.61  1979.03  1983.42  2020.80
                             2039.85  2063.90  2139.88  2141.99  2147.04
                             2155.16  2195.93  4304.15  4336.20  4370.13
                             4376.87  4454.27  4467.76  4470.58  4483.86
                             4498.21  4512.11  4524.36  4596.29  4645.59

 Zero-point correction=                           0.196764 (Hartree/Particle)
 Thermal correction to Energy=                    0.204759
 Thermal correction to Enthalpy=                  0.205704
 Thermal correction to Gibbs Free Energy=         0.164793
 Sum of electronic and zero-point Energies=           -367.180000
 Sum of electronic and thermal Energies=              -367.172005
 Sum of electronic and thermal Enthalpies=            -367.171061
 Sum of electronic and thermal Free Energies=         -367.211971

                     E (Thermal)             CV                S
                      KCal/Mol        Cal/Mol-Kelvin    Cal/Mol-Kelvin
 Total                  128.488             32.755             86.103
 Electronic               0.000              0.000              0.000
 Translational            0.889              2.981             40.338
 Rotational               0.889              2.981             28.438
 Vibrational            126.711             26.793             17.327
 Vibration     1          0.609              1.933              3.104
 Vibration     2          0.638              1.840              2.137
 Vibration     3          0.657              1.781              1.811
 Vibration     4          0.659              1.773              1.773
 Vibration     5          0.688              1.686              1.453
 Vibration     6          0.730              1.566              1.147
 Vibration     7          0.749              1.515              1.043
 Vibration     8          0.813              1.351              0.782
 Vibration     9          0.852              1.258              0.667
 Vibration    10          0.977              0.996              0.421

                           ! Non-Optimized Parameters !
 Normal termination of Gaussian 16 at Sun Jul  3 14:55:07 2022.
