 Gaussian 16, Revision A.03,
 Gaussian 16:  ES64L-G16RevA.03 25-Dec-2016

 -----------------------------
 # opt freq b3lyp/6-31g(2df,p)
 -----------------------------

 -------------------
 Title Card Required
 -------------------
 Symbolic Z-matrix:
 Charge =  0 Multiplicity = 1

 SCF Done:  E(RB3LYP) =  -330.552964328     A.U. after   12 cycles
 SCF Done:  E(RB3LYP) =  -330.555987060     A.U. after   10 cycles
 SCF Done:  E(RB3LYP) =  -330.556512274     A.U. after   10 cycles
 SCF Done:  E(RB3LYP) =  -330.556597957     A.U. after    9 cycles
 SCF Done:  E(RB3LYP) =  -330.556602320     A.U. after    7 cycles
 SCF Done:  E(RB3LYP) =  -330.556603028     A.U. after    6 cycles
 Optimization completed.
    -- Stationary point found.
 Normal termination of Gaussian 16 at Sun Jul  3 19:26:46 2022.

 ----------------------------------------------------------------------
 #N Geom=AllCheck Guess=TCheck SCRF=Check GenChk RB3LYP/6-31G(2df,p) Fr
 eq
 ----------------------------------------------------------------------

 Structure from the checkpoint file:  "CC1CCNCC1C.chk"
 -------------------
 Title Card Required
 -------------------
 Charge =  0 Multiplicity = 1

                         Standard orientation:
 ---------------------------------------------------------------------
 Center     Atomic      Atomic             Coordinates (Angstroms)
 Number     Number       Type             X           Y           Z
 ---------------------------------------------------------------------
      1          6           0        1.930017   -0.962589   -0.707423
      2          6           0        0.805156   -0.796233    0.326969
      3          6           0        0.916409    0.540462    1.094224
      4          6           0        0.447732    1.735133    0.256735
      5          7           0       -0.916691    1.490213   -0.206940
      6          6           0       -0.986764    0.323907   -1.086331
      7          6           0       -0.602792   -0.950567   -0.310356
      8          6           0       -1.677108   -1.310319    0.726241
      9          1           0        2.912382   -0.899600   -0.226793
     10          1           0        1.898833   -0.196117   -1.487899
     11          1           0        1.863001   -1.937202   -1.202838
     12          1           0        0.925046   -1.606995    1.057631
     13          1           0        1.951294    0.697893    1.420101
     14          1           0        0.299860    0.496292    1.998559
     15          1           0        1.153400    1.906931   -0.579140
     16          1           0        0.453401    2.643918    0.868307
     17          1           0       -1.274306    2.307537   -0.687872
     18          1           0       -0.330318    0.426338   -1.971333
     19          1           0       -2.012451    0.231632   -1.461191
     20          1           0       -0.549909   -1.771357   -1.038034
     21          1           0       -1.849535   -0.484146    1.420325
     22          1           0       -1.388511   -2.195099    1.303632
     23          1           0       -2.631255   -1.530280    0.234777
 ---------------------------------------------------------------------

 SCF Done:  E(RB3LYP) =  -330.556603028     A.U. after    1 cycles

 The electronic state is 1-A.
 Alpha  occ. eigenvalues --  -14.30451 -10.19641 -10.19470 -10.17826 -10.17620
 Alpha  occ. eigenvalues --  -10.16980 -10.16672 -10.16031  -0.90025  -0.79773
 Alpha  occ. eigenvalues --   -0.75385  -0.70169  -0.65609  -0.61078  -0.59511
 Alpha  occ. eigenvalues --   -0.51043  -0.50290  -0.45559  -0.44082  -0.42264
 Alpha  occ. eigenvalues --   -0.42181  -0.40633  -0.38814  -0.37918  -0.36304
 Alpha  occ. eigenvalues --   -0.35229  -0.33879  -0.33087  -0.30970  -0.29593
 Alpha  occ. eigenvalues --   -0.29318  -0.21389
 Alpha virt. eigenvalues --    0.07426   0.10654   0.12015   0.12887   0.13956
 Alpha virt. eigenvalues --    0.14400   0.15114   0.15566   0.16903   0.17546
 Alpha virt. eigenvalues --    0.18863   0.19611   0.21005   0.21353   0.22508

 Mulliken charges:
               1
     1  C   -0.407415
     2  C    0.034592
     3  C   -0.186650
     4  C   -0.153319
     5  N   -0.281263
     6  C   -0.169508
     7  C    0.048593
     8  C   -0.400550
     9  H    0.107664
    10  H    0.116438
    11  H    0.108577
    12  H    0.061947
    13  H    0.084091
    14  H    0.100542
    15  H    0.073519
    16  H    0.091955
    17  H    0.213671
    18  H    0.072023
    19  H    0.089330
    20  H    0.058543
    21  H    0.131189
    22  H    0.102514
    23  H    0.103516
 Sum of Mulliken charges =  -0.00000

 Dipole moment (field-independent basis, Debye):
    X=              0.3229    Y=              0.3646    Z=             -0.6233  Tot=              0.7910
 Quadrupole moment (field-independent basis, Debye-Ang):
   XX=            -53.0359   YY=            -50.0008   ZZ=            -52.0024
   XY=             -0.1155   XZ=              2.0332   YZ=             -1.1101

  Exact polarizability:  84.595   0.987  82.426   1.118   0.722  75.343
 Approx polarizability: 115.519   0.220 113.834   1.102   1.255 111.619

                      1                      2                      3
                      A                      A                      A
 Frequencies --    138.3766               189.8128               206.8557
 Red. masses --      2.4455                 2.2259                 1.1058
 Frc consts  --      0.0276                 0.0473                 0.0279
 IR Inten    --      0.1811                 0.7597                 0.5684

                      4                      5                      6
                      A                      A                      A
 Frequencies --    214.8863               261.9126               285.2645
 Red. masses --      1.1117                 2.4165                 2.3263
 Frc consts  --      0.0302                 0.0977                 0.1115
 IR Inten    --      0.0315                 0.0837                 1.1883

                      7                      8                      9
                      A                      A                      A
 Frequencies --    384.6278               408.9595               427.1319
 Red. masses --      1.9064                 1.9295                 2.7922
 Frc consts  --      0.1662                 0.1901                 0.3001
 IR Inten    --      1.1647                 0.8781                 3.8554

                     10                     11                     12
                      A                      A                      A
 Frequencies --    477.5261               544.8971               658.0363
 Red. masses --      2.4643                 2.8637                 1.8314
 Frc consts  --      0.3311                 0.5010                 0.4672
 IR Inten    --     11.2106                 0.2528                32.7664

                     13                     14                     15
                      A                      A                      A
 Frequencies --    730.7636               793.2042               835.2839
 Red. masses --      2.6220                 1.6699                 2.2635
 Frc consts  --      0.8250                 0.6190                 0.9305
 IR Inten    --      4.1290                42.1552                 1.9940

                     16                     17                     18
                      A                      A                      A
 Frequencies --    876.3596               903.1902               950.9024
 Red. masses --      2.2729                 1.7462                 1.9830
 Frc consts  --      1.0285                 0.8393                 1.0564
 IR Inten    --      0.0503                12.4208                 0.2996

                     19                     20                     21
                      A                      A                      A
 Frequencies --    970.0391               993.2028              1012.8943
 Red. masses --      1.6299                 1.6430                 1.4832
 Frc consts  --      0.9036                 0.9549                 0.8966
 IR Inten    --      1.8156                 3.3536                 1.7969

                     22                     23                     24
                      A                      A                      A
 Frequencies --   1016.1014              1071.1670              1091.2113
 Red. masses --      1.4599                 1.7279                 2.0576
 Frc consts  --      0.8881                 1.1681                 1.4436
 IR Inten    --      2.3913                 0.3353                11.4439

                     25                     26                     27
                      A                      A                      A
 Frequencies --   1118.8718              1126.3105              1175.4869
 Red. masses --      1.7854                 1.7381                 2.2524
 Frc consts  --      1.3169                 1.2991                 1.8337
 IR Inten    --      3.7397                 8.9191                 2.7029

                     28                     29                     30
                      A                      A                      A
 Frequencies --   1189.6105              1193.3535              1237.7631
 Red. masses --      1.3115                 2.0397                 1.2012
 Frc consts  --      1.0935                 1.7114                 1.0843
 IR Inten    --      1.9112                 3.0434                 8.2858

                     31                     32                     33
                      A                      A                      A
 Frequencies --   1302.5736              1324.0357              1332.4377
 Red. masses --      1.2192                 1.3670                 1.3269
 Frc consts  --      1.2187                 1.4120                 1.3880
 IR Inten    --      4.3093                 2.9906                 2.0062

                     34                     35                     36
                      A                      A                      A
 Frequencies --   1348.7541              1368.8170              1378.6847
 Red. masses --      1.4235                 1.4896                 1.3442
 Frc consts  --      1.5257                 1.6444                 1.5054
 IR Inten    --     20.9243                 0.3993                 3.4885

                     37                     38                     39
                      A                      A                      A
 Frequencies --   1388.3853              1404.3316              1412.0787
 Red. masses --      1.4161                 1.2981                 1.2650
 Frc consts  --      1.6083                 1.5084                 1.4861
 IR Inten    --      4.5760                 7.4973                 6.2293

                     40                     41                     42
                      A                      A                      A
 Frequencies --   1433.2257              1478.7185              1484.7852
 Red. masses --      1.4098                 1.0941                 1.2680
 Frc consts  --      1.7062                 1.4096                 1.6470
 IR Inten    --      3.9008                 3.3637                 1.6168

                     43                     44                     45
                      A                      A                      A
 Frequencies --   1488.6738              1494.1484              1497.9891
 Red. masses --      1.0608                 1.0668                 1.0503
 Frc consts  --      1.3852                 1.4033                 1.3887
 IR Inten    --      1.7803                 2.4607                 2.5770

                     46                     47                     48
                      A                      A                      A
 Frequencies --   1509.3127              1512.9091              1513.3819
 Red. masses --      1.0639                 1.0819                 1.0958
 Frc consts  --      1.4279                 1.4590                 1.4786
 IR Inten    --      1.8267                 1.1235                 8.3161

                     49                     50                     51
                      A                      A                      A
 Frequencies --   2910.0976              2916.1157              3005.4590
 Red. masses --      1.0732                 1.0718                 1.0825
 Frc consts  --      5.3548                 5.3699                 5.7613
 IR Inten    --     41.5222               112.7292                19.5544

                     52                     53                     54
                      A                      A                      A
 Frequencies --   3011.1983              3029.2637              3031.4103
 Red. masses --      1.0821                 1.0422                 1.0411
 Frc consts  --      5.7807                 5.6349                 5.6370
 IR Inten    --     35.6297                30.7184                31.6955

                     55                     56                     57
                      A                      A                      A
 Frequencies --   3035.5226              3051.4267              3057.7731
 Red. masses --      1.0549                 1.0868                 1.0864
 Frc consts  --      5.7269                 5.9621                 5.9848
 IR Inten    --     34.5032                49.7809                41.8544

                     58                     59                     60
                      A                      A                      A
 Frequencies --   3073.7621              3091.3352              3092.9764
 Red. masses --      1.1026                 1.1010                 1.1012
 Frc consts  --      6.1378                 6.1991                 6.2070
 IR Inten    --     39.1061                25.8539                40.7874

                     61                     62                     63
                      A                      A                      A
 Frequencies --   3103.0530              3122.3348              3530.0988
 Red. masses --      1.0996                 1.0989                 1.0745
 Frc consts  --      6.2385                 6.3119                 7.8890
 IR Inten    --     38.4214                23.8145                 0.3142

 - Thermochemistry -
 -------------------
 Temperature   298.150 Kelvin.  Pressure   1.00000 Atm.
 Atom     1 has atomic number  6 and mass  12.00000

 Molecular mass:   113.12045 amu.
 Principal axes and moments of inertia in atomic units:
                           1         2         3
     Eigenvalues --   802.44547 841.429171157.36987
           X            0.97903   0.20301  -0.01692
           Y           -0.20314   0.97913  -0.00631
           Z            0.01528   0.00962   0.99984
 This molecule is an asymmetric top.
 Rotational symmetry number  1.
 Warning -- assumption of classical behavior for rotation
           may cause significant error
 Rotational temperatures (Kelvin)      0.10794     0.10294     0.07484
 Rotational constants (GHZ):           2.24905     2.14485     1.55935
 Zero-point vibrational energy     563555.2 (Joules/Mol)
                                  134.69293 (Kcal/Mol)
 Warning -- explicit consideration of  11 degrees of freedom as
           vibrations may cause significant error
 Vibrational temperatures:    199.09   273.10   297.62   309.17   376.83
          (Kelvin)            410.43   553.39   588.40   614.55   687.05
                              783.99   946.77  1051.41  1141.24  1201.79
                             1260.89  1299.49  1368.14  1395.67  1429.00
                             1457.33  1461.94  1541.17  1570.01  1609.81
                             1620.51  1691.26  1711.58  1716.97  1780.87
                             1874.11  1904.99  1917.08  1940.56  1969.42
                             1983.62  1997.58  2020.52  2031.67  2062.09
                             2127.55  2136.27  2141.87  2149.75  2155.27
                             2171.56  2176.74  2177.42  4186.98  4195.64
                             4324.19  4332.44  4358.43  4361.52  4367.44
                             4390.32  4399.45  4422.46  4447.74  4450.10
                             4464.60  4492.34  5079.02

 Zero-point correction=                           0.214647 (Hartree/Particle)
 Thermal correction to Energy=                    0.223039
 Thermal correction to Enthalpy=                  0.223983
 Thermal correction to Gibbs Free Energy=         0.182584
 Sum of electronic and zero-point Energies=           -330.341956
 Sum of electronic and thermal Energies=              -330.333564
 Sum of electronic and thermal Enthalpies=            -330.332620
 Sum of electronic and thermal Free Energies=         -330.374019

                     E (Thermal)             CV                S
                      KCal/Mol        Cal/Mol-Kelvin    Cal/Mol-Kelvin
 Total                  139.959             33.291             87.131
 Electronic               0.000              0.000              0.000
 Translational            0.889              2.981             40.085
 Rotational               0.889              2.981             28.149
 Vibrational            138.182             27.329             18.897
 Vibration     1          0.614              1.915              2.826
 Vibration     2          0.633              1.854              2.230
 Vibration     3          0.641              1.830              2.071
 Vibration     4          0.645              1.818              2.002
 Vibration     5          0.669              1.743              1.649
 Vibration     6          0.683              1.701              1.502
 Vibration     7          0.754              1.503              1.021
 Vibration     8          0.773              1.451              0.930
 Vibration     9          0.789              1.411              0.868
 Vibration    10          0.834              1.300              0.717
 Vibration    11          0.900              1.151              0.555

 Optimization completed.
    -- Stationary point found.
 Normal termination of Gaussian 16 at Sun Jul  3 20:01:28 2022.
