 Gaussian 16, Revision A.03,
 Gaussian 16:  ES64L-G16RevA.03 25-Dec-2016

 -----------------------------
 # opt freq b3lyp/6-31g(2df,p)
 -----------------------------

 -------------------
 Title Card Required
 -------------------
 Symbolic Z-matrix:
 Charge =  0 Multiplicity = 1

 SCF Done:  E(RB3LYP) =  -389.704469256     A.U. after   12 cycles
 SCF Done:  E(RB3LYP) =  -389.708781015     A.U. after   10 cycles
 SCF Done:  E(RB3LYP) =  -389.709809048     A.U. after   10 cycles
 SCF Done:  E(RB3LYP) =  -389.710924393     A.U. after   10 cycles
 SCF Done:  E(RB3LYP) =  -389.711199680     A.U. after    9 cycles
 SCF Done:  E(RB3LYP) =  -389.711368220     A.U. after    9 cycles
 SCF Done:  E(RB3LYP) =  -389.711399331     A.U. after    8 cycles
 SCF Done:  E(RB3LYP) =  -389.711418370     A.U. after    9 cycles
 SCF Done:  E(RB3LYP) =  -389.711420920     A.U. after    8 cycles
 SCF Done:  E(RB3LYP) =  -389.711421551     A.U. after    7 cycles
 SCF Done:  E(RB3LYP) =  -389.711421683     A.U. after    6 cycles
 Optimization completed.
    -- Stationary point found.
 Normal termination of Gaussian 16 at Thu Aug  4 02:35:55 2022.

 ----------------------------------------------------------------------
 #N Geom=AllCheck Guess=TCheck SCRF=Check GenChk RB3LYP/6-31G(2df,p) Fr
 eq
 ----------------------------------------------------------------------

 Structure from the checkpoint file:  "CC1CpCpC1CCCO.chk"
 -------------------
 Title Card Required
 -------------------
 Charge =  0 Multiplicity = 1

                         Standard orientation:
 ---------------------------------------------------------------------
 Center     Atomic      Atomic             Coordinates (Angstroms)
 Number     Number       Type             X           Y           Z
 ---------------------------------------------------------------------
      1          6           0       -2.234527    1.902082   -0.068359
      2          6           0       -1.539225    0.707677    0.548935
      3          6           0       -2.045910   -0.714549    0.399334
      4          6           0       -3.291665   -1.070872   -0.383342
      5          6           0       -0.770821   -0.288691   -0.290337
      6          6           0        0.580787   -0.811468    0.150041
      7          6           0        1.742656    0.115857   -0.231093
      8          6           0        3.105911   -0.422308    0.202847
      9          8           0        4.176160    0.459847   -0.099185
     10          1           0       -3.069449    2.246137    0.552954
     11          1           0       -2.633989    1.676536   -1.061209
     12          1           0       -1.539106    2.741450   -0.181169
     13          1           0       -1.093920    0.921882    1.519040
     14          1           0       -1.899279   -1.335349    1.281366
     15          1           0       -3.396705   -0.463921   -1.287071
     16          1           0       -4.197209   -0.928154    0.217504
     17          1           0       -3.266275   -2.120331   -0.697983
     18          1           0       -0.861701   -0.142579   -1.366570
     19          1           0        0.750630   -1.807328   -0.283611
     20          1           0        0.573273   -0.953915    1.239218
     21          1           0        1.595803    1.106338    0.215615
     22          1           0        1.747364    0.263853   -1.321397
     23          1           0        3.273405   -1.419111   -0.238513
     24          1           0        3.129475   -0.549137    1.291284
     25          1           0        4.195168    0.578490   -1.054133
 ---------------------------------------------------------------------

 SCF Done:  E(RB3LYP) =  -389.711421683     A.U. after    1 cycles

 The electronic state is 1-A.
 Alpha  occ. eigenvalues --  -19.12829 -10.22073 -10.18300 -10.18268 -10.18142
 Alpha  occ. eigenvalues --  -10.18083 -10.17649 -10.17396 -10.17377  -1.00909
 Alpha  occ. eigenvalues --   -0.86117  -0.77664  -0.71855  -0.70336  -0.66211
 Alpha  occ. eigenvalues --   -0.59809  -0.56327  -0.54087  -0.50019  -0.47330
 Alpha  occ. eigenvalues --   -0.45581  -0.43870  -0.41958  -0.40722  -0.40246
 Alpha  occ. eigenvalues --   -0.39750  -0.38249  -0.37802  -0.35952  -0.34170
 Alpha  occ. eigenvalues --   -0.33944  -0.33378  -0.31622  -0.27078  -0.26126
 Alpha  occ. eigenvalues --   -0.25219
 Alpha virt. eigenvalues --    0.08039   0.09218   0.09675   0.10566   0.12963
 Alpha virt. eigenvalues --    0.13680   0.13966   0.14797   0.15741   0.15824
 Alpha virt. eigenvalues --    0.17170   0.17871   0.18007   0.19027   0.19249

 Mulliken charges:
               1
     1  C   -0.411922
     2  C   -0.000728
     3  C   -0.030288
     4  C   -0.410852
     5  C   -0.014347
     6  C   -0.220644
     7  C   -0.189832
     8  C   -0.055944
     9  O   -0.419906
    10  H    0.114610
    11  H    0.114246
    12  H    0.116327
    13  H    0.075175
    14  H    0.075023
    15  H    0.114131
    16  H    0.114907
    17  H    0.115291
    18  H    0.070371
    19  H    0.092625
    20  H    0.092879
    21  H    0.107447
    22  H    0.081388
    23  H    0.082626
    24  H    0.109001
    25  H    0.278414
 Sum of Mulliken charges =  -0.00000

 Dipole moment (field-independent basis, Debye):
    X=             -1.1284    Y=             -0.4918    Z=             -1.0276  Tot=              1.6035
 Quadrupole moment (field-independent basis, Debye-Ang):
   XX=            -65.7792   YY=            -58.1505   ZZ=            -54.6025
   XY=             -2.0311   XZ=             -4.7457   YZ=             -0.9509

  Exact polarizability: 106.330   0.901  87.321  -1.076  -0.466  78.011
 Approx polarizability: 124.885   2.496 123.794  -2.691   0.249 122.243

                      1                      2                      3
                      A                      A                      A
 Frequencies --     51.2283                76.4460                83.8355
 Red. masses --      3.4183                 1.9483                 3.0339
 Frc consts  --      0.0053                 0.0067                 0.0126
 IR Inten    --      0.5547                 3.5943                 0.5633

                      4                      5                      6
                      A                      A                      A
 Frequencies --    140.4975               172.0005               174.1242
 Red. masses --      2.5015                 1.2554                 1.1034
 Frc consts  --      0.0291                 0.0219                 0.0197
 IR Inten    --      1.3937                 0.0615                 0.0816

                      7                      8                      9
                      A                      A                      A
 Frequencies --    222.1115               234.4869               274.3499
 Red. masses --      2.0621                 2.2818                 2.1449
 Frc consts  --      0.0599                 0.0739                 0.0951
 IR Inten    --      1.9564                 0.9085                 9.7232

                     10                     11                     12
                      A                      A                      A
 Frequencies --    281.1944               304.4177               333.2404
 Red. masses --      2.7836                 1.2388                 2.5704
 Frc consts  --      0.1297                 0.0676                 0.1682
 IR Inten    --      0.5683                89.4603                15.4782

                     13                     14                     15
                      A                      A                      A
 Frequencies --    456.2553               502.1415               523.2887
 Red. masses --      2.9599                 2.9443                 2.7102
 Frc consts  --      0.3630                 0.4374                 0.4373
 IR Inten    --      5.9098                 1.4503                 1.4856

                     16                     17                     18
                      A                      A                      A
 Frequencies --    746.3292               769.0868               797.9776
 Red. masses --      1.2923                 2.2263                 2.0400
 Frc consts  --      0.4241                 0.7759                 0.7654
 IR Inten    --      3.3074                 2.2901                 5.3011

                     19                     20                     21
                      A                      A                      A
 Frequencies --    852.8210               873.7337               957.7111
 Red. masses --      1.6909                 1.4400                 1.2379
 Frc consts  --      0.7246                 0.6477                 0.6690
 IR Inten    --      2.5769                 7.0774                 1.7595

                     22                     23                     24
                      A                      A                      A
 Frequencies --    969.0794              1018.0975              1033.0962
 Red. masses --      1.3410                 2.7863                 1.9777
 Frc consts  --      0.7420                 1.7016                 1.2437
 IR Inten    --      1.8320                25.5643                 2.1344

                     25                     26                     27
                      A                      A                      A
 Frequencies --   1044.4320              1079.8413              1088.6610
 Red. masses --      1.8508                 3.6321                 2.0564
 Frc consts  --      1.1895                 2.4953                 1.4359
 IR Inten    --      0.1388                99.9456                 4.1145

                     28                     29                     30
                      A                      A                      A
 Frequencies --   1092.5603              1098.6553              1130.9554
 Red. masses --      1.6173                 1.5279                 1.5074
 Frc consts  --      1.1375                 1.0866                 1.1360
 IR Inten    --      1.4394                 7.7456                 8.6181

                     31                     32                     33
                      A                      A                      A
 Frequencies --   1143.4481              1145.5617              1192.5978
 Red. masses --      1.8831                 1.5756                 1.8362
 Frc consts  --      1.4507                 1.2182                 1.5387
 IR Inten    --      2.2952                 0.5328                 0.0538

                     34                     35                     36
                      A                      A                      A
 Frequencies --   1213.4526              1240.4884              1265.5694
 Red. masses --      1.7293                 1.4604                 1.2929
 Frc consts  --      1.5003                 1.3240                 1.2201
 IR Inten    --      0.7705                 1.0081                 3.8513

                     37                     38                     39
                      A                      A                      A
 Frequencies --   1291.8029              1321.9904              1344.9877
 Red. masses --      1.3262                 1.0781                 1.2319
 Frc consts  --      1.3040                 1.1101                 1.3130
 IR Inten    --     12.3452                 2.6087                 3.3347

                     40                     41                     42
                      A                      A                      A
 Frequencies --   1372.6136              1379.9822              1400.1248
 Red. masses --      1.3564                 1.3498                 1.3686
 Frc consts  --      1.5057                 1.5144                 1.5807
 IR Inten    --      5.6500                 2.0071                 3.8270

                     43                     44                     45
                      A                      A                      A
 Frequencies --   1414.9244              1421.9844              1423.7178
 Red. masses --      1.3404                 1.2344                 1.2906
 Frc consts  --      1.5811                 1.4706                 1.5413
 IR Inten    --      0.5278                 5.3881                53.8752

                     46                     47                     48
                      A                      A                      A
 Frequencies --   1475.8305              1482.6658              1487.7805
 Red. masses --      2.0381                 1.1120                 1.0444
 Frc consts  --      2.6155                 1.4403                 1.3621
 IR Inten    --      0.7566                 0.1812                 2.8400

                     49                     50                     51
                      A                      A                      A
 Frequencies --   1493.7156              1494.7233              1500.8329
 Red. masses --      1.0536                 1.0782                 1.0518
 Frc consts  --      1.3850                 1.4193                 1.3959
 IR Inten    --      2.8878                 0.5474                 1.6062

                     52                     53                     54
                      A                      A                      A
 Frequencies --   1514.2594              1516.2970              2963.7932
 Red. masses --      1.1881                 1.0967                 1.0709
 Frc consts  --      1.6051                 1.4856                 5.5426
 IR Inten    --      7.9235                 0.9716                52.5572

                     55                     56                     57
                      A                      A                      A
 Frequencies --   2997.7862              3002.5270              3025.0454
 Red. masses --      1.0636                 1.0643                 1.0363
 Frc consts  --      5.6317                 5.6530                 5.5871
 IR Inten    --      9.0894                50.7818                34.2299

                     58                     59                     60
                      A                      A                      A
 Frequencies --   3029.0917              3034.1125              3054.7145
 Red. masses --      1.0376                 1.0959                 1.0880
 Frc consts  --      5.6090                 5.9441                 5.9814
 IR Inten    --     40.0565                13.5843                18.3048

                     61                     62                     63
                      A                      A                      A
 Frequencies --   3073.5090              3082.0481              3083.6330
 Red. masses --      1.0998                 1.1009                 1.1010
 Frc consts  --      6.1210                 6.1611                 6.1684
 IR Inten    --     60.5423                13.9589                41.4183

                     64                     65                     66
                      A                      A                      A
 Frequencies --   3095.0656              3105.7261              3106.0953
 Red. masses --      1.0954                 1.0933                 1.0889
 Frc consts  --      6.1827                 6.2132                 6.1898
 IR Inten    --      8.6298                 0.2968                11.9940

                     67                     68                     69
                      A                      A                      A
 Frequencies --   3115.2091              3129.3664              3814.2437
 Red. masses --      1.0901                 1.0899                 1.0661
 Frc consts  --      6.2328                 6.2886                 9.1380
 IR Inten    --     25.5653                69.3185                14.3367

 - Thermochemistry -
 -------------------
 Temperature   298.150 Kelvin.  Pressure   1.00000 Atm.
 Atom     1 has atomic number  6 and mass  12.00000

 Molecular mass:   128.12012 amu.
 Principal axes and moments of inertia in atomic units:
                           1         2         3
     Eigenvalues --   505.577793020.822113342.58451
           X            0.99997  -0.00712   0.00210
           Y            0.00715   0.99991  -0.01149
           Z           -0.00202   0.01150   0.99993
 This molecule is an asymmetric top.
 Rotational symmetry number  1.
 Warning -- assumption of classical behavior for rotation
           may cause significant error
 Rotational temperatures (Kelvin)      0.17132     0.02867     0.02591
 Rotational constants (GHZ):           3.56966     0.59743     0.53992
 Zero-point vibrational energy     595943.5 (Joules/Mol)
                                  142.43392 (Kcal/Mol)
 Warning -- explicit consideration of  15 degrees of freedom as
           vibrations may cause significant error
 Vibrational temperatures:     73.71   109.99   120.62   202.14   247.47
          (Kelvin)            250.53   319.57   337.37   394.73   404.58
                              437.99   479.46   656.45   722.47   752.90
                             1073.80  1106.54  1148.11  1227.02  1257.11
                             1377.93  1394.29  1464.82  1486.40  1502.70
                             1553.65  1566.34  1571.95  1580.72  1627.19
                             1645.17  1648.21  1715.88  1745.89  1784.79
                             1820.87  1858.62  1902.05  1935.14  1974.88
                             1985.49  2014.47  2035.76  2045.92  2048.41
                             2123.39  2133.23  2140.58  2149.12  2150.57
                             2159.36  2178.68  2181.61  4264.24  4313.15
                             4319.97  4352.37  4358.19  4365.41  4395.05
                             4422.09  4434.38  4436.66  4453.11  4468.45
                             4468.98  4482.09  4502.46  5487.85

 Zero-point correction=                           0.226983 (Hartree/Particle)
 Thermal correction to Energy=                    0.238392
 Thermal correction to Enthalpy=                  0.239336
 Thermal correction to Gibbs Free Energy=         0.189684
 Sum of electronic and zero-point Energies=           -389.484439
 Sum of electronic and thermal Energies=              -389.473030
 Sum of electronic and thermal Enthalpies=            -389.472086
 Sum of electronic and thermal Free Energies=         -389.521738

                     E (Thermal)             CV                S
                      KCal/Mol        Cal/Mol-Kelvin    Cal/Mol-Kelvin
 Total                  149.593             41.001            104.502
 Electronic               0.000              0.000              0.000
 Translational            0.889              2.981             40.457
 Rotational               0.889              2.981             30.013
 Vibrational            147.816             35.040             34.032
 Vibration     1          0.595              1.977              4.769
 Vibration     2          0.599              1.965              3.980
 Vibration     3          0.601              1.960              3.799
 Vibration     4          0.615              1.913              2.797
 Vibration     5          0.626              1.877              2.414
 Vibration     6          0.627              1.874              2.390
 Vibration     7          0.648              1.807              1.942
 Vibration     8          0.654              1.788              1.844
 Vibration     9          0.677              1.721              1.569
 Vibration    10          0.681              1.708              1.526
 Vibration    11          0.695              1.665              1.392
 Vibration    12          0.715              1.609              1.244
 Vibration    13          0.814              1.347              0.777
 Vibration    14          0.857              1.245              0.653
 Vibration    15          0.878              1.198              0.602

                           ! Non-Optimized Parameters !
 Normal termination of Gaussian 16 at Thu Aug  4 03:15:45 2022.
