 Gaussian 16, Revision A.03,
 Gaussian 16:  ES64L-G16RevA.03 25-Dec-2016

 -----------------------------
 # opt freq b3lyp/6-31g(2df,p)
 -----------------------------

 -------------------
 Title Card Required
 -------------------
 Symbolic Z-matrix:
 Charge =  0 Multiplicity = 1

 SCF Done:  E(RB3LYP) =  -324.552501873     A.U. after   15 cycles
 SCF Done:  E(RB3LYP) =  -324.598703879     A.U. after   13 cycles
 SCF Done:  E(RB3LYP) =  -324.635445135     A.U. after   13 cycles
 SCF Done:  E(RB3LYP) =  -324.648460927     A.U. after   12 cycles
 SCF Done:  E(RB3LYP) =  -324.668747801     A.U. after   12 cycles
 SCF Done:  E(RB3LYP) =  -324.674732298     A.U. after   12 cycles
 SCF Done:  E(RB3LYP) =  -324.678069134     A.U. after   12 cycles
 SCF Done:  E(RB3LYP) =  -324.678562499     A.U. after   10 cycles
 SCF Done:  E(RB3LYP) =  -324.678695038     A.U. after   10 cycles
 SCF Done:  E(RB3LYP) =  -324.678738090     A.U. after    9 cycles
 SCF Done:  E(RB3LYP) =  -324.639753302     A.U. after   13 cycles
 SCF Done:  E(RB3LYP) =  -324.683750387     A.U. after   12 cycles
 SCF Done:  E(RB3LYP) =  -324.684489917     A.U. after   12 cycles
 SCF Done:  E(RB3LYP) =  -324.685604368     A.U. after   11 cycles
 SCF Done:  E(RB3LYP) =  -324.685848120     A.U. after   10 cycles
 SCF Done:  E(RB3LYP) =  -324.685948693     A.U. after   10 cycles
 SCF Done:  E(RB3LYP) =  -324.685979680     A.U. after   10 cycles
 SCF Done:  E(RB3LYP) =  -324.685981214     A.U. after    7 cycles
 SCF Done:  E(RB3LYP) =  -324.685981997     A.U. after    7 cycles
 Optimization completed.
    -- Stationary point found.
 Normal termination of Gaussian 16 at Thu Aug  4 02:07:17 2022.

 ----------------------------------------------------------------------
 #N Geom=AllCheck Guess=TCheck SCRF=Check GenChk RB3LYP/6-31G(2df,p) Fr
 eq
 ----------------------------------------------------------------------

 Structure from the checkpoint file:  "CC1C2NCpdOpC12.chk"
 -------------------
 Title Card Required
 -------------------
 Charge =  0 Multiplicity = 1

                         Standard orientation:
 ---------------------------------------------------------------------
 Center     Atomic      Atomic             Coordinates (Angstroms)
 Number     Number       Type             X           Y           Z
 ---------------------------------------------------------------------
      1          6           0        2.537754   -0.382581    0.153752
      2          6           0        1.082377   -0.096760    0.449399
      3          6           0        0.361292    0.940854   -0.355058
      4          7           0       -1.014907    1.139113    0.107111
      5          6           0       -1.328983   -0.229012   -0.053896
      6          8           0       -2.321572   -0.850892    0.195016
      7          6           0        0.054133   -0.524780   -0.612686
      8          1           0        3.189131    0.277389    0.736196
      9          1           0        2.765731   -0.229575   -0.906217
     10          1           0        2.795187   -1.416448    0.404434
     11          1           0        0.793762   -0.204638    1.493237
     12          1           0        0.832814    1.653858   -1.019006
     13          1           0       -1.257589    1.661567    0.942062
     14          1           0        0.318447   -1.155131   -1.449678
 ---------------------------------------------------------------------

 SCF Done:  E(RB3LYP) =  -324.685981997     A.U. after    1 cycles

 The electronic state is 1-A.
 Alpha  occ. eigenvalues --  -19.11645 -14.34746 -10.28327 -10.23675 -10.21828
 Alpha  occ. eigenvalues --  -10.20547 -10.19521  -1.04245  -0.96934  -0.82755
 Alpha  occ. eigenvalues --   -0.72583  -0.64936  -0.59991  -0.56331  -0.50116
 Alpha  occ. eigenvalues --   -0.48733  -0.46025  -0.42579  -0.40936  -0.39812
 Alpha  occ. eigenvalues --   -0.39212  -0.37642  -0.33141  -0.29210  -0.26686
 Alpha  occ. eigenvalues --   -0.24330
 Alpha virt. eigenvalues --    0.01136   0.09277   0.09779   0.10605   0.11452
 Alpha virt. eigenvalues --    0.14077   0.14628   0.15783   0.16822   0.18218
 Alpha virt. eigenvalues --    0.20579   0.22302   0.23995   0.29860   0.32519

 Mulliken charges:
               1
     1  C   -0.423305
     2  C   -0.016203
     3  C   -0.011008
     4  N   -0.345713
     5  C    0.417065
     6  O   -0.341068
     7  C   -0.231818
     8  H    0.127932
     9  H    0.122559
    10  H    0.132698
    11  H    0.097962
    12  H    0.113512
    13  H    0.240809
    14  H    0.116579
 Sum of Mulliken charges =   0.00000

 Dipole moment (field-independent basis, Debye):
    X=              3.6403    Y=              1.5560    Z=              0.2301  Tot=              3.9656
 Quadrupole moment (field-independent basis, Debye-Ang):
   XX=            -47.3764   YY=            -40.6631   ZZ=            -38.4241
   XY=             -3.6930   XZ=             -0.7123   YZ=              2.1950

  Exact polarizability:  72.377   1.715  55.457  -1.596   1.744  47.337
 Approx polarizability: 100.197   9.506  91.400  -2.790   2.251  72.573

                      1                      2                      3
                      A                      A                      A
 Frequencies --    166.3961               214.9420               249.5537
 Red. masses --      3.6655                 1.1325                 2.7656
 Frc consts  --      0.0598                 0.0308                 0.1015
 IR Inten    --      2.2929                 0.0739                 0.3836

                      4                      5                      6
                      A                      A                      A
 Frequencies --    303.0150               430.4991               500.5794
 Red. masses --      2.7670                 2.5820                 3.6598
 Frc consts  --      0.1497                 0.2819                 0.5403
 IR Inten    --      3.2703                17.3377                 6.9676

                      7                      8                      9
                      A                      A                      A
 Frequencies --    604.4457               685.3084               770.9908
 Red. masses --      1.7248                 6.2906                 4.4851
 Frc consts  --      0.3713                 1.7407                 1.5708
 IR Inten    --    141.5711                 2.4131                26.2581

                     10                     11                     12
                      A                      A                      A
 Frequencies --    812.4144               859.8494               864.7636
 Red. masses --      2.1171                 2.0763                 1.5628
 Frc consts  --      0.8233                 0.9045                 0.6886
 IR Inten    --     11.0671                 7.3749                 1.2646

                     13                     14                     15
                      A                      A                      A
 Frequencies --    936.4444              1009.6413              1015.3492
 Red. masses --      2.4605                 2.4564                 1.5191
 Frc consts  --      1.2713                 1.4753                 0.9227
 IR Inten    --     34.4204                 9.8716                 9.9105

                     16                     17                     18
                      A                      A                      A
 Frequencies --   1044.1834              1062.2154              1112.5032
 Red. masses --      1.5200                 1.8422                 1.9944
 Frc consts  --      0.9764                 1.2246                 1.4543
 IR Inten    --      3.6398                 0.2868                 0.7865

                     19                     20                     21
                      A                      A                      A
 Frequencies --   1127.5487              1147.7662              1204.5878
 Red. masses --      1.9144                 1.6440                 2.2015
 Frc consts  --      1.4340                 1.2760                 1.8822
 IR Inten    --     12.9089                12.5978                 1.9535

                     22                     23                     24
                      A                      A                      A
 Frequencies --   1253.8796              1291.1906              1324.2562
 Red. masses --      1.9595                 1.5308                 1.5533
 Frc consts  --      1.8151                 1.5037                 1.6049
 IR Inten    --      5.0590                23.5704                25.5468

                     25                     26                     27
                      A                      A                      A
 Frequencies --   1406.2009              1417.8603              1492.1862
 Red. masses --      1.8941                 1.3672                 1.0474
 Frc consts  --      2.2067                 1.6194                 1.3741
 IR Inten    --      5.4680                 1.8106                 2.5887

                     28                     29                     30
                      A                      A                      A
 Frequencies --   1500.4551              1898.0621              3033.3987
 Red. masses --      1.0641                12.0365                 1.0351
 Frc consts  --      1.4116                25.5488                 5.6114
 IR Inten    --      5.7915               490.3448                24.4650

                     31                     32                     33
                      A                      A                      A
 Frequencies --   3099.2690              3102.4375              3125.9991
 Red. masses --      1.0998                 1.1008                 1.0907
 Frc consts  --      6.2243                 6.2428                 6.2796
 IR Inten    --     10.8667                15.0417                24.4836

                     34                     35                     36
                      A                      A                      A
 Frequencies --   3199.2428              3225.2766              3541.2927
 Red. masses --      1.0919                 1.0960                 1.0768
 Frc consts  --      6.5843                 6.7174                 7.9562
 IR Inten    --     10.6770                 2.4277                 7.6602

 - Thermochemistry -
 -------------------
 Temperature   298.150 Kelvin.  Pressure   1.00000 Atm.
 Atom     1 has atomic number  6 and mass  12.00000

 Molecular mass:    97.05276 amu.
 Principal axes and moments of inertia in atomic units:
                           1         2         3
     Eigenvalues --   258.89773 929.178951064.22367
           X            0.99967  -0.02576  -0.00203
           Y            0.02581   0.99925   0.02873
           Z            0.00129  -0.02877   0.99959
 This molecule is an asymmetric top.
 Rotational symmetry number  1.
 Rotational temperatures (Kelvin)      0.33455     0.09322     0.08139
 Rotational constants (GHZ):           6.97087     1.94230     1.69583
 Zero-point vibrational energy     299269.8 (Joules/Mol)
                                   71.52720 (Kcal/Mol)
 Warning -- explicit consideration of   7 degrees of freedom as
           vibrations may cause significant error
 Vibrational temperatures:    239.41   309.25   359.05   435.97   619.39
          (Kelvin)            720.22   869.66   986.01  1109.28  1168.88
                             1237.13  1244.20  1347.33  1452.65  1460.86
                             1502.35  1528.29  1600.64  1622.29  1651.38
                             1733.13  1804.05  1857.74  1905.31  2023.21
                             2039.98  2146.92  2158.82  2730.89  4364.38
                             4459.16  4463.72  4497.62  4603.00  4640.45
                             5095.13

 Zero-point correction=                           0.113986 (Hartree/Particle)
 Thermal correction to Energy=                    0.120263
 Thermal correction to Enthalpy=                  0.121207
 Thermal correction to Gibbs Free Energy=         0.084092
 Sum of electronic and zero-point Energies=           -324.571996
 Sum of electronic and thermal Energies=              -324.565719
 Sum of electronic and thermal Enthalpies=            -324.564775
 Sum of electronic and thermal Free Energies=         -324.601890

                     E (Thermal)             CV                S
                      KCal/Mol        Cal/Mol-Kelvin    Cal/Mol-Kelvin
 Total                   75.466             23.694             78.116
 Electronic               0.000              0.000              0.000
 Translational            0.889              2.981             39.629
 Rotational               0.889              2.981             27.040
 Vibrational             73.689             17.733             11.448
 Vibration     1          0.624              1.884              2.476
 Vibration     2          0.645              1.818              2.001
 Vibration     3          0.662              1.764              1.734
 Vibration     4          0.694              1.668              1.400
 Vibration     5          0.792              1.404              0.857
 Vibration     6          0.856              1.249              0.657
 Vibration     7          0.963              1.022              0.442

                           ! Non-Optimized Parameters !
 Normal termination of Gaussian 16 at Thu Aug  4 02:22:03 2022.
