 Gaussian 16, Revision A.03,
 Gaussian 16:  ES64L-G16RevA.03 25-Dec-2016

 -----------------------------
 # opt freq b3lyp/6-31g(2df,p)
 -----------------------------

 -------------------
 Title Card Required
 -------------------
 Symbolic Z-matrix:
 Charge =  0 Multiplicity = 1

 SCF Done:  E(RB3LYP) =  -304.823723784     A.U. after   14 cycles
 SCF Done:  E(RB3LYP) =  -304.826146924     A.U. after   12 cycles
 SCF Done:  E(RB3LYP) =  -304.826423958     A.U. after   11 cycles
 SCF Done:  E(RB3LYP) =  -304.826548078     A.U. after   11 cycles
 SCF Done:  E(RB3LYP) =  -304.827186264     A.U. after   13 cycles
 SCF Done:  E(RB3LYP) =  -304.804307913     A.U. after   13 cycles
 SCF Done:  E(RB3LYP) =  -304.828478018     A.U. after   13 cycles
 SCF Done:  E(RB3LYP) =  -304.829435636     A.U. after   13 cycles
 SCF Done:  E(RB3LYP) =  -304.830048635     A.U. after   12 cycles
 SCF Done:  E(RB3LYP) =  -304.830595863     A.U. after   12 cycles
 SCF Done:  E(RB3LYP) =  -304.830624334     A.U. after    9 cycles
 SCF Done:  E(RB3LYP) =  -304.830629667     A.U. after    9 cycles
 SCF Done:  E(RB3LYP) =  -304.830631980     A.U. after    8 cycles
 Optimization completed.
    -- Stationary point found.
 Normal termination of Gaussian 16 at Thu Aug  4 05:18:23 2022.

 ----------------------------------------------------------------------
 #N Geom=AllCheck Guess=TCheck SCRF=Check GenChk RB3LYP/6-31G(2df,p) Fr
 eq
 ----------------------------------------------------------------------

 Structure from the checkpoint file:  "CC1CNdCCdN1.chk"
 -------------------
 Title Card Required
 -------------------
 Charge =  0 Multiplicity = 1

                         Standard orientation:
 ---------------------------------------------------------------------
 Center     Atomic      Atomic             Coordinates (Angstroms)
 Number     Number       Type             X           Y           Z
 ---------------------------------------------------------------------
      1          6           0        2.332862    0.031605   -0.078679
      2          6           0        0.868514    0.007611    0.355779
      3          6           0        0.117172   -1.207240   -0.191707
      4          7           0       -1.331180   -1.171580    0.051513
      5          6           0       -1.841140   -0.005240    0.072117
      6          6           0       -1.048389    1.230450   -0.135653
      7          7           0        0.218696    1.276649   -0.024598
      8          1           0        2.859445   -0.862580    0.269287
      9          1           0        2.832900    0.913958    0.328597
     10          1           0        2.410616    0.073856   -1.170013
     11          1           0        0.833747   -0.026274    1.456856
     12          1           0        0.513896   -2.130177    0.241948
     13          1           0        0.264342   -1.286388   -1.280458
     14          1           0       -2.918170    0.090890    0.225035
     15          1           0       -1.583499    2.148118   -0.390802
 ---------------------------------------------------------------------

 SCF Done:  E(RB3LYP) =  -304.830631980     A.U. after    1 cycles

 The electronic state is 1-A.
 Alpha  occ. eigenvalues --  -14.33653 -14.33469 -10.23129 -10.23096 -10.21922
 Alpha  occ. eigenvalues --  -10.21230 -10.17775  -0.95905  -0.89585  -0.78725
 Alpha  occ. eigenvalues --   -0.70150  -0.64741  -0.61526  -0.51860  -0.50326
 Alpha  occ. eigenvalues --   -0.48325  -0.46549  -0.41828  -0.39425  -0.38305
 Alpha  occ. eigenvalues --   -0.37398  -0.36358  -0.34570  -0.29903  -0.27573
 Alpha  occ. eigenvalues --   -0.23157
 Alpha virt. eigenvalues --   -0.06427   0.05779   0.09893   0.12159   0.13139
 Alpha virt. eigenvalues --    0.13571   0.15475   0.16681   0.17414   0.18640
 Alpha virt. eigenvalues --    0.20078   0.21899   0.23113   0.25573   0.28891

 Mulliken charges:
               1
     1  C   -0.386198
     2  C    0.040445
     3  C   -0.160525
     4  N   -0.195528
     5  C   -0.005687
     6  C   -0.011099
     7  N   -0.195773
     8  H    0.113330
     9  H    0.127562
    10  H    0.120482
    11  H    0.095739
    12  H    0.118355
    13  H    0.115553
    14  H    0.111826
    15  H    0.111517
 Sum of Mulliken charges =  -0.00000

 Dipole moment (field-independent basis, Debye):
    X=              0.0451    Y=              0.1357    Z=              0.0319  Tot=              0.1465
 Quadrupole moment (field-independent basis, Debye-Ang):
   XX=            -39.8251   YY=            -45.6902   ZZ=            -41.3001
   XY=             -6.0390   XZ=              0.6345   YZ=              0.2618

  Exact polarizability:  78.720  -5.879  64.686   0.637  -0.789  44.985
 Approx polarizability: 112.162  -6.160 105.790   1.772  -1.113  70.844

                      1                      2                      3
                      A                      A                      A
 Frequencies --    124.6619               217.7320               269.5609
 Red. masses --      2.7645                 1.0896                 2.7097
 Frc consts  --      0.0253                 0.0304                 0.1160
 IR Inten    --      0.6931                 0.9723                13.3506

                      4                      5                      6
                      A                      A                      A
 Frequencies --    313.1986               435.4344               491.3135
 Red. masses --      2.5143                 2.9051                 3.8144
 Frc consts  --      0.1453                 0.3245                 0.5425
 IR Inten    --      0.4539                 5.2540                 1.6954

                      7                      8                      9
                      A                      A                      A
 Frequencies --    561.0124               589.5173               785.8717
 Red. masses --      7.9948                 2.3783                 3.5855
 Frc consts  --      1.4825                 0.4870                 1.3047
 IR Inten    --      0.2627                 1.4291                 1.2382

                     10                     11                     12
                      A                      A                      A
 Frequencies --    859.1488               889.1264               917.7840
 Red. masses --      1.2748                 1.7301                 1.9576
 Frc consts  --      0.5544                 0.8058                 0.9715
 IR Inten    --     27.0638                 6.7219                 6.6672

                     13                     14                     15
                      A                      A                      A
 Frequencies --    932.5839               970.7199               988.4849
 Red. masses --      2.4500                 3.1650                 2.3179
 Frc consts  --      1.2554                 1.7572                 1.3344
 IR Inten    --      8.0965                22.7606                 6.7972

                     16                     17                     18
                      A                      A                      A
 Frequencies --   1008.5191              1103.6452              1140.8103
 Red. masses --      1.9269                 2.1269                 2.3031
 Frc consts  --      1.1547                 1.5263                 1.7660
 IR Inten    --      5.9793                 2.3572                 7.6916

                     19                     20                     21
                      A                      A                      A
 Frequencies --   1157.6953              1238.3668              1315.7622
 Red. masses --      1.8688                 1.2307                 1.2518
 Frc consts  --      1.4757                 1.1119                 1.2769
 IR Inten    --      2.4581                 3.6838                 3.1373

                     22                     23                     24
                      A                      A                      A
 Frequencies --   1350.7982              1367.3775              1378.4776
 Red. masses --      1.2490                 1.4024                 1.3505
 Frc consts  --      1.3427                 1.5449                 1.5119
 IR Inten    --     12.2722                 2.0526                 2.0049

                     25                     26                     27
                      A                      A                      A
 Frequencies --   1394.5483              1410.0077              1473.8790
 Red. masses --      1.4141                 1.2563                 1.0948
 Frc consts  --      1.6203                 1.4715                 1.4012
 IR Inten    --      6.3025                 1.9313                 1.1619

                     28                     29                     30
                      A                      A                      A
 Frequencies --   1488.5548              1498.9409              1664.6537
 Red. masses --      1.0460                 1.0518                10.4607
 Frc consts  --      1.3655                 1.3924                17.0788
 IR Inten    --      5.2606                 3.0778                20.7784

                     31                     32                     33
                      A                      A                      A
 Frequencies --   1728.6029              2974.1748              2995.6373
 Red. masses --      7.8256                 1.0800                 1.0705
 Frc consts  --     13.7771                 5.6287                 5.6600
 IR Inten    --      1.9007                 9.4121                32.8269

                     34                     35                     36
                      A                      A                      A
 Frequencies --   3038.4104              3074.3980              3093.0917
 Red. masses --      1.0354                 1.0920                 1.0873
 Frc consts  --      5.6319                 6.0813                 6.1287
 IR Inten    --     23.2343                23.1223                18.9232

                     37                     38                     39
                      A                      A                      A
 Frequencies --   3108.5194              3111.5934              3122.6460
 Red. masses --      1.1014                 1.0924                 1.1018
 Frc consts  --      6.2706                 6.2314                 6.3297
 IR Inten    --     34.4347                57.6614                17.6490

 - Thermochemistry -
 -------------------
 Temperature   298.150 Kelvin.  Pressure   1.00000 Atm.
 Atom     1 has atomic number  6 and mass  12.00000

 Molecular mass:    96.06875 amu.
 Principal axes and moments of inertia in atomic units:
                           1         2         3
     Eigenvalues --   349.74351 700.44695 993.21058
           X            0.99878  -0.04942  -0.00104
           Y            0.04943   0.99877   0.00320
           Z            0.00089  -0.00325   0.99999
 This molecule is an asymmetric top.
 Rotational symmetry number  1.
 Rotational temperatures (Kelvin)      0.24765     0.12366     0.08721
 Rotational constants (GHZ):           5.16019     2.57656     1.81708
 Zero-point vibrational energy     332473.7 (Joules/Mol)
                                   79.46312 (Kcal/Mol)
 Warning -- explicit consideration of   8 degrees of freedom as
           vibrations may cause significant error
 Vibrational temperatures:    179.36   313.27   387.84   450.62   626.49
          (Kelvin)            706.89   807.17   848.18  1130.69  1236.12
                             1279.25  1320.49  1341.78  1396.65  1422.21
                             1451.03  1587.90  1641.37  1665.67  1781.73
                             1893.09  1943.50  1967.35  1983.32  2006.44
                             2028.69  2120.58  2141.70  2156.64  2395.07
                             2487.07  4279.17  4310.05  4371.59  4423.37
                             4450.27  4472.47  4476.89  4492.79

 Zero-point correction=                           0.126633 (Hartree/Particle)
 Thermal correction to Energy=                    0.132972
 Thermal correction to Enthalpy=                  0.133917
 Thermal correction to Gibbs Free Energy=         0.096622
 Sum of electronic and zero-point Energies=           -304.703999
 Sum of electronic and thermal Energies=              -304.697660
 Sum of electronic and thermal Enthalpies=            -304.696715
 Sum of electronic and thermal Free Energies=         -304.734010

                     E (Thermal)             CV                S
                      KCal/Mol        Cal/Mol-Kelvin    Cal/Mol-Kelvin
 Total                   83.441             23.721             78.493
 Electronic               0.000              0.000              0.000
 Translational            0.889              2.981             39.598
 Rotational               0.889              2.981             26.989
 Vibrational             81.664             17.759             11.905
 Vibration     1          0.610              1.928              3.027
 Vibration     2          0.646              1.814              1.978
 Vibration     3          0.674              1.729              1.599
 Vibration     4          0.701              1.649              1.345
 Vibration     5          0.796              1.393              0.841
 Vibration     6          0.847              1.269              0.680
 Vibration     7          0.917              1.116              0.522
 Vibration     8          0.947              1.054              0.468

 Optimization completed.
    -- Stationary point found.
 Normal termination of Gaussian 16 at Thu Aug  4 05:33:07 2022.
