 Gaussian 16, Revision A.03,
 Gaussian 16:  ES64L-G16RevA.03 25-Dec-2016

 -----------------------------
 # opt freq b3lyp/6-31g(2df,p)
 -----------------------------

 -------------------
 Title Card Required
 -------------------
 Symbolic Z-matrix:
 Charge =  0 Multiplicity = 1

 SCF Done:  E(RB3LYP) =  -367.304180652     A.U. after   12 cycles
 SCF Done:  E(RB3LYP) =  -367.340183241     A.U. after   11 cycles
 SCF Done:  E(RB3LYP) =  -367.362721411     A.U. after   12 cycles
 SCF Done:  E(RB3LYP) =  -367.368980917     A.U. after   10 cycles
 SCF Done:  E(RB3LYP) =  -367.373081502     A.U. after   10 cycles
 SCF Done:  E(RB3LYP) =  -367.374680283     A.U. after   10 cycles
 SCF Done:  E(RB3LYP) =  -367.374837584     A.U. after    9 cycles
 SCF Done:  E(RB3LYP) =  -367.374851966     A.U. after    8 cycles
 SCF Done:  E(RB3LYP) =  -367.374854575     A.U. after    7 cycles
 SCF Done:  E(RB3LYP) =  -367.374854991     A.U. after    6 cycles
 Optimization completed.
    -- Stationary point found.
 Normal termination of Gaussian 16 at Thu Aug  4 01:36:02 2022.

 ----------------------------------------------------------------------
 #N Geom=AllCheck Guess=TCheck SCRF=Check GenChk RB3LYP/6-31G(2df,p) Fr
 eq
 ----------------------------------------------------------------------

 Structure from the checkpoint file:  "CC1C2CC1C1pCN1pC2.chk"
 -------------------
 Title Card Required
 -------------------
 Charge =  0 Multiplicity = 1

                         Standard orientation:
 ---------------------------------------------------------------------
 Center     Atomic      Atomic             Coordinates (Angstroms)
 Number     Number       Type             X           Y           Z
 ---------------------------------------------------------------------
      1          6           0        2.664375   -0.905857   -0.104322
      2          6           0        1.246764   -0.464007   -0.446016
      3          6           0        0.932296    1.070782   -0.427085
      4          6           0        0.730548    0.931785    1.111519
      5          6           0        0.181653   -0.469107    0.703426
      6          6           0       -1.072015   -0.069146   -0.065974
      7          6           0       -2.146880   -1.009638   -0.440792
      8          7           0       -2.389911    0.055142    0.562690
      9          6           0       -0.526084    1.086894   -0.934588
     10          1           0        3.350168   -0.656805   -0.921820
     11          1           0        2.706415   -1.991356    0.038791
     12          1           0        3.054218   -0.439338    0.804426
     13          1           0        0.923267   -0.979953   -1.358150
     14          1           0        1.621440    1.801171   -0.853758
     15          1           0        0.037316    1.623516    1.598292
     16          1           0        1.663274    0.888615    1.673363
     17          1           0        0.088782   -1.297394    1.409787
     18          1           0       -2.075914   -2.040093   -0.099027
     19          1           0       -2.687165   -0.882824   -1.375718
     20          1           0       -2.369969   -0.348948    1.497373
     21          1           0       -1.047508    2.024086   -0.721834
     22          1           0       -0.598893    0.883095   -2.007560
 ---------------------------------------------------------------------

 SCF Done:  E(RB3LYP) =  -367.374854991     A.U. after    1 cycles

 The electronic state is 1-A.
 Alpha  occ. eigenvalues --  -14.31541 -10.21114 -10.20056 -10.18916 -10.18753
 Alpha  occ. eigenvalues --  -10.18721 -10.17882 -10.17506 -10.17415  -0.94941
 Alpha  occ. eigenvalues --   -0.87682  -0.73631  -0.69713  -0.66605  -0.63275
 Alpha  occ. eigenvalues --   -0.62140  -0.54017  -0.53062  -0.50122  -0.48920
 Alpha  occ. eigenvalues --   -0.44510  -0.42694  -0.41524  -0.40529  -0.37956
 Alpha  occ. eigenvalues --   -0.36632  -0.34871  -0.34226  -0.32243  -0.32094
 Alpha  occ. eigenvalues --   -0.29938  -0.28975  -0.28845  -0.23380
 Alpha virt. eigenvalues --    0.08477   0.09333   0.11577   0.12036   0.12959
 Alpha virt. eigenvalues --    0.13351   0.14041   0.14963   0.15534   0.16523
 Alpha virt. eigenvalues --    0.16908   0.18144   0.18646   0.19334   0.20769

 Mulliken charges:
               1
     1  C   -0.437507
     2  C    0.054756
     3  C   -0.029851
     4  C   -0.244722
     5  C   -0.106151
     6  C    0.410757
     7  C   -0.327712
     8  N   -0.384659
     9  C   -0.294227
    10  H    0.115676
    11  H    0.114673
    12  H    0.117664
    13  H    0.062386
    14  H    0.056753
    15  H    0.098156
    16  H    0.098050
    17  H    0.048004
    18  H    0.105061
    19  H    0.113819
    20  H    0.223652
    21  H    0.109066
    22  H    0.096355
 Sum of Mulliken charges =   0.00000

 Dipole moment (field-independent basis, Debye):
    X=              1.3300    Y=             -1.0516    Z=              0.1922  Tot=              1.7064
 Quadrupole moment (field-independent basis, Debye-Ang):
   XX=            -60.3716   YY=            -54.9181   ZZ=            -53.3860
   XY=              3.0778   XZ=             -0.0109   YZ=             -0.9926

  Exact polarizability:  96.694   2.006  81.754   0.748   0.444  79.369
 Approx polarizability: 126.602   2.665 122.582  -0.722   2.447 122.692

                      1                      2                      3
                      A                      A                      A
 Frequencies --    123.8619               194.9767               227.6250
 Red. masses --      3.2037                 1.0688                 2.6156
 Frc consts  --      0.0290                 0.0239                 0.0798
 IR Inten    --      0.5517                 0.0507                 1.1944

                      4                      5                      6
                      A                      A                      A
 Frequencies --    253.6275               318.9282               355.5650
 Red. masses --      2.3633                 2.3368                 2.6178
 Frc consts  --      0.0896                 0.1400                 0.1950
 IR Inten    --      0.6901                 1.7305                 3.9297

                      7                      8                      9
                      A                      A                      A
 Frequencies --    435.4982               452.3630               520.3166
 Red. masses --      2.1015                 3.6707                 2.8892
 Frc consts  --      0.2348                 0.4426                 0.4608
 IR Inten    --      0.8931                 1.6771                 0.9723

                     10                     11                     12
                      A                      A                      A
 Frequencies --    546.2679               743.4406               781.0954
 Red. masses --      2.7392                 3.0905                 2.3636
 Frc consts  --      0.4816                 1.0064                 0.8496
 IR Inten    --      1.3830                 4.5415                 2.9641

                     13                     14                     15
                      A                      A                      A
 Frequencies --    827.4405               833.3416               847.7723
 Red. masses --      1.9988                 2.8763                 3.0600
 Frc consts  --      0.8063                 1.1769                 1.2958
 IR Inten    --      7.1170                 1.0423                33.5501

                     16                     17                     18
                      A                      A                      A
 Frequencies --    871.2407               909.5747               932.1385
 Red. masses --      2.0905                 1.8110                 2.9261
 Frc consts  --      0.9349                 0.8828                 1.4980
 IR Inten    --      5.2568                 3.6510                13.4650

                     19                     20                     21
                      A                      A                      A
 Frequencies --    945.5452               968.0710               985.9309
 Red. masses --      2.0568                 1.2958                 1.3540
 Frc consts  --      1.0835                 0.7155                 0.7755
 IR Inten    --      3.3842                 5.5111                 2.9049

                     22                     23                     24
                      A                      A                      A
 Frequencies --    997.4377              1019.0181              1059.8194
 Red. masses --      2.2255                 1.5480                 1.3303
 Frc consts  --      1.3045                 0.9471                 0.8804
 IR Inten    --      0.4586                 2.9788                 4.7214

                     25                     26                     27
                      A                      A                      A
 Frequencies --   1067.5096              1081.9566              1095.0210
 Red. masses --      1.3690                 1.1288                 2.1817
 Frc consts  --      0.9191                 0.7785                 1.5413
 IR Inten    --      7.1775                 0.6298                 3.5367

                     28                     29                     30
                      A                      A                      A
 Frequencies --   1108.8108              1118.3253              1141.3897
 Red. masses --      1.5890                 1.5171                 1.5133
 Frc consts  --      1.1511                 1.1179                 1.1616
 IR Inten    --      1.8059                 5.6630                 4.5243

                     31                     32                     33
                      A                      A                      A
 Frequencies --   1184.3882              1219.3463              1239.6173
 Red. masses --      1.4031                 1.4985                 1.5813
 Frc consts  --      1.1596                 1.3127                 1.4317
 IR Inten    --      0.2756                 3.7368                 4.9880

                     34                     35                     36
                      A                      A                      A
 Frequencies --   1245.9302              1253.5130              1264.9334
 Red. masses --      1.7155                 1.5243                 1.4034
 Frc consts  --      1.5691                 1.4111                 1.3230
 IR Inten    --      5.4399                 2.8361                 6.1623

                     37                     38                     39
                      A                      A                      A
 Frequencies --   1276.8924              1296.7911              1318.0095
 Red. masses --      1.6212                 1.5797                 2.0532
 Frc consts  --      1.5574                 1.5651                 2.1014
 IR Inten    --      1.3313                 1.2280                13.3348

                     40                     41                     42
                      A                      A                      A
 Frequencies --   1394.1434              1414.5164              1419.4002
 Red. masses --      1.4193                 1.2766                 2.4987
 Frc consts  --      1.6253                 1.5049                 2.9660
 IR Inten    --      1.9201                 1.2835                 8.1674

                     43                     44                     45
                      A                      A                      A
 Frequencies --   1488.7498              1497.1054              1499.2172
 Red. masses --      1.0895                 1.0497                 1.0722
 Frc consts  --      1.4227                 1.3861                 1.4199
 IR Inten    --      0.3266                 2.4884                 2.6659

                     46                     47                     48
                      A                      A                      A
 Frequencies --   1513.8806              1520.0350              3024.1615
 Red. masses --      1.2694                 1.1769                 1.0792
 Frc consts  --      1.7141                 1.6022                 5.8149
 IR Inten    --      3.1104                 3.9812                28.9907

                     49                     50                     51
                      A                      A                      A
 Frequencies --   3031.8462              3049.2469              3064.0738
 Red. masses --      1.0417                 1.0599                 1.0625
 Frc consts  --      5.6419                 5.8062                 5.8774
 IR Inten    --     37.8122                32.9469                23.5677

                     52                     53                     54
                      A                      A                      A
 Frequencies --   3085.4641              3088.1301              3095.5463
 Red. masses --      1.0895                 1.1002                 1.0527
 Frc consts  --      6.1109                 6.1820                 5.9431
 IR Inten    --     34.1977                35.1731                26.2416

                     55                     56                     57
                      A                      A                      A
 Frequencies --   3098.8022              3101.4131              3108.7391
 Red. masses --      1.1029                 1.0922                 1.1000
 Frc consts  --      6.2401                 6.1897                 6.2632
 IR Inten    --     18.6178                44.3424                38.3171

                     58                     59                     60
                      A                      A                      A
 Frequencies --   3136.8926              3178.4790              3477.0475
 Red. masses --      1.1012                 1.1183                 1.0756
 Frc consts  --      6.3843                 6.6567                 7.6619
 IR Inten    --     34.8262                16.8092                 0.2206

 - Thermochemistry -
 -------------------
 Temperature   298.150 Kelvin.  Pressure   1.00000 Atm.
 Atom     1 has atomic number  6 and mass  12.00000

 Molecular mass:   123.10480 amu.
 Principal axes and moments of inertia in atomic units:
                           1         2         3
     Eigenvalues --   545.612791390.873451486.40217
           X            0.99996  -0.00315   0.00795
           Y            0.00318   0.99998  -0.00451
           Z           -0.00794   0.00454   0.99996
 This molecule is an asymmetric top.
 Rotational symmetry number  1.
 Warning -- assumption of classical behavior for rotation
           may cause significant error
 Rotational temperatures (Kelvin)      0.15875     0.06227     0.05827
 Rotational constants (GHZ):           3.30773     1.29756     1.21417
 Zero-point vibrational energy     516489.0 (Joules/Mol)
                                  123.44384 (Kcal/Mol)
 Warning -- explicit consideration of  10 degrees of freedom as
           vibrations may cause significant error
 Vibrational temperatures:    178.21   280.53   327.50   364.91   458.87
          (Kelvin)            511.58   626.58   650.85   748.62   785.96
                             1069.65  1123.82  1190.50  1198.99  1219.76
                             1253.52  1308.68  1341.14  1360.43  1392.84
                             1418.53  1435.09  1466.14  1524.84  1535.91
                             1556.69  1575.49  1595.33  1609.02  1642.21
                             1704.07  1754.37  1783.53  1792.62  1803.53
                             1819.96  1837.16  1865.79  1896.32  2005.86
                             2035.17  2042.20  2141.98  2154.00  2157.04
                             2178.14  2186.99  4351.09  4362.15  4387.19
                             4408.52  4439.29  4443.13  4453.80  4458.49
                             4462.24  4472.78  4513.29  4573.12  5002.70

 Zero-point correction=                           0.196720 (Hartree/Particle)
 Thermal correction to Energy=                    0.204593
 Thermal correction to Enthalpy=                  0.205537
 Thermal correction to Gibbs Free Energy=         0.164812
 Sum of electronic and zero-point Energies=           -367.178135
 Sum of electronic and thermal Energies=              -367.170262
 Sum of electronic and thermal Enthalpies=            -367.169318
 Sum of electronic and thermal Free Energies=         -367.210043

                     E (Thermal)             CV                S
                      KCal/Mol        Cal/Mol-Kelvin    Cal/Mol-Kelvin
 Total                  128.384             32.495             85.714
 Electronic               0.000              0.000              0.000
 Translational            0.889              2.981             40.338
 Rotational               0.889              2.981             28.513
 Vibrational            126.607             26.534             16.863
 Vibration     1          0.610              1.929              3.039
 Vibration     2          0.636              1.847              2.180
 Vibration     3          0.651              1.799              1.898
 Vibration     4          0.665              1.757              1.705
 Vibration     5          0.705              1.637              1.316
 Vibration     6          0.731              1.564              1.141
 Vibration     7          0.796              1.393              0.841
 Vibration     8          0.811              1.356              0.789
 Vibration     9          0.875              1.205              0.609
 Vibration    10          0.901              1.148              0.552

                           ! Non-Optimized Parameters !
 Normal termination of Gaussian 16 at Thu Aug  4 02:18:01 2022.
