 Gaussian 16, Revision A.03,
 Gaussian 16:  ES64L-G16RevA.03 25-Dec-2016

 -----------------------------
 # opt freq b3lyp/6-31g(2df,p)
 -----------------------------

 -------------------
 Title Card Required
 -------------------
 Symbolic Z-matrix:
 Charge =  0 Multiplicity = 1

 SCF Done:  E(RB3LYP) =  -418.143216586     A.U. after   14 cycles
 SCF Done:  E(RB3LYP) =  -418.146518622     A.U. after   12 cycles
 SCF Done:  E(RB3LYP) =  -418.147513632     A.U. after   12 cycles
 SCF Done:  E(RB3LYP) =  -418.147847053     A.U. after   12 cycles
 SCF Done:  E(RB3LYP) =  -418.147872224     A.U. after   10 cycles
 SCF Done:  E(RB3LYP) =  -418.147874613     A.U. after    8 cycles
 SCF Done:  E(RB3LYP) =  -418.147874975     A.U. after    7 cycles
 SCF Done:  E(RB3LYP) =  -418.147875046     A.U. after    7 cycles
 Optimization completed.
    -- Stationary point found.
 Normal termination of Gaussian 16 at Sun Jul  3 23:03:22 2022.

 ----------------------------------------------------------------------
 #N Geom=AllCheck Guess=TCheck SCRF=Check GenChk RB3LYP/6-31G(2df,p) Fr
 eq
 ----------------------------------------------------------------------

 Structure from the checkpoint file:  "Cc1cccpONpcn1.chk"
 -------------------
 Title Card Required
 -------------------
 Charge =  0 Multiplicity = 1

                         Standard orientation:
 ---------------------------------------------------------------------
 Center     Atomic      Atomic             Coordinates (Angstroms)
 Number     Number       Type             X           Y           Z
 ---------------------------------------------------------------------
      1          6           0        3.288621   -0.196604    0.000410
      2          6           0        1.786024   -0.080068    0.000133
      3          6           0        0.955243   -1.199519   -0.000347
      4          6           0       -0.428926   -1.047765   -0.000722
      5          6           0       -0.938712    0.243434   -0.000559
      6          8           0       -2.265680    0.586112   -0.001562
      7          7           0       -3.141966   -0.553108    0.001611
      8          6           0       -0.039505    1.315730    0.000109
      9          7           0        1.279057    1.163547    0.000378
     10          1           0        3.611564   -1.240855    0.001272
     11          1           0        3.713756    0.298576    0.879601
     12          1           0        3.713982    0.297106   -0.879518
     13          1           0        1.386866   -2.195104   -0.000433
     14          1           0       -1.098402   -1.896597   -0.000945
     15          1           0       -3.736128   -0.385367   -0.810045
     16          1           0       -3.734128   -0.382557    0.814167
     17          1           0       -0.428176    2.331583    0.000329
 ---------------------------------------------------------------------

 SCF Done:  E(RB3LYP) =  -418.147875046     A.U. after    1 cycles

 The electronic state is 1-A.
 Alpha  occ. eigenvalues --  -19.19737 -14.38659 -14.31199 -10.23832 -10.20832
 Alpha  occ. eigenvalues --  -10.20527 -10.18797 -10.18383 -10.17117  -1.09364
 Alpha  occ. eigenvalues --   -0.93019  -0.85286  -0.78427  -0.75900  -0.67913
 Alpha  occ. eigenvalues --   -0.62725  -0.59159  -0.52478  -0.52464  -0.49845
 Alpha  occ. eigenvalues --   -0.47288  -0.43479  -0.42028  -0.41882  -0.39696
 Alpha  occ. eigenvalues --   -0.38931  -0.37175  -0.35658  -0.33409  -0.27942
 Alpha  occ. eigenvalues --   -0.27117  -0.24282  -0.21835
 Alpha virt. eigenvalues --   -0.01237   0.01361   0.06277   0.08798   0.11305
 Alpha virt. eigenvalues --    0.13554   0.13617   0.15273   0.15386   0.18080
 Alpha virt. eigenvalues --    0.20122   0.20367   0.22823   0.23607   0.27188

 Mulliken charges:
               1
     1  C   -0.466191
     2  C    0.314441
     3  C   -0.151574
     4  C   -0.201205
     5  C    0.343938
     6  O   -0.298577
     7  N   -0.377978
     8  C   -0.081675
     9  N   -0.309336
    10  H    0.112846
    11  H    0.134880
    12  H    0.134869
    13  H    0.093119
    14  H    0.120740
    15  H    0.262903
    16  H    0.262886
    17  H    0.105915
 Sum of Mulliken charges =   0.00000

 Dipole moment (field-independent basis, Debye):
    X=             -2.6335    Y=             -1.6725    Z=              0.0020  Tot=              3.1198
 Quadrupole moment (field-independent basis, Debye-Ang):
   XX=            -39.4436   YY=            -53.3567   ZZ=            -51.9492
   XY=             -2.2864   XZ=             -0.0096   YZ=              0.0061

  Exact polarizability: 119.253  -0.441  80.665  -0.003   0.009  44.276
 Approx polarizability: 168.762  -1.314 144.170   0.009   0.014  69.724

                      1                      2                      3
                      A                      A                      A
 Frequencies --     58.1641                71.9625               132.8772
 Red. masses --      1.1345                 3.2688                 2.1212
 Frc consts  --      0.0023                 0.0100                 0.0221
 IR Inten    --      0.7947                 0.4832                12.8729

                      4                      5                      6
                      A                      A                      A
 Frequencies --    161.6092               231.0519               348.5831
 Red. masses --      1.4036                 3.7736                 4.0755
 Frc consts  --      0.0216                 0.1187                 0.2918
 IR Inten    --     28.8997                 3.5179                 4.7983

                      7                      8                      9
                      A                      A                      A
 Frequencies --    357.7179               422.3318               432.0103
 Red. masses --      3.0203                 5.6063                 3.6584
 Frc consts  --      0.2277                 0.5892                 0.4023
 IR Inten    --      0.4349                 2.0024                 3.7627

                     10                     11                     12
                      A                      A                      A
 Frequencies --    532.2189               574.7117               647.9681
 Red. masses --      2.9050                 5.5958                 7.8894
 Frc consts  --      0.4848                 1.0890                 1.9516
 IR Inten    --      0.4406                 9.4260                 4.3328

                     13                     14                     15
                      A                      A                      A
 Frequencies --    745.5542               754.4881               854.5779
 Red. masses --      4.6252                 3.2401                 6.0383
 Frc consts  --      1.5148                 1.0867                 2.5982
 IR Inten    --     15.1607                 3.3414                 4.5610

                     16                     17                     18
                      A                      A                      A
 Frequencies --    863.0068               948.7172               949.6203
 Red. masses --      1.4066                 1.4257                 6.6789
 Frc consts  --      0.6172                 0.7560                 3.5486
 IR Inten    --     19.3148                 2.1242                13.5668

                     19                     20                     21
                      A                      A                      A
 Frequencies --    983.5782              1008.7976              1034.0514
 Red. masses --      1.3228                 1.4698                 2.8546
 Frc consts  --      0.7540                 0.8813                 1.7984
 IR Inten    --      2.7708                 0.3240                10.7023

                     22                     23                     24
                      A                      A                      A
 Frequencies --   1061.2499              1136.0734              1177.2886
 Red. masses --      1.5754                 1.2824                 1.5993
 Frc consts  --      1.0454                 0.9752                 1.3060
 IR Inten    --      4.9594                10.9284                81.2011

                     25                     26                     27
                      A                      A                      A
 Frequencies --   1247.2590              1279.4993              1312.2120
 Red. masses --      3.9384                 2.5030                 1.4890
 Frc consts  --      3.6098                 2.4143                 1.5106
 IR Inten    --      1.1614                70.7609                 3.0570

                     28                     29                     30
                      A                      A                      A
 Frequencies --   1334.9328              1337.7660              1411.4812
 Red. masses --      1.1091                 3.4477                 1.2833
 Frc consts  --      1.1645                 3.6353                 1.5063
 IR Inten    --      0.6708                62.5051                 0.2085

                     31                     32                     33
                      A                      A                      A
 Frequencies --   1418.6780              1476.7934              1491.6820
 Red. masses --      3.3309                 1.0452                 1.1542
 Frc consts  --      3.9498                 1.3430                 1.5131
 IR Inten    --     33.0390                 4.0152                21.5377

                     34                     35                     36
                      A                      A                      A
 Frequencies --   1511.4806              1614.1520              1633.9064
 Red. masses --      2.5838                 4.5633                 5.9320
 Frc consts  --      3.4779                 7.0051                 9.3305
 IR Inten    --    109.7619                28.6333                 0.7884

                     37                     38                     39
                      A                      A                      A
 Frequencies --   1661.0202              3037.3241              3095.5418
 Red. masses --      1.1677                 1.0360                 1.0998
 Frc consts  --      1.8981                 5.6311                 6.2095
 IR Inten    --     39.9804                25.8896                14.1038

                     40                     41                     42
                      A                      A                      A
 Frequencies --   3119.7691              3152.3356              3179.5086
 Red. masses --      1.1016                 1.0894                 1.0897
 Frc consts  --      6.3170                 6.3781                 6.4902
 IR Inten    --     15.9883                20.1856                13.9114

                     43                     44                     45
                      A                      A                      A
 Frequencies --   3233.5465              3438.6486              3522.0009
 Red. masses --      1.0916                 1.0478                 1.0957
 Frc consts  --      6.7247                 7.2994                 8.0078
 IR Inten    --      0.5164                 0.7811                 2.1757

 - Thermochemistry -
 -------------------
 Temperature   298.150 Kelvin.  Pressure   1.00000 Atm.
 Atom     1 has atomic number  6 and mass  12.00000

 Molecular mass:   124.06366 amu.
 Principal axes and moments of inertia in atomic units:
                           1         2         3
     Eigenvalues --   357.084571822.208952158.66124
           X            0.99999  -0.00354  -0.00002
           Y            0.00354   0.99999   0.00004
           Z            0.00002  -0.00004   1.00000
 This molecule is an asymmetric top.
 Rotational symmetry number  1.
 Rotational temperatures (Kelvin)      0.24256     0.04753     0.04012
 Rotational constants (GHZ):           5.05410     0.99041     0.83605
 Zero-point vibrational energy     358866.2 (Joules/Mol)
                                   85.77109 (Kcal/Mol)
 Warning -- explicit consideration of  11 degrees of freedom as
           vibrations may cause significant error
 Vibrational temperatures:     83.69   103.54   191.18   232.52   332.43
          (Kelvin)            501.53   514.68   607.64   621.57   765.74
                              826.88   932.28  1072.69  1085.54  1229.55
                             1241.67  1364.99  1366.29  1415.15  1451.43
                             1487.77  1526.90  1634.56  1693.86  1794.53
                             1840.91  1887.98  1920.67  1924.75  2030.81
                             2041.16  2124.78  2146.20  2174.68  2322.40
                             2350.83  2389.84  4370.03  4453.79  4488.65
                             4535.51  4574.60  4652.35  4947.45  5067.37

 Zero-point correction=                           0.136685 (Hartree/Particle)
 Thermal correction to Energy=                    0.145404
 Thermal correction to Enthalpy=                  0.146348
 Thermal correction to Gibbs Free Energy=         0.102522
 Sum of electronic and zero-point Energies=           -418.011190
 Sum of electronic and thermal Energies=              -418.002471
 Sum of electronic and thermal Enthalpies=            -418.001527
 Sum of electronic and thermal Free Energies=         -418.045353

                     E (Thermal)             CV                S
                      KCal/Mol        Cal/Mol-Kelvin    Cal/Mol-Kelvin
 Total                   91.242             31.326             92.240
 Electronic               0.000              0.000              0.000
 Translational            0.889              2.981             40.361
 Rotational               0.889              2.981             28.731
 Vibrational             89.465             25.365             23.149
 Vibration     1          0.596              1.974              4.519
 Vibration     2          0.598              1.967              4.099
 Vibration     3          0.613              1.920              2.904
 Vibration     4          0.622              1.889              2.531
 Vibration     5          0.653              1.794              1.871
 Vibration     6          0.726              1.578              1.173
 Vibration     7          0.733              1.559              1.132
 Vibration     8          0.785              1.422              0.884
 Vibration     9          0.793              1.400              0.852
 Vibration    10          0.887              1.179              0.582
 Vibration    11          0.931              1.086              0.495

                           ! Non-Optimized Parameters !
 Normal termination of Gaussian 16 at Sun Jul  3 23:26:59 2022.
