 Gaussian 16, Revision A.03,
 Gaussian 16:  ES64L-G16RevA.03 25-Dec-2016

 -----------------------------
 # opt freq b3lyp/6-31g(2df,p)
 -----------------------------

 -------------------
 Title Card Required
 -------------------
 Symbolic Z-matrix:
 Charge =  0 Multiplicity = 1

 SCF Done:  E(RB3LYP) =  -388.490941501     A.U. after   12 cycles
 SCF Done:  E(RB3LYP) =  -388.496319479     A.U. after   10 cycles
 SCF Done:  E(RB3LYP) =  -388.497095819     A.U. after   10 cycles
 SCF Done:  E(RB3LYP) =  -388.497302991     A.U. after   10 cycles
 SCF Done:  E(RB3LYP) =  -388.497359385     A.U. after    9 cycles
 SCF Done:  E(RB3LYP) =  -388.497365729     A.U. after    8 cycles
 SCF Done:  E(RB3LYP) =  -388.497366794     A.U. after    7 cycles
 Optimization completed.
    -- Stationary point found.
 Normal termination of Gaussian 16 at Thu Aug  4 03:12:28 2022.

 ----------------------------------------------------------------------
 #N Geom=AllCheck Guess=TCheck SCRF=Check GenChk RB3LYP/6-31G(2df,p) Fr
 eq
 ----------------------------------------------------------------------

 Structure from the checkpoint file:  "CC1C2CCCC1C2O.chk"
 -------------------
 Title Card Required
 -------------------
 Charge =  0 Multiplicity = 1

                         Standard orientation:
 ---------------------------------------------------------------------
 Center     Atomic      Atomic             Coordinates (Angstroms)
 Number     Number       Type             X           Y           Z
 ---------------------------------------------------------------------
      1          6           0       -1.236311    2.031374   -0.000387
      2          6           0        0.053611    1.223045   -0.000474
      3          6           0        0.339455    0.114804   -1.065705
      4          6           0       -0.909921   -0.748424   -1.300184
      5          6           0       -1.347255   -1.475939    0.000342
      6          6           0       -0.910097   -0.747464    1.300389
      7          6           0        0.339365    0.115616    1.065533
      8          6           0        1.260963   -0.556570    0.000244
      9          8           0        2.611104   -0.139269    0.000063
     10          1           0       -1.288219    2.679258   -0.882898
     11          1           0       -1.289104    2.677158    0.883630
     12          1           0       -2.132926    1.405752   -0.001579
     13          1           0        0.887646    1.936421   -0.000781
     14          1           0        0.809615    0.418390   -2.005907
     15          1           0       -0.705388   -1.492864   -2.077848
     16          1           0       -1.717458   -0.117970   -1.689291
     17          1           0       -0.895419   -2.472677    0.000734
     18          1           0       -2.428723   -1.643754    0.000332
     19          1           0       -0.705620   -1.491326    2.078623
     20          1           0       -1.717694   -0.116739    1.688922
     21          1           0        0.809213    0.419843    2.005701
     22          1           0        1.307095   -1.648627    0.000654
     23          1           0        2.639285    0.822642    0.000654
 ---------------------------------------------------------------------

 SCF Done:  E(RB3LYP) =  -388.497366794     A.U. after    1 cycles

 The electronic state is 1-A.
 Alpha  occ. eigenvalues --  -19.13030 -10.22081 -10.18535 -10.17895 -10.17882
 Alpha  occ. eigenvalues --  -10.17881 -10.17838 -10.17835 -10.17425  -1.01378
 Alpha  occ. eigenvalues --   -0.85966  -0.75755  -0.72697  -0.71727  -0.62317
 Alpha  occ. eigenvalues --   -0.59729  -0.58915  -0.52314  -0.49276  -0.47100
 Alpha  occ. eigenvalues --   -0.45172  -0.43598  -0.41354  -0.40193  -0.39155
 Alpha  occ. eigenvalues --   -0.37255  -0.37189  -0.36588  -0.35947  -0.33995
 Alpha  occ. eigenvalues --   -0.32963  -0.29811  -0.28136  -0.27686  -0.24211
 Alpha virt. eigenvalues --    0.07135   0.07760   0.10041   0.12747   0.12779
 Alpha virt. eigenvalues --    0.13852   0.15770   0.15976   0.16554   0.16735
 Alpha virt. eigenvalues --    0.17547   0.17645   0.18816   0.19395   0.21464

 Mulliken charges:
               1
     1  C   -0.438847
     2  C    0.035593
     3  C   -0.066371
     4  C   -0.214863
     5  C   -0.201468
     6  C   -0.214849
     7  C   -0.066400
     8  C    0.172829
     9  O   -0.460180
    10  H    0.113902
    11  H    0.113928
    12  H    0.119739
    13  H    0.052184
    14  H    0.055812
    15  H    0.095788
    16  H    0.099032
    17  H    0.108085
    18  H    0.093346
    19  H    0.095785
    20  H    0.099038
    21  H    0.055783
    22  H    0.073727
    23  H    0.278409
 Sum of Mulliken charges =  -0.00000

 Dipole moment (field-independent basis, Debye):
    X=             -1.3255    Y=              0.9199    Z=              0.0009  Tot=              1.6135
 Quadrupole moment (field-independent basis, Debye-Ang):
   XX=            -60.9641   YY=            -53.9559   ZZ=            -56.2930
   XY=              3.5752   XZ=              0.0022   YZ=              0.0009

  Exact polarizability:  85.181   0.968  86.006  -0.001   0.001  80.063
 Approx polarizability: 121.877   0.142 122.363  -0.001   0.003 117.002

                      1                      2                      3
                      A                      A                      A
 Frequencies --    141.2428               192.0296               208.7829
 Red. masses --      2.1122                 1.1861                 3.5407
 Frc consts  --      0.0248                 0.0258                 0.0909
 IR Inten    --      0.0174                 0.0043                 2.7075

                      4                      5                      6
                      A                      A                      A
 Frequencies --    212.3963               272.1047               274.0567
 Red. masses --      1.0721                 1.7176                 2.2836
 Frc consts  --      0.0285                 0.0749                 0.1011
 IR Inten    --     61.9177                 0.1510                 0.8085

                      7                      8                      9
                      A                      A                      A
 Frequencies --    303.0386               354.1754               437.3689
 Red. masses --      3.0430                 2.8237                 3.9367
 Frc consts  --      0.1646                 0.2087                 0.4437
 IR Inten    --      9.8118                11.1405                 0.7490

                     10                     11                     12
                      A                      A                      A
 Frequencies --    520.4204               528.8375               612.2393
 Red. masses --      3.1809                 3.8734                 2.6237
 Frc consts  --      0.5076                 0.6382                 0.5794
 IR Inten    --      0.3485                 0.8630                 2.6920

                     13                     14                     15
                      A                      A                      A
 Frequencies --    710.8656               782.6820               805.1425
 Red. masses --      1.8019                 2.7024                 2.2012
 Frc consts  --      0.5365                 0.9754                 0.8407
 IR Inten    --      6.2749                 0.2886                 0.0025

                     16                     17                     18
                      A                      A                      A
 Frequencies --    854.6725               861.7394               873.7205
 Red. masses --      1.8825                 2.6382                 2.1852
 Frc consts  --      0.8102                 1.1543                 0.9829
 IR Inten    --      2.2679                 2.6396                14.9366

                     19                     20                     21
                      A                      A                      A
 Frequencies --    945.1512               954.4792               969.7643
 Red. masses --      1.7968                 1.9170                 2.0154
 Frc consts  --      0.9457                 1.0290                 1.1167
 IR Inten    --      0.2744                 4.6705                 0.2262

                     22                     23                     24
                      A                      A                      A
 Frequencies --   1007.8037              1037.2646              1061.2705
 Red. masses --      1.8469                 1.6063                 2.2700
 Frc consts  --      1.1052                 1.0182                 1.5063
 IR Inten    --     16.0499                 0.4612                 1.5046

                     25                     26                     27
                      A                      A                      A
 Frequencies --   1090.1920              1097.0198              1110.8612
 Red. masses --      1.2988                 1.5258                 3.1047
 Frc consts  --      0.9095                 1.0819                 2.2573
 IR Inten    --      0.5038                 8.0127                94.6625

                     28                     29                     30
                      A                      A                      A
 Frequencies --   1130.0977              1163.3159              1167.3715
 Red. masses --      1.2346                 1.6465                 2.9405
 Frc consts  --      0.9290                 1.3129                 2.3610
 IR Inten    --      0.0659                 0.1584                 5.0409

                     31                     32                     33
                      A                      A                      A
 Frequencies --   1226.5090              1228.3062              1251.7966
 Red. masses --      1.4471                 1.4392                 1.4183
 Frc consts  --      1.2826                 1.2794                 1.3094
 IR Inten    --      0.9533                46.3288                 0.1622

                     34                     35                     36
                      A                      A                      A
 Frequencies --   1261.9025              1269.4683              1312.3164
 Red. masses --      1.3376                 1.5348                 1.5412
 Frc consts  --      1.2549                 1.4573                 1.5638
 IR Inten    --      4.6360                 0.2419                 0.2621

                     37                     38                     39
                      A                      A                      A
 Frequencies --   1322.6504              1337.0210              1353.5449
 Red. masses --      1.3155                 1.7650                 1.3484
 Frc consts  --      1.3559                 1.8590                 1.4556
 IR Inten    --      0.0001                 3.9707                 0.0017

                     40                     41                     42
                      A                      A                      A
 Frequencies --   1372.3170              1373.4398              1403.4603
 Red. masses --      1.3562                 1.3479                 1.3240
 Frc consts  --      1.5048                 1.4981                 1.5366
 IR Inten    --      0.5208                 5.6131                 1.3054

                     43                     44                     45
                      A                      A                      A
 Frequencies --   1411.7900              1445.9498              1486.3016
 Red. masses --      1.3313                 1.2381                 1.0670
 Frc consts  --      1.5634                 1.5251                 1.3887
 IR Inten    --      2.2938                57.4654                 4.2716

                     46                     47                     48
                      A                      A                      A
 Frequencies --   1490.0401              1497.1711              1512.3072
 Red. masses --      1.0641                 1.0566                 1.0631
 Frc consts  --      1.3920                 1.3954                 1.4326
 IR Inten    --      1.3828                 1.0190                 0.0116

                     49                     50                     51
                      A                      A                      A
 Frequencies --   1516.7055              3006.5779              3027.6061
 Red. masses --      1.0903                 1.0827                 1.0485
 Frc consts  --      1.4778                 5.7663                 5.6628
 IR Inten    --      9.0492                35.6013                 8.5164

                     52                     53                     54
                      A                      A                      A
 Frequencies --   3030.5324              3030.8652              3044.2330
 Red. masses --      1.0507                 1.0603                 1.0742
 Frc consts  --      5.6856                 5.7384                 5.8652
 IR Inten    --     25.5602                38.6136                20.5670

                     55                     56                     57
                      A                      A                      A
 Frequencies --   3056.7768              3058.2304              3064.0998
 Red. masses --      1.0890                 1.0885                 1.0869
 Frc consts  --      5.9955                 5.9981                 6.0123
 IR Inten    --     72.0275                72.4587                 4.3291

                     58                     59                     60
                      A                      A                      A
 Frequencies --   3064.4966              3075.2456              3085.8831
 Red. masses --      1.1011                 1.0894                 1.1006
 Frc consts  --      6.0923                 6.0699                 6.1750
 IR Inten    --     31.5370                15.4658                21.7031

                     61                     62                     63
                      A                      A                      A
 Frequencies --   3089.1492              3109.2273              3818.2058
 Red. masses --      1.1021                 1.0983                 1.0654
 Frc consts  --      6.1963                 6.2558                 9.1511
 IR Inten    --     83.3728                31.9509                10.4116

 - Thermochemistry -
 -------------------
 Temperature   298.150 Kelvin.  Pressure   1.00000 Atm.
 Atom     1 has atomic number  6 and mass  12.00000

 Molecular mass:   126.10447 amu.
 Principal axes and moments of inertia in atomic units:
                           1         2         3
     Eigenvalues --   859.633621125.191981327.96779
           X            0.99988   0.01543   0.00000
           Y           -0.01543   0.99988   0.00001
           Z           -0.00000  -0.00001   1.00000
 This molecule is an asymmetric top.
 Rotational symmetry number  1.
 Warning -- assumption of classical behavior for rotation
           may cause significant error
 Rotational temperatures (Kelvin)      0.10076     0.07698     0.06522
 Rotational constants (GHZ):           2.09943     1.60394     1.35902
 Zero-point vibrational energy     546180.4 (Joules/Mol)
                                  130.54025 (Kcal/Mol)
 Warning -- explicit consideration of  12 degrees of freedom as
           vibrations may cause significant error
 Vibrational temperatures:    203.22   276.29   300.39   305.59   391.50
          (Kelvin)            394.31   436.00   509.58   629.28   748.77
                              760.88   880.88  1022.78  1126.10  1158.42
                             1229.68  1239.85  1257.09  1359.86  1373.28
                             1395.27  1450.00  1492.39  1526.93  1568.54
                             1578.37  1598.28  1625.96  1673.75  1679.59
                             1764.67  1767.26  1801.06  1815.60  1826.48
                             1888.13  1903.00  1923.67  1947.45  1974.46
                             1976.07  2019.27  2031.25  2080.40  2138.46
                             2143.84  2154.10  2175.87  2182.20  4325.79
                             4356.05  4360.26  4360.74  4379.97  4398.02
                             4400.11  4408.56  4409.13  4424.59  4439.90
                             4444.60  4473.48  5493.55

 Zero-point correction=                           0.208029 (Hartree/Particle)
 Thermal correction to Energy=                    0.216695
 Thermal correction to Enthalpy=                  0.217639
 Thermal correction to Gibbs Free Energy=         0.175437
 Sum of electronic and zero-point Energies=           -388.289338
 Sum of electronic and thermal Energies=              -388.280672
 Sum of electronic and thermal Enthalpies=            -388.279728
 Sum of electronic and thermal Free Energies=         -388.321930

                     E (Thermal)             CV                S
                      KCal/Mol        Cal/Mol-Kelvin    Cal/Mol-Kelvin
 Total                  135.978             34.805             88.823
 Electronic               0.000              0.000              0.000
 Translational            0.889              2.981             40.409
 Rotational               0.889              2.981             28.642
 Vibrational            134.201             28.843             19.771
 Vibration     1          0.615              1.912              2.787
 Vibration     2          0.634              1.851              2.208
 Vibration     3          0.642              1.827              2.054
 Vibration     4          0.643              1.822              2.023
 Vibration     5          0.675              1.725              1.583
 Vibration     6          0.676              1.721              1.570
 Vibration     7          0.694              1.668              1.400
 Vibration     8          0.730              1.567              1.148
 Vibration     9          0.798              1.389              0.835
 Vibration    10          0.875              1.205              0.609
 Vibration    11          0.884              1.186              0.590
 Vibration    12          0.971              1.006              0.429

                           ! Non-Optimized Parameters !
 Normal termination of Gaussian 16 at Thu Aug  4 03:59:07 2022.
