 Gaussian 16, Revision A.03,
 Gaussian 16:  ES64L-G16RevA.03 25-Dec-2016

 -----------------------------
 # opt freq b3lyp/6-31g(2df,p)
 -----------------------------

 -------------------
 Title Card Required
 -------------------
 Symbolic Z-matrix:
 Charge =  0 Multiplicity = 1

 SCF Done:  E(RB3LYP) =  -326.885721249     A.U. after   15 cycles
 SCF Done:  E(RB3LYP) =  -326.911397896     A.U. after   13 cycles
 SCF Done:  E(RB3LYP) =  -326.912008713     A.U. after   11 cycles
 SCF Done:  E(RB3LYP) =  -326.912068183     A.U. after   11 cycles
 SCF Done:  E(RB3LYP) =  -326.912071094     A.U. after   10 cycles
 SCF Done:  E(RB3LYP) =  -326.912078131     A.U. after    9 cycles
 SCF Done:  E(RB3LYP) =  -326.912078477     A.U. after    7 cycles
 SCF Done:  E(RB3LYP) =  -326.912078530     A.U. after    7 cycles
 Optimization completed.
    -- Stationary point found.
 Normal termination of Gaussian 16 at Thu Aug  4 14:52:48 2022.

 ----------------------------------------------------------------------
 #N Geom=AllCheck Guess=TCheck SCRF=Check GenChk RB3LYP/6-31G(2df,p) Fr
 eq
 ----------------------------------------------------------------------

 Structure from the checkpoint file:  "CC1CdCpCtNpCC1.chk"
 -------------------
 Title Card Required
 -------------------
 Charge =  0 Multiplicity = 1

                         Standard orientation:
 ---------------------------------------------------------------------
 Center     Atomic      Atomic             Coordinates (Angstroms)
 Number     Number       Type             X           Y           Z
 ---------------------------------------------------------------------
      1          6           0        2.609026   -0.909836    0.333455
      2          6           0        1.467663   -0.200719   -0.404454
      3          6           0        0.124895   -0.877503   -0.274751
      4          6           0       -0.866847   -0.002683   -0.061191
      5          6           0       -2.244537   -0.329236    0.063631
      6          7           0       -3.374352   -0.562237    0.172821
      7          6           0       -0.358068    1.429576   -0.019791
      8          6           0        1.171471    1.234973    0.109200
      9          1           0        2.770995   -1.919396   -0.057818
     10          1           0        2.390547   -0.992653    1.403425
     11          1           0        3.545707   -0.354486    0.221980
     12          1           0        1.727695   -0.167876   -1.474427
     13          1           0       -0.010632   -1.948260   -0.378516
     14          1           0       -0.789015    2.004502    0.804967
     15          1           0       -0.633958    1.951551   -0.944924
     16          1           0        1.457000    1.296206    1.165113
     17          1           0        1.740500    1.998637   -0.426139
 ---------------------------------------------------------------------

 SCF Done:  E(RB3LYP) =  -326.912078530     A.U. after    1 cycles

 The electronic state is 1-A.
 Alpha  occ. eigenvalues --  -14.32509 -10.22686 -10.21652 -10.21194 -10.20996
 Alpha  occ. eigenvalues --  -10.20545 -10.19773 -10.18969  -0.90067  -0.86880
 Alpha  occ. eigenvalues --   -0.77279  -0.73738  -0.67726  -0.61152  -0.57384
 Alpha  occ. eigenvalues --   -0.53002  -0.48764  -0.44073  -0.43210  -0.40297
 Alpha  occ. eigenvalues --   -0.39430  -0.38342  -0.37621  -0.36069  -0.34986
 Alpha  occ. eigenvalues --   -0.34270  -0.34110  -0.31920  -0.25897
 Alpha virt. eigenvalues --   -0.03942   0.03848   0.07954   0.09421   0.10706
 Alpha virt. eigenvalues --    0.12511   0.12792   0.14990   0.15583   0.15952
 Alpha virt. eigenvalues --    0.16560   0.18658   0.19265   0.20404   0.21330

 Mulliken charges:
               1
     1  C   -0.401145
     2  C   -0.007356
     3  C   -0.148260
     4  C    0.194229
     5  C    0.198834
     6  N   -0.336940
     7  C   -0.314982
     8  C   -0.228007
     9  H    0.119738
    10  H    0.122715
    11  H    0.122017
    12  H    0.094237
    13  H    0.117171
    14  H    0.124883
    15  H    0.124458
    16  H    0.111028
    17  H    0.107381
 Sum of Mulliken charges =  -0.00000

 Dipole moment (field-independent basis, Debye):
    X=              4.5124    Y=              0.8517    Z=             -0.4847  Tot=              4.6176
 Quadrupole moment (field-independent basis, Debye-Ang):
   XX=            -62.8748   YY=            -45.4701   ZZ=            -47.3368
   XY=             -3.3974   XZ=              0.5449   YZ=              0.4914

  Exact polarizability: 108.217  -2.702  71.282  -3.758   1.051  53.755
 Approx polarizability: 164.882  -7.436 104.678 -10.831   2.684  84.048

                      1                      2                      3
                      A                      A                      A
 Frequencies --    104.2252               127.6881               154.7570
 Red. masses --      2.7707                 2.5431                 5.0326
 Frc consts  --      0.0177                 0.0244                 0.0710
 IR Inten    --      0.8029                 1.9882                 4.6222

                      4                      5                      6
                      A                      A                      A
 Frequencies --    237.9722               299.6118               342.4492
 Red. masses --      1.0865                 3.0964                 2.6233
 Frc consts  --      0.0363                 0.1638                 0.1813
 IR Inten    --      0.2308                 1.1984                 0.5472

                      7                      8                      9
                      A                      A                      A
 Frequencies --    464.1197               528.3139               559.2945
 Red. masses --      3.0681                 4.5248                 3.1111
 Frc consts  --      0.3894                 0.7441                 0.5734
 IR Inten    --      1.1604                 0.2820                 8.7128

                     10                     11                     12
                      A                      A                      A
 Frequencies --    571.7276               614.1545               812.5612
 Red. masses --      5.4907                 3.3409                 1.5277
 Frc consts  --      1.0574                 0.7425                 0.5943
 IR Inten    --      2.6140                 0.3692                 1.3106

                     13                     14                     15
                      A                      A                      A
 Frequencies --    850.1256               903.0107               908.4631
 Red. masses --      4.3004                 1.4280                 2.5452
 Frc consts  --      1.8312                 0.6861                 1.2376
 IR Inten    --      0.1628                 8.4447                 4.1234

                     16                     17                     18
                      A                      A                      A
 Frequencies --    931.9989               968.2428               996.8814
 Red. masses --      1.8520                 1.4298                 1.9486
 Frc consts  --      0.9478                 0.7897                 1.1409
 IR Inten    --      1.2092                 0.4264                 0.7594

                     19                     20                     21
                      A                      A                      A
 Frequencies --   1043.9694              1105.1190              1125.5832
 Red. masses --      2.0539                 1.8472                 1.5470
 Frc consts  --      1.3189                 1.3292                 1.1547
 IR Inten    --      2.9738                 2.6420                 3.1469

                     22                     23                     24
                      A                      A                      A
 Frequencies --   1167.1984              1203.1899              1240.1060
 Red. masses --      2.1435                 1.5734                 1.5335
 Frc consts  --      1.7205                 1.3420                 1.3895
 IR Inten    --      2.0189                 0.1723                 2.5344

                     25                     26                     27
                      A                      A                      A
 Frequencies --   1273.8455              1309.2906              1320.0454
 Red. masses --      1.3681                 1.3465                 1.4441
 Frc consts  --      1.3080                 1.3599                 1.4827
 IR Inten    --      1.3527                 0.4025                 6.7428

                     28                     29                     30
                      A                      A                      A
 Frequencies --   1331.1030              1364.2674              1410.7637
 Red. masses --      1.6679                 1.6375                 1.2249
 Frc consts  --      1.7412                 1.7957                 1.4364
 IR Inten    --      0.7056                 4.5602                 1.0265

                     31                     32                     33
                      A                      A                      A
 Frequencies --   1484.8413              1497.0900              1498.8061
 Red. masses --      1.0814                 1.0517                 1.0552
 Frc consts  --      1.4047                 1.3888                 1.3966
 IR Inten    --      0.9451                 3.3265                 3.1407

                     34                     35                     36
                      A                      A                      A
 Frequencies --   1501.9087              1675.3834              2336.4029
 Red. masses --      1.0874                 7.6451                12.6681
 Frc consts  --      1.4452                12.6433                40.7433
 IR Inten    --      3.0923                 5.3372                29.7435

                     37                     38                     39
                      A                      A                      A
 Frequencies --   2976.1950              3029.3370              3031.7408
 Red. masses --      1.0813                 1.0672                 1.0355
 Frc consts  --      5.6431                 5.7701                 5.6079
 IR Inten    --     20.4086                26.8156                18.7562

                     40                     41                     42
                      A                      A                      A
 Frequencies --   3046.8053              3083.1631              3101.9695
 Red. masses --      1.0652                 1.0933                 1.1019
 Frc consts  --      5.8260                 6.1232                 6.2467
 IR Inten    --     24.8231                17.1732                15.5690

                     43                     44                     45
                      A                      A                      A
 Frequencies --   3104.6788              3106.8858              3201.7896
 Red. masses --      1.1018                 1.1015                 1.0944
 Frc consts  --      6.2575                 6.2642                 6.6104
 IR Inten    --     15.3067                45.9867                 4.2206

 - Thermochemistry -
 -------------------
 Temperature   298.150 Kelvin.  Pressure   1.00000 Atm.
 Atom     1 has atomic number  6 and mass  12.00000

 Molecular mass:   107.07350 amu.
 Principal axes and moments of inertia in atomic units:
                           1         2         3
     Eigenvalues --   366.599341432.531741711.10999
           X            0.99975  -0.02149   0.00631
           Y            0.02149   0.99977   0.00022
           Z           -0.00631  -0.00008   0.99998
 This molecule is an asymmetric top.
 Rotational symmetry number  1.
 Rotational temperatures (Kelvin)      0.23626     0.06046     0.05062
 Rotational constants (GHZ):           4.92293     1.25983     1.05472
 Zero-point vibrational energy     376507.1 (Joules/Mol)
                                   89.98736 (Kcal/Mol)
 Warning -- explicit consideration of  11 degrees of freedom as
           vibrations may cause significant error
 Vibrational temperatures:    149.96   183.71   222.66   342.39   431.07
          (Kelvin)            492.71   667.76   760.13   804.70   822.59
                              883.63  1169.09  1223.14  1299.23  1307.08
                             1340.94  1393.09  1434.29  1502.04  1590.02
                             1619.46  1679.34  1731.12  1784.24  1832.78
                             1883.78  1899.25  1915.16  1962.88  2029.77
                             2136.36  2153.98  2156.45  2160.91  2410.50
                             3361.56  4282.08  4358.54  4362.00  4383.67
                             4435.98  4463.04  4466.94  4470.12  4606.66

 Zero-point correction=                           0.143404 (Hartree/Particle)
 Thermal correction to Energy=                    0.151126
 Thermal correction to Enthalpy=                  0.152070
 Thermal correction to Gibbs Free Energy=         0.111260
 Sum of electronic and zero-point Energies=           -326.768675
 Sum of electronic and thermal Energies=              -326.760953
 Sum of electronic and thermal Enthalpies=            -326.760009
 Sum of electronic and thermal Free Energies=         -326.800819

                     E (Thermal)             CV                S
                      KCal/Mol        Cal/Mol-Kelvin    Cal/Mol-Kelvin
 Total                   94.833             28.570             85.892
 Electronic               0.000              0.000              0.000
 Translational            0.889              2.981             39.922
 Rotational               0.889              2.981             28.287
 Vibrational             93.055             22.609             17.683
 Vibration     1          0.605              1.946              3.374
 Vibration     2          0.611              1.926              2.981
 Vibration     3          0.620              1.897              2.613
 Vibration     4          0.656              1.782              1.818
 Vibration     5          0.692              1.674              1.419
 Vibration     6          0.722              1.591              1.201
 Vibration     7          0.822              1.330              0.754
 Vibration     8          0.883              1.187              0.591
 Vibration     9          0.915              1.119              0.525
 Vibration    10          0.928              1.092              0.501
 Vibration    11          0.974              1.002              0.426

                           ! Non-Optimized Parameters !
 Normal termination of Gaussian 16 at Thu Aug  4 15:12:28 2022.
