 Gaussian 16, Revision A.03,
 Gaussian 16:  ES64L-G16RevA.03 25-Dec-2016

 -----------------------------
 # opt freq b3lyp/6-31g(2df,p)
 -----------------------------

 -------------------
 Title Card Required
 -------------------
 Symbolic Z-matrix:
 Charge =  0 Multiplicity = 1

 SCF Done:  E(RB3LYP) =  -383.402780074     A.U. after   13 cycles
 SCF Done:  E(RB3LYP) =  -383.430876202     A.U. after   12 cycles
 SCF Done:  E(RB3LYP) =  -383.446428940     A.U. after   12 cycles
 SCF Done:  E(RB3LYP) =  -383.450430665     A.U. after   11 cycles
 SCF Done:  E(RB3LYP) =  -383.452397778     A.U. after   11 cycles
 SCF Done:  E(RB3LYP) =  -383.453163145     A.U. after   11 cycles
 SCF Done:  E(RB3LYP) =  -383.454072170     A.U. after   12 cycles
 SCF Done:  E(RB3LYP) =  -383.455364823     A.U. after   12 cycles
 SCF Done:  E(RB3LYP) =  -383.455267357     A.U. after    9 cycles
 SCF Done:  E(RB3LYP) =  -383.457458542     A.U. after   12 cycles
 SCF Done:  E(RB3LYP) =  -383.465284178     A.U. after   12 cycles
 SCF Done:  E(RB3LYP) =  -383.465705766     A.U. after   12 cycles
 SCF Done:  E(RB3LYP) =  -383.466258428     A.U. after   10 cycles
 SCF Done:  E(RB3LYP) =  -383.466570149     A.U. after   11 cycles
 SCF Done:  E(RB3LYP) =  -383.466648260     A.U. after   10 cycles
 SCF Done:  E(RB3LYP) =  -383.466681539     A.U. after    9 cycles
 SCF Done:  E(RB3LYP) =  -383.466687951     A.U. after    8 cycles
 SCF Done:  E(RB3LYP) =  -383.466688527     A.U. after    7 cycles
 SCF Done:  E(RB3LYP) =  -383.466688802     A.U. after    7 cycles
 Optimization completed.
    -- Stationary point found.
 Normal termination of Gaussian 16 at Sun Jul  3 11:01:26 2022.

 ----------------------------------------------------------------------
 #N Geom=AllCheck Guess=TCheck SCRF=Check GenChk RB3LYP/6-31G(2df,p) Fr
 eq
 ----------------------------------------------------------------------

 Structure from the checkpoint file:  "CC1CNCpdNpC2CC12.chk"
 -------------------
 Title Card Required
 -------------------
 Charge =  0 Multiplicity = 1

                         Standard orientation:
 ---------------------------------------------------------------------
 Center     Atomic      Atomic             Coordinates (Angstroms)
 Number     Number       Type             X           Y           Z
 ---------------------------------------------------------------------
      1          6           0       -2.831497   -0.257157   -0.298652
      2          6           0       -1.422546   -0.146831    0.292197
      3          6           0       -0.608988   -1.415096    0.014883
      4          7           0        0.778831   -1.246536    0.452162
      5          6           0        1.559175   -0.244533   -0.116713
      6          7           0        2.821550   -0.291227   -0.320103
      7          6           0        0.818790    1.004579   -0.455784
      8          6           0        0.236551    1.856172    0.656793
      9          6           0       -0.681993    1.083129   -0.246310
     10          1           0       -3.363399   -1.128049    0.098822
     11          1           0       -2.794725   -0.355956   -1.389629
     12          1           0       -3.423331    0.632880   -0.064053
     13          1           0       -1.511013   -0.052156    1.381567
     14          1           0       -0.667769   -1.660675   -1.058861
     15          1           0       -1.033104   -2.261636    0.564313
     16          1           0        1.281742   -2.114299    0.579961
     17          1           0        3.202676   -1.203944   -0.057131
     18          1           0        1.256313    1.538605   -1.289752
     19          1           0        0.306018    2.932356    0.545587
     20          1           0        0.355740    1.496759    1.673653
     21          1           0       -1.228766    1.658883   -0.987375
 ---------------------------------------------------------------------

 SCF Done:  E(RB3LYP) =  -383.466688802     A.U. after    1 cycles

 The electronic state is 1-A.
 Alpha  occ. eigenvalues --  -14.33867 -14.27673 -10.24064 -10.21865 -10.19589
 Alpha  occ. eigenvalues --  -10.19373 -10.18990 -10.18656 -10.18175  -0.94966
 Alpha  occ. eigenvalues --   -0.85919  -0.85090  -0.77904  -0.68027  -0.64753
 Alpha  occ. eigenvalues --   -0.62564  -0.58112  -0.53130  -0.50422  -0.48679
 Alpha  occ. eigenvalues --   -0.47258  -0.45779  -0.42590  -0.41826  -0.39681
 Alpha  occ. eigenvalues --   -0.37610  -0.36425  -0.35968  -0.34330  -0.32741
 Alpha  occ. eigenvalues --   -0.29155  -0.27292  -0.24719  -0.22144
 Alpha virt. eigenvalues --    0.03249   0.07674   0.09161   0.09579   0.12193
 Alpha virt. eigenvalues --    0.13309   0.14225   0.15073   0.16228   0.17089
 Alpha virt. eigenvalues --    0.17476   0.18043   0.18521   0.19622   0.21127

 Mulliken charges:
               1
     1  C   -0.412403
     2  C    0.029504
     3  C   -0.173395
     4  N   -0.341028
     5  C    0.340672
     6  N   -0.539957
     7  C   -0.040030
     8  C   -0.291503
     9  C   -0.050607
    10  H    0.112265
    11  H    0.119533
    12  H    0.120608
    13  H    0.083380
    14  H    0.096353
    15  H    0.103318
    16  H    0.225825
    17  H    0.189497
    18  H    0.107033
    19  H    0.114833
    20  H    0.121971
    21  H    0.084134
 Sum of Mulliken charges =  -0.00000

 Dipole moment (field-independent basis, Debye):
    X=             -2.8272    Y=             -1.4923    Z=              0.4430  Tot=              3.2274
 Quadrupole moment (field-independent basis, Debye-Ang):
   XX=            -63.2706   YY=            -48.3459   ZZ=            -55.3965
   XY=             -3.7617   XZ=              2.2456   YZ=             -1.3776

  Exact polarizability: 103.684  -1.122  85.107  -1.808  -1.336  65.572
 Approx polarizability: 143.670  -0.807 119.432  -6.390  -3.000 105.435

                      1                      2                      3
                      A                      A                      A
 Frequencies --     59.9026               190.5635               229.8260
 Red. masses --      3.8238                 3.0242                 1.6618
 Frc consts  --      0.0081                 0.0647                 0.0517
 IR Inten    --      1.9677                 1.6078                 1.4426

                      4                      5                      6
                      A                      A                      A
 Frequencies --    247.2667               286.4637               298.2548
 Red. masses --      1.3716                 2.5562                 2.1778
 Frc consts  --      0.0494                 0.1236                 0.1141
 IR Inten    --      0.6671                 0.8657                 2.9021

                      7                      8                      9
                      A                      A                      A
 Frequencies --    400.2595               422.7624               458.8394
 Red. masses --      4.0768                 3.7613                 3.0018
 Frc consts  --      0.3848                 0.3961                 0.3724
 IR Inten    --     12.5126                 2.0536                 3.6841

                     10                     11                     12
                      A                      A                      A
 Frequencies --    541.8949               589.3398               703.6886
 Red. masses --      2.6408                 1.6904                 2.7494
 Frc consts  --      0.4569                 0.3459                 0.8021
 IR Inten    --     16.4924                48.2306                 8.6253

                     13                     14                     15
                      A                      A                      A
 Frequencies --    731.6105               764.3560               782.0661
 Red. masses --      2.4338                 2.3954                 2.3078
 Frc consts  --      0.7675                 0.8245                 0.8316
 IR Inten    --      4.3170                 3.2223                 6.8838

                     16                     17                     18
                      A                      A                      A
 Frequencies --    835.7489               862.7938               907.4593
 Red. masses --      1.4457                 1.4305                 1.7170
 Frc consts  --      0.5950                 0.6274                 0.8331
 IR Inten    --      7.4912                69.7677                 8.6466

                     19                     20                     21
                      A                      A                      A
 Frequencies --    940.2265               958.7387               976.7441
 Red. masses --      1.6397                 2.6506                 2.2723
 Frc consts  --      0.8540                 1.4355                 1.2773
 IR Inten    --      5.1942                 5.3615                 3.9386

                     22                     23                     24
                      A                      A                      A
 Frequencies --   1022.6815              1063.3146              1066.3586
 Red. masses --      1.6144                 1.4886                 1.4312
 Frc consts  --      0.9948                 0.9916                 0.9589
 IR Inten    --      6.3343                40.1609                 6.1394

                     25                     26                     27
                      A                      A                      A
 Frequencies --   1095.5835              1120.6228              1128.7219
 Red. masses --      2.5132                 1.6984                 1.2661
 Frc consts  --      1.7773                 1.2566                 0.9504
 IR Inten    --     10.3971                23.5163                 1.0122

                     28                     29                     30
                      A                      A                      A
 Frequencies --   1148.1097              1172.1606              1199.1693
 Red. masses --      1.9205                 1.6647                 1.8382
 Frc consts  --      1.4915                 1.3476                 1.5574
 IR Inten    --     16.0341                12.7862                 5.5299

                     31                     32                     33
                      A                      A                      A
 Frequencies --   1227.4518              1261.9151              1308.4088
 Red. masses --      1.5002                 1.2337                 1.4105
 Frc consts  --      1.3317                 1.1575                 1.4227
 IR Inten    --      1.0489                 0.7995                57.4567

                     34                     35                     36
                      A                      A                      A
 Frequencies --   1323.8255              1360.5903              1372.9642
 Red. masses --      1.3072                 1.6333                 1.3828
 Frc consts  --      1.3498                 1.7815                 1.5358
 IR Inten    --      1.5751                 0.2530                47.0815

                     37                     38                     39
                      A                      A                      A
 Frequencies --   1403.4102              1411.7262              1443.9936
 Red. masses --      1.7485                 1.2816                 2.1304
 Frc consts  --      2.0290                 1.5049                 2.6173
 IR Inten    --     11.8514                 7.4417                72.7894

                     40                     41                     42
                      A                      A                      A
 Frequencies --   1465.6288              1484.4188              1497.4519
 Red. masses --      1.5683                 1.2760                 1.0546
 Frc consts  --      1.9848                 1.6566                 1.3933
 IR Inten    --     19.4707                 2.6558                 4.9717

                     43                     44                     45
                      A                      A                      A
 Frequencies --   1500.4847              1511.6775              1715.3447
 Red. masses --      1.0564                 1.1213                 6.4299
 Frc consts  --      1.4014                 1.5097                11.1470
 IR Inten    --      2.8741                 6.4347               226.7106

                     46                     47                     48
                      A                      A                      A
 Frequencies --   2958.9758              3022.4381              3028.7920
 Red. masses --      1.0711                 1.0811                 1.0373
 Frc consts  --      5.5255                 5.8186                 5.6067
 IR Inten    --     56.3370                15.6043                31.0004

                     49                     50                     51
                      A                      A                      A
 Frequencies --   3069.3924              3095.6295              3104.4601
 Red. masses --      1.0916                 1.1010                 1.1014
 Frc consts  --      6.0593                 6.2161                 6.2539
 IR Inten    --     28.4903                38.9992                23.0204

                     52                     53                     54
                      A                      A                      A
 Frequencies --   3131.2731              3143.5227              3192.7250
 Red. masses --      1.0538                 1.0890                 1.0907
 Frc consts  --      6.0876                 6.3401                 6.5505
 IR Inten    --     13.2921                14.8544                 2.6253

                     55                     56                     57
                      A                      A                      A
 Frequencies --   3220.9399              3425.0714              3576.5953
 Red. masses --      1.1160                 1.0739                 1.0753
 Frc consts  --      6.8216                 7.4226                 8.1042
 IR Inten    --      9.6607                10.0307                 5.0853

 - Thermochemistry -
 -------------------
 Temperature   298.150 Kelvin.  Pressure   1.00000 Atm.
 Atom     1 has atomic number  6 and mass  12.00000

 Molecular mass:   124.10005 amu.
 Principal axes and moments of inertia in atomic units:
                           1         2         3
     Eigenvalues --   623.022401301.945851736.47531
           X            0.99995   0.00491   0.00867
           Y           -0.00491   0.99999   0.00071
           Z           -0.00867  -0.00076   0.99996
 This molecule is an asymmetric top.
 Rotational symmetry number  1.
 Warning -- assumption of classical behavior for rotation
           may cause significant error
 Rotational temperatures (Kelvin)      0.13902     0.06653     0.04988
 Rotational constants (GHZ):           2.89675     1.38619     1.03931
 Zero-point vibrational energy     487266.7 (Joules/Mol)
                                  116.45954 (Kcal/Mol)
 Warning -- explicit consideration of  11 degrees of freedom as
           vibrations may cause significant error
 Vibrational temperatures:     86.19   274.18   330.67   355.76   412.16
          (Kelvin)            429.12   575.88   608.26   660.17   779.67
                              847.93  1012.45  1052.62  1099.74  1125.22
                             1202.46  1241.37  1305.63  1352.78  1379.41
                             1405.32  1471.41  1529.87  1534.25  1576.30
                             1612.33  1623.98  1651.87  1686.48  1725.34
                             1766.03  1815.61  1882.51  1904.69  1957.59
                             1975.39  2019.19  2031.16  2077.58  2108.71
                             2135.75  2154.50  2158.86  2174.97  2468.00
                             4257.31  4348.61  4357.76  4416.17  4453.92
                             4466.63  4505.20  4522.83  4593.62  4634.21
                             4927.91  5145.92

 Zero-point correction=                           0.185590 (Hartree/Particle)
 Thermal correction to Energy=                    0.193922
 Thermal correction to Enthalpy=                  0.194866
 Thermal correction to Gibbs Free Energy=         0.152752
 Sum of electronic and zero-point Energies=           -383.281099
 Sum of electronic and thermal Energies=              -383.272767
 Sum of electronic and thermal Enthalpies=            -383.271822
 Sum of electronic and thermal Free Energies=         -383.313937

                     E (Thermal)             CV                S
                      KCal/Mol        Cal/Mol-Kelvin    Cal/Mol-Kelvin
 Total                  121.688             33.108             88.638
 Electronic               0.000              0.000              0.000
 Translational            0.889              2.981             40.362
 Rotational               0.889              2.981             28.734
 Vibrational            119.911             27.146             19.542
 Vibration     1          0.597              1.973              4.460
 Vibration     2          0.634              1.853              2.222
 Vibration     3          0.652              1.795              1.880
 Vibration     4          0.661              1.767              1.750
 Vibration     5          0.684              1.699              1.495
 Vibration     6          0.691              1.677              1.427
 Vibration     7          0.766              1.470              0.962
 Vibration     8          0.785              1.421              0.883
 Vibration     9          0.817              1.341              0.769
 Vibration    10          0.897              1.157              0.561
 Vibration    11          0.947              1.055              0.468

 Optimization completed.
    -- Stationary point found.
 Normal termination of Gaussian 16 at Sun Jul  3 11:37:43 2022.
