 Gaussian 16, Revision A.03,
 Gaussian 16:  ES64L-G16RevA.03 25-Dec-2016

 -----------------------------
 # opt freq b3lyp/6-31g(2df,p)
 -----------------------------

 -------------------
 Title Card Required
 -------------------
 Symbolic Z-matrix:
 Charge =  0 Multiplicity = 1

 SCF Done:  E(RB3LYP) =  -287.408389353     A.U. after   15 cycles
 SCF Done:  E(RB3LYP) =  -287.456929218     A.U. after   14 cycles
 SCF Done:  E(RB3LYP) =  -287.489609074     A.U. after   13 cycles
 SCF Done:  E(RB3LYP) =  -287.492935695     A.U. after   13 cycles
 SCF Done:  E(RB3LYP) =  -287.493684967     A.U. after   10 cycles
 SCF Done:  E(RB3LYP) =  -287.493753705     A.U. after    8 cycles
 SCF Done:  E(RB3LYP) =  -287.494925664     A.U. after   12 cycles
 SCF Done:  E(RB3LYP) =  -287.495841584     A.U. after   12 cycles
 SCF Done:  E(RB3LYP) =  -287.496460869     A.U. after   11 cycles
 SCF Done:  E(RB3LYP) =  -287.496888450     A.U. after   11 cycles
 SCF Done:  E(RB3LYP) =  -287.498212737     A.U. after   13 cycles
 SCF Done:  E(RB3LYP) =  -287.508163558     A.U. after   11 cycles
 SCF Done:  E(RB3LYP) =  -287.509756002     A.U. after   12 cycles
 SCF Done:  E(RB3LYP) =  -287.510805394     A.U. after   12 cycles
 SCF Done:  E(RB3LYP) =  -287.511215903     A.U. after   11 cycles
 SCF Done:  E(RB3LYP) =  -287.511445974     A.U. after   11 cycles
 SCF Done:  E(RB3LYP) =  -287.511491633     A.U. after    9 cycles
 SCF Done:  E(RB3LYP) =  -287.511495190     A.U. after    8 cycles
 SCF Done:  E(RB3LYP) =  -287.511495716     A.U. after    7 cycles
 Optimization completed.
    -- Stationary point found.
 Normal termination of Gaussian 16 at Sun Jul  3 16:30:45 2022.

 ----------------------------------------------------------------------
 #N Geom=AllCheck Guess=TCheck SCRF=Check GenChk RB3LYP/6-31G(2df,p) Fr
 eq
 ----------------------------------------------------------------------

 Structure from the checkpoint file:  "CC1c2cccn21.chk"
 -------------------
 Title Card Required
 -------------------
 Charge =  0 Multiplicity = 1

                         Standard orientation:
 ---------------------------------------------------------------------
 Center     Atomic      Atomic             Coordinates (Angstroms)
 Number     Number       Type             X           Y           Z
 ---------------------------------------------------------------------
      1          6           0        2.550577   -0.015813    0.091760
      2          6           0        1.152376    0.128890   -0.442835
      3          6           0        0.033492    0.723137    0.290608
      4          6           0       -1.260356    1.140306    0.037915
      5          6           0       -2.035691   -0.051486   -0.067634
      6          6           0       -1.165015   -1.126542   -0.045684
      7          7           0        0.092956   -0.665246    0.292641
      8          1           0        3.147372    0.851254   -0.211724
      9          1           0        3.029120   -0.913484   -0.312534
     10          1           0        2.540591   -0.073066    1.181626
     11          1           0        1.078491    0.142975   -1.536356
     12          1           0       -1.612440    2.154324   -0.077437
     13          1           0       -3.110624   -0.110965   -0.180060
     14          1           0       -1.375502   -2.185276   -0.096788
 ---------------------------------------------------------------------

 SCF Done:  E(RB3LYP) =  -287.511495716     A.U. after    1 cycles

 The electronic state is 1-A.
 Alpha  occ. eigenvalues --  -14.35020 -10.25924 -10.20343 -10.19622 -10.18883
 Alpha  occ. eigenvalues --  -10.17933 -10.17887  -1.00204  -0.80726  -0.73782
 Alpha  occ. eigenvalues --   -0.71404  -0.61132  -0.56178  -0.53057  -0.50778
 Alpha  occ. eigenvalues --   -0.44259  -0.43283  -0.41985  -0.39615  -0.38412
 Alpha  occ. eigenvalues --   -0.35859  -0.34312  -0.29363  -0.25429  -0.21116
 Alpha virt. eigenvalues --   -0.01994   0.05137   0.11067   0.11909   0.13704
 Alpha virt. eigenvalues --    0.13851   0.15969   0.16899   0.17142   0.17510
 Alpha virt. eigenvalues --    0.19986   0.20982   0.24984   0.29019   0.29765

 Mulliken charges:
               1
     1  C   -0.396492
     2  C   -0.009070
     3  C    0.016418
     4  C   -0.175382
     5  C   -0.107402
     6  C   -0.109523
     7  N   -0.036789
     8  H    0.129692
     9  H    0.127322
    10  H    0.138700
    11  H    0.107751
    12  H    0.101275
    13  H    0.098780
    14  H    0.114717
 Sum of Mulliken charges =  -0.00000

 Dipole moment (field-independent basis, Debye):
    X=              0.7371    Y=             -0.0646    Z=             -1.2248  Tot=              1.4310
 Quadrupole moment (field-independent basis, Debye-Ang):
   XX=            -36.2856   YY=            -39.8480   ZZ=            -42.8227
   XY=              0.3074   XZ=             -0.4890   YZ=             -0.1019

  Exact polarizability:  89.183   0.013  64.908   0.892   1.089  42.254
 Approx polarizability: 131.288   0.352 116.665   6.321   3.636  69.487

                      1                      2                      3
                      A                      A                      A
 Frequencies --    171.5130               227.8868               263.1922
 Red. masses --      3.5310                 1.1771                 2.1399
 Frc consts  --      0.0612                 0.0360                 0.0873
 IR Inten    --      5.9679                 1.2061                 2.0142

                      4                      5                      6
                      A                      A                      A
 Frequencies --    397.5536               416.3081               590.5790
 Red. masses --      3.2988                 3.1830                 3.0062
 Frc consts  --      0.3072                 0.3250                 0.6178
 IR Inten    --     22.3996                18.1911                12.8339

                      7                      8                      9
                      A                      A                      A
 Frequencies --    689.8484               765.9287               797.6413
 Red. masses --      6.8928                 1.7456                 1.7507
 Frc consts  --      1.9327                 0.6033                 0.6563
 IR Inten    --     27.8936                38.4553                22.7591

                     10                     11                     12
                      A                      A                      A
 Frequencies --    814.5398               867.5905               893.9673
 Red. masses --      1.4379                 4.6540                 1.6297
 Frc consts  --      0.5621                 2.0640                 0.7673
 IR Inten    --      4.1212                15.1770                 3.6297

                     13                     14                     15
                      A                      A                      A
 Frequencies --    904.4281               997.6214              1010.0094
 Red. masses --      2.4997                 1.2417                 2.0886
 Frc consts  --      1.2047                 0.7281                 1.2553
 IR Inten    --      1.5336                 9.8224                43.4584

                     16                     17                     18
                      A                      A                      A
 Frequencies --   1056.4476              1092.9181              1125.3396
 Red. masses --      1.7090                 1.5515                 2.2137
 Frc consts  --      1.1238                 1.0919                 1.6517
 IR Inten    --      7.9398                14.9429                 7.3034

                     19                     20                     21
                      A                      A                      A
 Frequencies --   1134.4666              1161.0006              1205.5305
 Red. masses --      3.0109                 1.6607                 2.0342
 Frc consts  --      2.2831                 1.3189                 1.7418
 IR Inten    --      3.3861                 0.3643                10.7794

                     22                     23                     24
                      A                      A                      A
 Frequencies --   1289.3571              1368.4390              1399.7969
 Red. masses --      1.6867                 1.6705                 2.5908
 Frc consts  --      1.6521                 1.8431                 2.9910
 IR Inten    --      2.3585                42.9365                 5.0232

                     25                     26                     27
                      A                      A                      A
 Frequencies --   1410.5907              1468.4319              1484.7865
 Red. masses --      1.3492                 1.9961                 1.1519
 Frc consts  --      1.5817                 2.5360                 1.4962
 IR Inten    --      8.1923                15.1780                 6.4228

                     28                     29                     30
                      A                      A                      A
 Frequencies --   1489.9206              1588.0741              3038.7228
 Red. masses --      1.1727                 7.0441                 1.0389
 Frc consts  --      1.5338                10.4668                 5.6523
 IR Inten    --      3.3691                22.5250                15.5048

                     31                     32                     33
                      A                      A                      A
 Frequencies --   3053.0436              3103.9815              3141.5279
 Red. masses --      1.0817                 1.1006                 1.1014
 Frc consts  --      5.9405                 6.2475                 6.4044
 IR Inten    --     36.5499                14.5992                13.3568

                     34                     35                     36
                      A                      A                      A
 Frequencies --   3213.3144              3238.7826              3249.2844
 Red. masses --      1.0879                 1.0970                 1.1002
 Frc consts  --      6.6185                 6.7798                 6.8440
 IR Inten    --      5.5416                14.3716                 7.2374

 - Thermochemistry -
 -------------------
 Temperature   298.150 Kelvin.  Pressure   1.00000 Atm.
 Atom     1 has atomic number  6 and mass  12.00000

 Molecular mass:    93.05785 amu.
 Principal axes and moments of inertia in atomic units:
                           1         2         3
     Eigenvalues --   226.27378 817.70659 981.67071
           X            1.00000  -0.00147   0.00235
           Y            0.00148   0.99999  -0.00290
           Z           -0.00235   0.00291   0.99999
 This molecule is an asymmetric top.
 Rotational symmetry number  1.
 Rotational temperatures (Kelvin)      0.38278     0.10592     0.08823
 Rotational constants (GHZ):           7.97592     2.20708     1.83844
 Zero-point vibrational energy     299798.3 (Joules/Mol)
                                   71.65352 (Kcal/Mol)
 Warning -- explicit consideration of   6 degrees of freedom as
           vibrations may cause significant error
 Vibrational temperatures:    246.77   327.88   378.67   571.99   598.97
          (Kelvin)            849.71   992.54  1102.00  1147.63  1171.94
                             1248.27  1286.22  1301.27  1435.35  1453.18
                             1519.99  1572.47  1619.11  1632.24  1670.42
                             1734.49  1855.10  1968.88  2014.00  2029.53
                             2112.75  2136.28  2143.66  2284.88  4372.04
                             4392.65  4465.94  4519.96  4623.24  4659.89
                             4675.00

 Zero-point correction=                           0.114187 (Hartree/Particle)
 Thermal correction to Energy=                    0.120174
 Thermal correction to Enthalpy=                  0.121119
 Thermal correction to Gibbs Free Energy=         0.084746
 Sum of electronic and zero-point Energies=           -287.397309
 Sum of electronic and thermal Energies=              -287.391321
 Sum of electronic and thermal Enthalpies=            -287.390377
 Sum of electronic and thermal Free Energies=         -287.426749

                     E (Thermal)             CV                S
                      KCal/Mol        Cal/Mol-Kelvin    Cal/Mol-Kelvin
 Total                   75.411             22.798             76.552
 Electronic               0.000              0.000              0.000
 Translational            0.889              2.981             39.504
 Rotational               0.889              2.981             26.699
 Vibrational             73.633             16.836             10.349
 Vibration     1          0.626              1.878              2.419
 Vibration     2          0.651              1.798              1.896
 Vibration     3          0.670              1.740              1.641
 Vibration     4          0.764              1.475              0.972
 Vibration     5          0.780              1.435              0.905
 Vibration     6          0.948              1.052              0.466

                           ! Non-Optimized Parameters !
 Normal termination of Gaussian 16 at Sun Jul  3 16:45:03 2022.
