 Gaussian 16, Revision A.03,
 Gaussian 16:  ES64L-G16RevA.03 25-Dec-2016

 -----------------------------
 # opt freq b3lyp/6-31g(2df,p)
 -----------------------------

 -------------------
 Title Card Required
 -------------------
 Symbolic Z-matrix:
 Charge =  0 Multiplicity = 1

 SCF Done:  E(RB3LYP) =  -351.287132160     A.U. after   14 cycles
 SCF Done:  E(RB3LYP) =  -351.314567947     A.U. after   12 cycles
 SCF Done:  E(RB3LYP) =  -351.330380694     A.U. after   12 cycles
 SCF Done:  E(RB3LYP) =  -351.335306847     A.U. after   11 cycles
 SCF Done:  E(RB3LYP) =  -351.338917343     A.U. after   11 cycles
 SCF Done:  E(RB3LYP) =  -351.339364226     A.U. after   10 cycles
 SCF Done:  E(RB3LYP) =  -351.339510264     A.U. after    9 cycles
 SCF Done:  E(RB3LYP) =  -351.339588639     A.U. after    9 cycles
 SCF Done:  E(RB3LYP) =  -351.339626176     A.U. after    9 cycles
 SCF Done:  E(RB3LYP) =  -351.339645184     A.U. after    9 cycles
 SCF Done:  E(RB3LYP) =  -351.339649831     A.U. after    8 cycles
 SCF Done:  E(RB3LYP) =  -351.339650994     A.U. after    7 cycles
 SCF Done:  E(RB3LYP) =  -351.339651417     A.U. after    7 cycles
 SCF Done:  E(RB3LYP) =  -351.339651677     A.U. after    7 cycles
 SCF Done:  E(RB3LYP) =  -351.339651717     A.U. after    6 cycles
 Optimization completed.
    -- Stationary point found.
 Normal termination of Gaussian 16 at Thu Aug  4 03:48:08 2022.

 ----------------------------------------------------------------------
 #N Geom=AllCheck Guess=TCheck SCRF=Check GenChk RB3LYP/6-31G(2df,p) Fr
 eq
 ----------------------------------------------------------------------

 Structure from the checkpoint file:  "CC1CCCdC2CpCpC21.chk"
 -------------------
 Title Card Required
 -------------------
 Charge =  0 Multiplicity = 1

                         Standard orientation:
 ---------------------------------------------------------------------
 Center     Atomic      Atomic             Coordinates (Angstroms)
 Number     Number       Type             X           Y           Z
 ---------------------------------------------------------------------
      1          6           0       -1.911541   -1.768004   -0.252523
      2          6           0       -0.826532   -0.852107    0.333043
      3          6           0       -1.443523    0.493846    0.852699
      4          6           0       -1.181464    1.728164   -0.058107
      5          6           0        0.316931    1.845123   -0.264016
      6          6           0        0.878219    0.719428   -0.670351
      7          6           0        1.804361   -0.396449   -0.497364
      8          6           0        2.501921   -0.635627    0.825365
      9          6           0        0.270506   -0.607133   -0.719344
     10          1           0       -2.678648   -2.001295    0.492739
     11          1           0       -1.484103   -2.712340   -0.606154
     12          1           0       -2.409766   -1.289209   -1.104125
     13          1           0       -0.387501   -1.369355    1.195075
     14          1           0       -1.025982    0.725076    1.839125
     15          1           0       -2.522741    0.363735    0.998151
     16          1           0       -1.598024    2.625631    0.409311
     17          1           0       -1.701729    1.600391   -1.016150
     18          1           0        0.861823    2.728222    0.056743
     19          1           0        2.381980   -0.713029   -1.365539
     20          1           0        1.861936   -0.350686    1.665512
     21          1           0        3.421480   -0.044554    0.895520
     22          1           0        2.773301   -1.690941    0.940887
     23          1           0        0.054711   -1.035094   -1.697504
 ---------------------------------------------------------------------

 SCF Done:  E(RB3LYP) =  -351.339651717     A.U. after    1 cycles

 The electronic state is 1-A.
 Alpha  occ. eigenvalues --  -10.20016 -10.18624 -10.17814 -10.17782 -10.17686
 Alpha  occ. eigenvalues --  -10.17450 -10.17375 -10.17159 -10.17006  -0.87195
 Alpha  occ. eigenvalues --   -0.78811  -0.75535  -0.71027  -0.67229  -0.61956
 Alpha  occ. eigenvalues --   -0.59462  -0.53516  -0.50473  -0.47949  -0.44934
 Alpha  occ. eigenvalues --   -0.43713  -0.42641  -0.41418  -0.39077  -0.37963
 Alpha  occ. eigenvalues --   -0.37780  -0.36884  -0.35879  -0.33655  -0.32632
 Alpha  occ. eigenvalues --   -0.30908  -0.27508  -0.26267  -0.22508
 Alpha virt. eigenvalues --    0.01492   0.08669   0.10989   0.11620   0.12058
 Alpha virt. eigenvalues --    0.13853   0.14074   0.14809   0.15800   0.17214
 Alpha virt. eigenvalues --    0.17781   0.18243   0.18882   0.19109   0.19902

 Mulliken charges:
               1
     1  C   -0.400921
     2  C    0.021069
     3  C   -0.198774
     4  C   -0.240110
     5  C   -0.220741
     6  C    0.258684
     7  C   -0.124783
     8  C   -0.401768
     9  C   -0.104604
    10  H    0.108818
    11  H    0.111671
    12  H    0.115053
    13  H    0.076014
    14  H    0.092820
    15  H    0.087164
    16  H    0.093826
    17  H    0.106344
    18  H    0.086530
    19  H    0.091827
    20  H    0.120074
    21  H    0.121175
    22  H    0.116543
    23  H    0.084091
 Sum of Mulliken charges =  -0.00000

 Dipole moment (field-independent basis, Debye):
    X=              0.0125    Y=             -0.3855    Z=              0.3722  Tot=              0.5360
 Quadrupole moment (field-independent basis, Debye-Ang):
   XX=            -55.2498   YY=            -56.3350   ZZ=            -56.4653
   XY=             -0.9394   XZ=              0.1343   YZ=              1.3486

  Exact polarizability: 103.464  -5.347  99.489  -1.165   4.729  75.423
 Approx polarizability: 140.813 -11.955 150.253  -4.571  11.069 118.019

                      1                      2                      3
                      A                      A                      A
 Frequencies --     42.1474               152.8450               167.0335
 Red. masses --      2.5778                 2.8851                 2.4190
 Frc consts  --      0.0027                 0.0397                 0.0398
 IR Inten    --      0.1185                 0.2876                 0.1110

                      4                      5                      6
                      A                      A                      A
 Frequencies --    203.9085               253.6518               292.0187
 Red. masses --      1.0297                 1.2110                 1.6834
 Frc consts  --      0.0252                 0.0459                 0.0846
 IR Inten    --      0.1147                 0.0040                 0.0192

                      7                      8                      9
                      A                      A                      A
 Frequencies --    338.8252               372.4307               412.7705
 Red. masses --      2.3672                 2.3188                 2.4297
 Frc consts  --      0.1601                 0.1895                 0.2439
 IR Inten    --      0.1377                 0.6438                 2.5037

                     10                     11                     12
                      A                      A                      A
 Frequencies --    483.7510               498.4162               552.4530
 Red. masses --      3.0833                 3.4271                 3.2138
 Frc consts  --      0.4251                 0.5016                 0.5779
 IR Inten    --      1.5774                 4.0121                 0.6262

                     13                     14                     15
                      A                      A                      A
 Frequencies --    652.2286               742.8815               754.7605
 Red. masses --      2.7022                 2.2974                 3.0387
 Frc consts  --      0.6773                 0.7470                 1.0199
 IR Inten    --      3.6474                 1.0644                 1.2453

                     16                     17                     18
                      A                      A                      A
 Frequencies --    817.9851               846.1738               872.6459
 Red. masses --      1.8099                 1.6954                 2.1805
 Frc consts  --      0.7135                 0.7152                 0.9783
 IR Inten    --      8.2636                15.3770                 3.6945

                     19                     20                     21
                      A                      A                      A
 Frequencies --    899.0539               958.6074               974.8692
 Red. masses --      2.3806                 1.4435                 1.7033
 Frc consts  --      1.1337                 0.7815                 0.9537
 IR Inten    --      3.0077                 2.0758                 4.0658

                     22                     23                     24
                      A                      A                      A
 Frequencies --    980.4501              1013.5627              1031.1061
 Red. masses --      1.5301                 2.1805                 1.7618
 Frc consts  --      0.8666                 1.3198                 1.1036
 IR Inten    --      1.2346                 0.8496                 2.4602

                     25                     26                     27
                      A                      A                      A
 Frequencies --   1049.0248              1062.1820              1096.1001
 Red. masses --      1.8093                 1.9928                 1.6523
 Frc consts  --      1.1731                 1.3247                 1.1696
 IR Inten    --      1.0327                 3.1589                 1.5057

                     28                     29                     30
                      A                      A                      A
 Frequencies --   1113.8422              1127.3386              1156.4069
 Red. masses --      1.9177                 1.7879                 2.0073
 Frc consts  --      1.4018                 1.3388                 1.5816
 IR Inten    --      1.5818                 5.6055                 3.6126

                     31                     32                     33
                      A                      A                      A
 Frequencies --   1180.8716              1205.0039              1225.6710
 Red. masses --      1.9484                 1.3464                 1.2172
 Frc consts  --      1.6008                 1.1519                 1.0773
 IR Inten    --      3.4445                 0.6446                 0.7383

                     34                     35                     36
                      A                      A                      A
 Frequencies --   1289.1956              1316.8629              1323.3148
 Red. masses --      1.2774                 1.2256                 1.3521
 Frc consts  --      1.2509                 1.2522                 1.3950
 IR Inten    --      0.9912                 0.7518                 3.0093

                     37                     38                     39
                      A                      A                      A
 Frequencies --   1340.2818              1355.3342              1367.3869
 Red. masses --      1.4313                 1.3048                 1.4435
 Frc consts  --      1.5149                 1.4122                 1.5902
 IR Inten    --      0.9359                 4.1047                 1.8308

                     40                     41                     42
                      A                      A                      A
 Frequencies --   1391.5787              1408.4172              1409.7992
 Red. masses --      1.9081                 1.2638                 1.2367
 Frc consts  --      2.1771                 1.4770                 1.4482
 IR Inten    --      6.4828                 1.4173                 3.4681

                     43                     44                     45
                      A                      A                      A
 Frequencies --   1481.1665              1487.5584              1490.1643
 Red. masses --      1.0863                 1.0478                 1.0794
 Frc consts  --      1.4041                 1.3660                 1.4122
 IR Inten    --      1.8085                 2.0145                 1.8642

                     46                     47                     48
                      A                      A                      A
 Frequencies --   1497.6778              1498.9505              1500.8688
 Red. masses --      1.0477                 1.0517                 1.0505
 Frc consts  --      1.3846                 1.3923                 1.3942
 IR Inten    --      2.1908                 2.0765                 5.8773

                     49                     50                     51
                      A                      A                      A
 Frequencies --   1812.1759              3012.9181              3020.9570
 Red. masses --      9.6185                 1.0768                 1.0657
 Frc consts  --     18.6104                 5.7590                 5.7304
 IR Inten    --      0.7576                13.5451                23.3217

                     52                     53                     54
                      A                      A                      A
 Frequencies --   3023.1259              3028.1154              3029.9163
 Red. masses --      1.0379                 1.0464                 1.0544
 Frc consts  --      5.5888                 5.6530                 5.7034
 IR Inten    --     24.4474                38.3092                35.6272

                     55                     56                     57
                      A                      A                      A
 Frequencies --   3064.4022              3080.2379              3089.8884
 Red. masses --      1.1009                 1.0977                 1.1004
 Frc consts  --      6.0909                 6.1361                 6.1902
 IR Inten    --     41.9038                37.1757                17.2021

                     58                     59                     60
                      A                      A                      A
 Frequencies --   3090.2787              3094.7188              3098.9663
 Red. masses --      1.1007                 1.0886                 1.0999
 Frc consts  --      6.1930                 6.1429                 6.2235
 IR Inten    --     38.9990                 5.3192                20.6290

                     61                     62                     63
                      A                      A                      A
 Frequencies --   3105.6437              3115.9361              3162.8265
 Red. masses --      1.0908                 1.0947                 1.0919
 Frc consts  --      6.1989                 6.2622                 6.4353
 IR Inten    --     15.2079                64.0438                25.5031

 - Thermochemistry -
 -------------------
 Temperature   298.150 Kelvin.  Pressure   1.00000 Atm.
 Atom     1 has atomic number  6 and mass  12.00000

 Molecular mass:   122.10955 amu.
 Principal axes and moments of inertia in atomic units:
                           1         2         3
     Eigenvalues --   831.859561177.551831634.66196
           X            0.99984  -0.00470   0.01706
           Y            0.00441   0.99985   0.01693
           Z           -0.01713  -0.01685   0.99971
 This molecule is an asymmetric top.
 Rotational symmetry number  1.
 Warning -- assumption of classical behavior for rotation
           may cause significant error
 Rotational temperatures (Kelvin)      0.10412     0.07355     0.05299
 Rotational constants (GHZ):           2.16953     1.53262     1.10405
 Zero-point vibrational energy     541427.9 (Joules/Mol)
                                  129.40438 (Kcal/Mol)
 Warning -- explicit consideration of  12 degrees of freedom as
           vibrations may cause significant error
 Vibrational temperatures:     60.64   219.91   240.32   293.38   364.95
          (Kelvin)            420.15   487.49   535.84   593.88   696.01
                              717.11   794.86   938.41  1068.84  1085.93
                             1176.90  1217.46  1255.54  1293.54  1379.22
                             1402.62  1410.65  1458.29  1483.53  1509.31
                             1528.24  1577.04  1602.57  1621.99  1663.81
                             1699.01  1733.73  1763.47  1854.86  1894.67
                             1903.95  1928.37  1950.02  1967.36  2002.17
                             2026.40  2028.39  2131.07  2140.26  2144.01
                             2154.82  2156.66  2159.42  2607.32  4334.92
                             4346.48  4349.60  4356.78  4359.37  4408.99
                             4431.78  4445.66  4446.22  4452.61  4458.72
                             4468.33  4483.14  4550.60

 Zero-point correction=                           0.206219 (Hartree/Particle)
 Thermal correction to Energy=                    0.215360
 Thermal correction to Enthalpy=                  0.216304
 Thermal correction to Gibbs Free Energy=         0.172307
 Sum of electronic and zero-point Energies=           -351.133433
 Sum of electronic and thermal Energies=              -351.124292
 Sum of electronic and thermal Enthalpies=            -351.123347
 Sum of electronic and thermal Free Energies=         -351.167345

                     E (Thermal)             CV                S
                      KCal/Mol        Cal/Mol-Kelvin    Cal/Mol-Kelvin
 Total                  135.141             35.719             92.601
 Electronic               0.000              0.000              0.000
 Translational            0.889              2.981             40.313
 Rotational               0.889              2.981             28.861
 Vibrational            133.363             29.757             23.426
 Vibration     1          0.595              1.980              5.156
 Vibration     2          0.619              1.900              2.637
 Vibration     3          0.624              1.883              2.469
 Vibration     4          0.640              1.834              2.098
 Vibration     5          0.665              1.757              1.705
 Vibration     6          0.687              1.689              1.462
 Vibration     7          0.719              1.598              1.218
 Vibration     8          0.744              1.529              1.070
 Vibration     9          0.777              1.443              0.917
 Vibration    10          0.840              1.286              0.700
 Vibration    11          0.854              1.254              0.662
 Vibration    12          0.908              1.134              0.539

 Optimization completed.
    -- Stationary point found.
 Normal termination of Gaussian 16 at Thu Aug  4 04:33:03 2022.
