 Gaussian 16, Revision A.03,
 Gaussian 16:  ES64L-G16RevA.03 25-Dec-2016

 -----------------------------
 # opt freq b3lyp/6-31g(2df,p)
 -----------------------------

 -------------------
 Title Card Required
 -------------------
 Symbolic Z-matrix:
 Charge =  0 Multiplicity = 1

 SCF Done:  E(RB3LYP) =  -349.805324051     A.U. after   20 cycles
 SCF Done:  E(RB3LYP) =  -349.861381842     A.U. after   16 cycles
 SCF Done:  E(RB3LYP) =  -349.891254313     A.U. after   16 cycles
 SCF Done:  E(RB3LYP) =  -349.924426936     A.U. after   17 cycles
 SCF Done:  E(RB3LYP) =  -349.913666910     A.U. after   16 cycles
 SCF Done:  E(RB3LYP) =  -349.979853127     A.U. after   15 cycles
 SCF Done:  E(RB3LYP) =  -350.001017655     A.U. after   13 cycles
 SCF Done:  E(RB3LYP) =  -350.009711377     A.U. after   13 cycles
 SCF Done:  E(RB3LYP) =  -350.019556713     A.U. after   13 cycles
 SCF Done:  E(RB3LYP) =  -350.015147519     A.U. after   13 cycles
 SCF Done:  E(RB3LYP) =  -350.050224727     A.U. after   11 cycles
 SCF Done:  E(RB3LYP) =  -350.050305804     A.U. after   12 cycles
 SCF Done:  E(RB3LYP) =  -350.050353329     A.U. after   11 cycles
 SCF Done:  E(RB3LYP) =  -350.050387735     A.U. after   11 cycles
 SCF Done:  E(RB3LYP) =  -350.050404865     A.U. after   10 cycles
 SCF Done:  E(RB3LYP) =  -350.050415386     A.U. after    9 cycles
 SCF Done:  E(RB3LYP) =  -350.050421082     A.U. after    9 cycles
 SCF Done:  E(RB3LYP) =  -350.050422764     A.U. after    9 cycles
 SCF Done:  E(RB3LYP) =  -350.050422915     A.U. after    8 cycles
 Optimization completed.
    -- Stationary point found.
 Normal termination of Gaussian 16 at Thu Aug  4 17:53:18 2022.

 ----------------------------------------------------------------------
 #N Geom=AllCheck Guess=TCheck SCRF=Check GenChk RB3LYP/6-31G(2df,p) Fr
 eq
 ----------------------------------------------------------------------

 Structure from the checkpoint file:  "CC1C2dCC1pCpCdCC2.chk"
 -------------------
 Title Card Required
 -------------------
 Charge =  0 Multiplicity = 1

                         Standard orientation:
 ---------------------------------------------------------------------
 Center     Atomic      Atomic             Coordinates (Angstroms)
 Number     Number       Type             X           Y           Z
 ---------------------------------------------------------------------
      1          6           0        2.252467   -1.136615   -0.662905
      2          6           0        0.832530   -0.631475   -0.550021
      3          6           0       -1.168550   -1.209816    1.018916
      4          6           0        0.144090   -0.707070    0.855407
      5          6           0        0.446679    0.662412    0.040760
      6          6           0        1.477261    1.596609    0.639947
      7          6           0       -0.780461    1.300549   -0.490347
      8          6           0       -1.949522    0.663168   -0.579416
      9          6           0       -2.150926   -0.713382    0.003910
     10          1           0        2.263910   -2.228881   -0.730159
     11          1           0        2.869043   -0.849810    0.191560
     12          1           0        2.725678   -0.739795   -1.568317
     13          1           0        0.188048   -0.965724   -1.358436
     14          1           0        0.877137   -0.898255    1.637281
     15          1           0        2.295482    1.059877    1.124284
     16          1           0        1.016229    2.247728    1.388561
     17          1           0        1.913578    2.236513   -0.136731
     18          1           0       -0.682715    2.333775   -0.814397
     19          1           0       -2.819842    1.173074   -0.984262
     20          1           0       -2.089958   -1.492448   -0.782258
     21          1           0       -3.177990   -0.822334    0.375367
 ---------------------------------------------------------------------

 SCF Done:  E(RB3LYP) =  -350.050422915     A.U. after    1 cycles

 The electronic state is 1-A.
 Alpha  occ. eigenvalues --  -10.21856 -10.21787 -10.19187 -10.19120 -10.18854
 Alpha  occ. eigenvalues --  -10.18331 -10.18116 -10.17887 -10.17264  -0.88877
 Alpha  occ. eigenvalues --   -0.78969  -0.75306  -0.72451  -0.69926  -0.62430
 Alpha  occ. eigenvalues --   -0.59260  -0.55170  -0.49771  -0.46683  -0.46066
 Alpha  occ. eigenvalues --   -0.43182  -0.42766  -0.41810  -0.41181  -0.39817
 Alpha  occ. eigenvalues --   -0.39502  -0.37115  -0.34916  -0.33280  -0.32309
 Alpha  occ. eigenvalues --   -0.28954  -0.23881  -0.17357
 Alpha virt. eigenvalues --   -0.04763   0.01805   0.08552   0.09723   0.10877
 Alpha virt. eigenvalues --    0.13053   0.13281   0.14571   0.15244   0.16233
 Alpha virt. eigenvalues --    0.16957   0.17504   0.19059   0.19358   0.20745

 Mulliken charges:
               1
     1  C   -0.426323
     2  C   -0.033770
     3  C   -0.124052
     4  C   -0.108277
     5  C    0.277608
     6  C   -0.485082
     7  C   -0.103718
     8  C   -0.096586
     9  C   -0.304464
    10  H    0.133971
    11  H    0.126885
    12  H    0.127635
    13  H    0.102279
    14  H    0.088751
    15  H    0.124604
    16  H    0.133394
    17  H    0.124775
    18  H    0.088173
    19  H    0.089463
    20  H    0.143243
    21  H    0.121492
 Sum of Mulliken charges =  -0.00000

 Dipole moment (field-independent basis, Debye):
    X=              1.7901    Y=              1.4324    Z=             -2.0714  Tot=              3.0899
 Quadrupole moment (field-independent basis, Debye-Ang):
   XX=            -52.2568   YY=            -56.6727   ZZ=            -58.3032
   XY=             -2.2488   XZ=              3.5114   YZ=              4.4620

  Exact polarizability: 113.566   5.803  91.094   0.437  -5.666  73.349
 Approx polarizability: 167.835  17.733 142.546  -1.958 -13.657 122.213

                      1                      2                      3
                      A                      A                      A
 Frequencies --    143.7152               155.9677               173.5017
 Red. masses --      1.7197                 1.4735                 1.1964
 Frc consts  --      0.0209                 0.0211                 0.0212
 IR Inten    --      0.9760                 0.3230                 0.0334

                      4                      5                      6
                      A                      A                      A
 Frequencies --    191.5067               248.6665               278.4015
 Red. masses --      2.6307                 1.9955                 2.2149
 Frc consts  --      0.0568                 0.0727                 0.1011
 IR Inten    --      2.8176                 2.9999                 6.7395

                      7                      8                      9
                      A                      A                      A
 Frequencies --    324.8323               340.7460               419.3710
 Red. masses --      2.5187                 2.9514                 4.0385
 Frc consts  --      0.1566                 0.2019                 0.4185
 IR Inten    --      0.2102                 2.0954                 3.3191

                     10                     11                     12
                      A                      A                      A
 Frequencies --    458.3782               499.3560               521.0912
 Red. masses --      2.8442                 2.8553                 3.7614
 Frc consts  --      0.3521                 0.4195                 0.6018
 IR Inten    --      6.2860                 4.0171                 0.9482

                     13                     14                     15
                      A                      A                      A
 Frequencies --    607.0842               655.0180               743.5752
 Red. masses --      5.0414                 2.7132                 1.6402
 Frc consts  --      1.0947                 0.6859                 0.5343
 IR Inten    --      3.2546                24.6213                32.3393

                     16                     17                     18
                      A                      A                      A
 Frequencies --    755.7510               772.1774               878.0887
 Red. masses --      2.4781                 3.7774                 3.5385
 Frc consts  --      0.8339                 1.3270                 1.6075
 IR Inten    --      9.1785                21.6795                 0.5567

                     19                     20                     21
                      A                      A                      A
 Frequencies --    913.8990               936.0813               969.8075
 Red. masses --      3.1843                 1.7295                 1.2198
 Frc consts  --      1.5670                 0.8929                 0.6759
 IR Inten    --      7.0585                 6.6030                 2.5784

                     22                     23                     24
                      A                      A                      A
 Frequencies --    977.3734              1002.7725              1017.7380
 Red. masses --      1.2791                 1.7665                 1.3624
 Frc consts  --      0.7199                 1.0465                 0.8314
 IR Inten    --      2.9413                 2.9355                 9.8746

                     25                     26                     27
                      A                      A                      A
 Frequencies --   1056.9346              1081.9405              1089.0361
 Red. masses --      1.7135                 1.6100                 1.6098
 Frc consts  --      1.1278                 1.1104                 1.1249
 IR Inten    --     27.1386                 7.0665                 3.8731

                     28                     29                     30
                      A                      A                      A
 Frequencies --   1113.2228              1136.8098              1198.2952
 Red. masses --      1.8812                 1.4084                 1.1191
 Frc consts  --      1.3736                 1.0724                 0.9468
 IR Inten    --      4.0200                 5.3000                 0.1634

                     31                     32                     33
                      A                      A                      A
 Frequencies --   1239.3845              1294.7702              1309.1582
 Red. masses --      2.4677                 2.0087                 1.4441
 Frc consts  --      2.2334                 1.9840                 1.4582
 IR Inten    --      3.1583                25.8276                 2.2158

                     34                     35                     36
                      A                      A                      A
 Frequencies --   1317.6434              1349.6083              1401.6686
 Red. masses --      1.6631                 1.5156                 1.1688
 Frc consts  --      1.7012                 1.6265                 1.3530
 IR Inten    --     11.4672                 3.8031                 7.8053

                     37                     38                     39
                      A                      A                      A
 Frequencies --   1406.6889              1413.9121              1421.0611
 Red. masses --      1.3015                 1.5934                 1.2705
 Frc consts  --      1.5174                 1.8768                 1.5117
 IR Inten    --      0.8643                 8.2322                 1.1620

                     40                     41                     42
                      A                      A                      A
 Frequencies --   1434.1353              1482.0581              1488.0693
 Red. masses --      2.0499                 1.0475                 1.0468
 Frc consts  --      2.4840                 1.3556                 1.3657
 IR Inten    --      9.9281                 6.1280                 0.7008

                     43                     44                     45
                      A                      A                      A
 Frequencies --   1497.6608              1509.3972              1695.5659
 Red. masses --      1.0925                 1.0945                 6.7255
 Frc consts  --      1.4438                 1.4692                11.3921
 IR Inten    --      4.1585                14.9326                 8.0975

                     46                     47                     48
                      A                      A                      A
 Frequencies --   2939.1128              3030.4366              3031.0170
 Red. masses --      1.0734                 1.0470                 1.0757
 Frc consts  --      5.4631                 5.6653                 5.8227
 IR Inten    --      7.0339                32.5403                15.3022

                     49                     50                     51
                      A                      A                      A
 Frequencies --   3037.2028              3094.4121              3098.4862
 Red. masses --      1.0386                 1.0965                 1.0995
 Frc consts  --      5.6450                 6.1858                 6.2192
 IR Inten    --     24.8939                11.2897                15.4110

                     52                     53                     54
                      A                      A                      A
 Frequencies --   3112.9985              3119.2943              3129.3377
 Red. masses --      1.0877                 1.0995                 1.0962
 Frc consts  --      6.2103                 6.3033                 6.3249
 IR Inten    --     17.0180                13.4351                16.4023

                     55                     56                     57
                      A                      A                      A
 Frequencies --   3145.0759              3148.9062              3168.3204
 Red. masses --      1.0833                 1.0897                 1.0974
 Frc consts  --      6.3134                 6.3661                 6.4906
 IR Inten    --      7.8225                19.5174                27.9552

 - Thermochemistry -
 -------------------
 Temperature   298.150 Kelvin.  Pressure   1.00000 Atm.
 Atom     1 has atomic number  6 and mass  12.00000

 Molecular mass:   120.09390 amu.
 Principal axes and moments of inertia in atomic units:
                           1         2         3
     Eigenvalues --   698.710411187.373431493.49509
           X            0.99988  -0.00546   0.01426
           Y            0.00476   0.99877   0.04929
           Z           -0.01452  -0.04921   0.99868
 This molecule is an asymmetric top.
 Rotational symmetry number  1.
 Warning -- assumption of classical behavior for rotation
           may cause significant error
 Rotational temperatures (Kelvin)      0.12396     0.07295     0.05799
 Rotational constants (GHZ):           2.58296     1.51994     1.20840
 Zero-point vibrational energy     472384.5 (Joules/Mol)
                                  112.90261 (Kcal/Mol)
 Warning -- explicit consideration of  13 degrees of freedom as
           vibrations may cause significant error
 Vibrational temperatures:    206.77   224.40   249.63   275.54   357.78
          (Kelvin)            400.56   467.36   490.26   603.38   659.50
                              718.46   749.73   873.46   942.42  1069.84
                             1087.36  1110.99  1263.37  1314.90  1346.81
                             1395.34  1406.22  1442.77  1464.30  1520.69
                             1556.67  1566.88  1601.68  1635.62  1724.08
                             1783.20  1862.89  1883.59  1895.79  1941.79
                             2016.69  2023.91  2034.30  2044.59  2063.40
                             2132.35  2141.00  2154.80  2171.69  2439.54
                             4228.73  4360.12  4360.96  4369.86  4452.17
                             4458.03  4478.91  4487.97  4502.42  4525.06
                             4530.57  4558.51

 Zero-point correction=                           0.179922 (Hartree/Particle)
 Thermal correction to Energy=                    0.189029
 Thermal correction to Enthalpy=                  0.189973
 Thermal correction to Gibbs Free Energy=         0.146970
 Sum of electronic and zero-point Energies=           -349.870501
 Sum of electronic and thermal Energies=              -349.861394
 Sum of electronic and thermal Enthalpies=            -349.860450
 Sum of electronic and thermal Free Energies=         -349.903453

                     E (Thermal)             CV                S
                      KCal/Mol        Cal/Mol-Kelvin    Cal/Mol-Kelvin
 Total                  118.618             35.751             90.509
 Electronic               0.000              0.000              0.000
 Translational            0.889              2.981             40.264
 Rotational               0.889              2.981             28.607
 Vibrational            116.840             29.789             21.639
 Vibration     1          0.616              1.909              2.754
 Vibration     2          0.620              1.896              2.598
 Vibration     3          0.627              1.875              2.397
 Vibration     4          0.634              1.852              2.213
 Vibration     5          0.662              1.765              1.740
 Vibration     6          0.679              1.713              1.543
 Vibration     7          0.709              1.626              1.286
 Vibration     8          0.720              1.594              1.209
 Vibration     9          0.782              1.428              0.894
 Vibration    10          0.816              1.342              0.771
 Vibration    11          0.855              1.251              0.660
 Vibration    12          0.876              1.203              0.607
 Vibration    13          0.966              1.017              0.438

                           ! Non-Optimized Parameters !
 Normal termination of Gaussian 16 at Thu Aug  4 18:26:53 2022.
