 Gaussian 16, Revision A.03,
 Gaussian 16:  ES64L-G16RevA.03 25-Dec-2016

 -----------------------------
 # opt freq b3lyp/6-31g(2df,p)
 -----------------------------

 -------------------
 Title Card Required
 -------------------
 Symbolic Z-matrix:
 Charge =  0 Multiplicity = 1

 SCF Done:  E(RB3LYP) =  -362.631559293     A.U. after   14 cycles
 SCF Done:  E(RB3LYP) =  -362.671317467     A.U. after   13 cycles
 SCF Done:  E(RB3LYP) =  -362.703576969     A.U. after   14 cycles
 SCF Done:  E(RB3LYP) =  -362.711873312     A.U. after   12 cycles
 SCF Done:  E(RB3LYP) =  -362.713882967     A.U. after   14 cycles
 SCF Done:  E(RB3LYP) =  -362.716985043     A.U. after   11 cycles
 SCF Done:  E(RB3LYP) =  -362.730238589     A.U. after   12 cycles
 SCF Done:  E(RB3LYP) =  -362.730950986     A.U. after   14 cycles
 SCF Done:  E(RB3LYP) =  -362.729565172     A.U. after   14 cycles
 SCF Done:  E(RB3LYP) =  -362.732504931     A.U. after   13 cycles
 SCF Done:  E(RB3LYP) =  -362.733358795     A.U. after   12 cycles
 SCF Done:  E(RB3LYP) =  -362.733554474     A.U. after   13 cycles
 SCF Done:  E(RB3LYP) =  -362.733711700     A.U. after   13 cycles
 SCF Done:  E(RB3LYP) =  -362.733778480     A.U. after   12 cycles
 SCF Done:  E(RB3LYP) =  -362.733811453     A.U. after   12 cycles
 SCF Done:  E(RB3LYP) =  -362.733822417     A.U. after   11 cycles
 SCF Done:  E(RB3LYP) =  -362.733827556     A.U. after   11 cycles
 SCF Done:  E(RB3LYP) =  -362.733829488     A.U. after    9 cycles
 SCF Done:  E(RB3LYP) =  -362.733829727     A.U. after    8 cycles
 Optimization completed.
    -- Stationary point found.
 Normal termination of Gaussian 16 at Thu Aug  4 14:57:56 2022.

 ----------------------------------------------------------------------
 #N Geom=AllCheck Guess=TCheck SCRF=Check GenChk RB3LYP/6-31G(2df,p) Fr
 eq
 ----------------------------------------------------------------------

 Structure from the checkpoint file:  "Cc1cc1dNCCdO.chk"
 -------------------
 Title Card Required
 -------------------
 Charge =  0 Multiplicity = 1

                         Standard orientation:
 ---------------------------------------------------------------------
 Center     Atomic      Atomic             Coordinates (Angstroms)
 Number     Number       Type             X           Y           Z
 ---------------------------------------------------------------------
      1          6           0        3.445733    0.627134   -0.268726
      2          6           0        2.175302   -0.106164   -0.104168
      3          6           0        1.526723   -1.272266   -0.124039
      4          6           0        0.778896   -0.085534    0.191648
      5          7           0       -0.254146    0.572851    0.502091
      6          6           0       -1.495289   -0.169055    0.648617
      7          6           0       -2.589020    0.455055   -0.205024
      8          8           0       -3.561178   -0.133813   -0.601700
      9          1           0        4.271189   -0.040268   -0.527788
     10          1           0        3.691164    1.159960    0.656202
     11          1           0        3.339307    1.386744   -1.050579
     12          1           0        1.606516   -2.337807   -0.279515
     13          1           0       -1.845390   -0.093651    1.691518
     14          1           0       -1.431768   -1.240955    0.408425
     15          1           0       -2.416642    1.531498   -0.429143
 ---------------------------------------------------------------------

 SCF Done:  E(RB3LYP) =  -362.733829727     A.U. after    1 cycles

 The electronic state is 1-A.
 Alpha  occ. eigenvalues --  -19.12673 -14.29995 -10.25652 -10.24817 -10.24240
 Alpha  occ. eigenvalues --  -10.23115 -10.21920 -10.20525  -1.03375  -0.93972
 Alpha  occ. eigenvalues --   -0.87627  -0.76036  -0.71397  -0.58892  -0.56277
 Alpha  occ. eigenvalues --   -0.52386  -0.49836  -0.45929  -0.45538  -0.44345
 Alpha  occ. eigenvalues --   -0.43460  -0.41839  -0.38180  -0.38062  -0.36325
 Alpha  occ. eigenvalues --   -0.33667  -0.25737  -0.23796  -0.22527
 Alpha virt. eigenvalues --   -0.01983  -0.00891   0.05234   0.09170   0.10736
 Alpha virt. eigenvalues --    0.12218   0.12837   0.15581   0.15921   0.17211
 Alpha virt. eigenvalues --    0.17990   0.20086   0.20324   0.25596   0.28456

 Mulliken charges:
               1
     1  C   -0.518363
     2  C    0.214604
     3  C   -0.258632
     4  C    0.317182
     5  N   -0.372275
     6  C   -0.244418
     7  C    0.159039
     8  O   -0.246306
     9  H    0.144330
    10  H    0.163094
    11  H    0.163453
    12  H    0.160405
    13  H    0.125791
    14  H    0.106958
    15  H    0.085139
 Sum of Mulliken charges =  -0.00000

 Dipole moment (field-independent basis, Debye):
    X=              5.3003    Y=             -0.9531    Z=              0.2295  Tot=              5.3902
 Quadrupole moment (field-independent basis, Debye-Ang):
   XX=            -48.8509   YY=            -43.9593   ZZ=            -46.1569
   XY=             -1.9351   XZ=             -4.8390   YZ=             -0.9411

  Exact polarizability: 103.089   0.775  68.437  -4.396   1.350  47.391
 Approx polarizability: 133.092   1.396 114.078  -5.605   6.827  73.536

                      1                      2                      3
                      A                      A                      A
 Frequencies --     34.2658                72.4905               104.0539
 Red. masses --      5.9221                 2.6670                 3.1287
 Frc consts  --      0.0041                 0.0083                 0.0200
 IR Inten    --      2.2759                 6.3687                 4.2183

                      4                      5                      6
                      A                      A                      A
 Frequencies --    121.9482               167.5626               267.1616
 Red. masses --      1.0883                 2.8462                 3.0273
 Frc consts  --      0.0095                 0.0471                 0.1273
 IR Inten    --      1.5858                 7.2998                 3.7247

                      7                      8                      9
                      A                      A                      A
 Frequencies --    298.7138               407.3262               482.2591
 Red. masses --      3.0576                 3.2538                 4.5924
 Frc consts  --      0.1607                 0.3181                 0.6293
 IR Inten    --     12.9621                 4.8291                 5.6085

                     10                     11                     12
                      A                      A                      A
 Frequencies --    578.3475               599.3134               711.7851
 Red. masses --      5.2180                 3.2899                 1.4422
 Frc consts  --      1.0283                 0.6962                 0.4305
 IR Inten    --      3.4785                 4.5482                 0.6654

                     13                     14                     15
                      A                      A                      A
 Frequencies --    799.7478               814.3604               850.3812
 Red. masses --      3.9316                 1.4328                 2.7958
 Frc consts  --      1.4816                 0.5599                 1.1912
 IR Inten    --     13.1518                23.6545                 1.7396

                     16                     17                     18
                      A                      A                      A
 Frequencies --    989.8688              1011.8744              1047.9605
 Red. masses --      2.3177                 1.7747                 1.6062
 Frc consts  --      1.3380                 1.0706                 1.0393
 IR Inten    --     13.6971                10.6992                 8.3846

                     19                     20                     21
                      A                      A                      A
 Frequencies --   1055.4017              1100.6936              1127.3473
 Red. masses --      2.7762                 2.3889                 2.6501
 Frc consts  --      1.8219                 1.7052                 1.9844
 IR Inten    --     26.0174                 8.5164                 7.4027

                     22                     23                     24
                      A                      A                      A
 Frequencies --   1220.9175              1248.6277              1321.6665
 Red. masses --      1.9599                 1.6151                 1.4247
 Frc consts  --      1.7213                 1.4836                 1.4663
 IR Inten    --      3.5858                 0.2071                35.8962

                     25                     26                     27
                      A                      A                      A
 Frequencies --   1400.8960              1404.6272              1452.6378
 Red. masses --      1.2242                 1.2147                 1.0929
 Frc consts  --      1.4155                 1.4120                 1.3588
 IR Inten    --      1.6412                 7.9025                26.5613

                     28                     29                     30
                      A                      A                      A
 Frequencies --   1473.5136              1473.8195              1692.8418
 Red. masses --      1.0458                 1.0554                 8.3433
 Frc consts  --      1.3379                 1.3507                14.0871
 IR Inten    --      8.2261                12.2063               156.8688

                     31                     32                     33
                      A                      A                      A
 Frequencies --   1834.8054              1908.4339              2890.0435
 Red. masses --     10.4292                 9.9760                 1.0839
 Frc consts  --     20.6862                21.4072                 5.3337
 IR Inten    --    174.4753               432.6207                94.7993

                     34                     35                     36
                      A                      A                      A
 Frequencies --   2969.4734              3014.7697              3038.6222
 Red. masses --      1.0579                 1.1008                 1.0348
 Frc consts  --      5.4959                 5.8948                 5.6293
 IR Inten    --     46.9029                24.4728                11.5652

                     37                     38                     39
                      A                      A                      A
 Frequencies --   3099.1228              3126.4646              3242.7980
 Red. masses --      1.0983                 1.1031                 1.1129
 Frc consts  --      6.2153                 6.3529                 6.8955
 IR Inten    --      3.1788                10.8689                 1.0786

 - Thermochemistry -
 -------------------
 Temperature   298.150 Kelvin.  Pressure   1.00000 Atm.
 Atom     1 has atomic number  6 and mass  12.00000

 Molecular mass:   109.05276 amu.
 Principal axes and moments of inertia in atomic units:
                           1         2         3
     Eigenvalues --   236.948092228.266522311.75053
           X            0.99992   0.00512  -0.01127
           Y           -0.00577   0.99827  -0.05859
           Z            0.01095   0.05865   0.99822
 This molecule is an asymmetric top.
 Rotational symmetry number  1.
 Rotational temperatures (Kelvin)      0.36554     0.03887     0.03747
 Rotational constants (GHZ):           7.61661     0.80993     0.78068
 Zero-point vibrational energy     301799.5 (Joules/Mol)
                                   72.13182 (Kcal/Mol)
 Warning -- explicit consideration of  11 degrees of freedom as
           vibrations may cause significant error
 Vibrational temperatures:     49.30   104.30   149.71   175.46   241.09
          (Kelvin)            384.39   429.78   586.05   693.86   832.11
                              862.28  1024.10  1150.66  1171.68  1223.51
                             1424.20  1455.86  1507.78  1518.49  1583.65
                             1622.00  1756.63  1796.50  1901.58  2015.58
                             2020.95  2090.02  2120.06  2120.50  2435.62
                             2639.88  2745.81  4158.13  4272.41  4337.58
                             4371.90  4458.95  4498.29  4665.66

 Zero-point correction=                           0.114949 (Hartree/Particle)
 Thermal correction to Energy=                    0.123812
 Thermal correction to Enthalpy=                  0.124756
 Thermal correction to Gibbs Free Energy=         0.079975
 Sum of electronic and zero-point Energies=           -362.618880
 Sum of electronic and thermal Energies=              -362.610018
 Sum of electronic and thermal Enthalpies=            -362.609074
 Sum of electronic and thermal Free Energies=         -362.653855

                     E (Thermal)             CV                S
                      KCal/Mol        Cal/Mol-Kelvin    Cal/Mol-Kelvin
 Total                   77.693             29.574             94.250
 Electronic               0.000              0.000              0.000
 Translational            0.889              2.981             39.976
 Rotational               0.889              2.981             28.592
 Vibrational             75.916             23.612             25.682
 Vibration     1          0.594              1.983              5.566
 Vibration     2          0.599              1.967              4.085
 Vibration     3          0.605              1.946              3.377
 Vibration     4          0.609              1.931              3.069
 Vibration     5          0.624              1.882              2.463
 Vibration     6          0.672              1.733              1.615
 Vibration     7          0.692              1.676              1.424
 Vibration     8          0.772              1.454              0.936
 Vibration     9          0.838              1.289              0.704
 Vibration    10          0.935              1.078              0.488
 Vibration    11          0.957              1.033              0.451

 Optimization completed.
    -- Stationary point found.
 Normal termination of Gaussian 16 at Thu Aug  4 15:14:23 2022.
