 Gaussian 16, Revision A.03,
 Gaussian 16:  ES64L-G16RevA.03 25-Dec-2016

 -----------------------------
 # opt freq b3lyp/6-31g(2df,p)
 -----------------------------

 -------------------
 Title Card Required
 -------------------
 Symbolic Z-matrix:
 Charge =  0 Multiplicity = 1

 SCF Done:  E(RB3LYP) =  -365.143449616     A.U. after   12 cycles
 SCF Done:  E(RB3LYP) =  -365.154534983     A.U. after   11 cycles
 SCF Done:  E(RB3LYP) =  -365.157083060     A.U. after   10 cycles
 SCF Done:  E(RB3LYP) =  -365.158524207     A.U. after   11 cycles
 SCF Done:  E(RB3LYP) =  -365.159886355     A.U. after   12 cycles
 SCF Done:  E(RB3LYP) =  -365.160193418     A.U. after   11 cycles
 SCF Done:  E(RB3LYP) =  -365.161230169     A.U. after   10 cycles
 SCF Done:  E(RB3LYP) =  -365.161950474     A.U. after   10 cycles
 SCF Done:  E(RB3LYP) =  -365.162099002     A.U. after    9 cycles
 SCF Done:  E(RB3LYP) =  -365.162143848     A.U. after   10 cycles
 SCF Done:  E(RB3LYP) =  -365.162165820     A.U. after    9 cycles
 SCF Done:  E(RB3LYP) =  -365.162178242     A.U. after    9 cycles
 SCF Done:  E(RB3LYP) =  -365.162184095     A.U. after    8 cycles
 SCF Done:  E(RB3LYP) =  -365.162185588     A.U. after    7 cycles
 SCF Done:  E(RB3LYP) =  -365.162185792     A.U. after    7 cycles
 Optimization completed.
    -- Stationary point found.
 Normal termination of Gaussian 16 at Thu Aug  4 05:14:24 2022.

 ----------------------------------------------------------------------
 #N Geom=AllCheck Guess=TCheck SCRF=Check GenChk RB3LYP/6-31G(2df,p) Fr
 eq
 ----------------------------------------------------------------------

 Structure from the checkpoint file:  "CC1C2CCONC12.chk"
 -------------------
 Title Card Required
 -------------------
 Charge =  0 Multiplicity = 1

                         Standard orientation:
 ---------------------------------------------------------------------
 Center     Atomic      Atomic             Coordinates (Angstroms)
 Number     Number       Type             X           Y           Z
 ---------------------------------------------------------------------
      1          6           0        2.926503    0.040525   -0.040173
      2          6           0        1.485385    0.060890    0.415186
      3          6           0        0.424904    0.728168   -0.430284
      4          6           0       -0.791477    1.383489    0.210106
      5          6           0       -2.093486    0.550353    0.010983
      6          8           0       -1.847289   -0.810972   -0.306422
      7          7           0       -0.678388   -1.231223    0.459842
      8          6           0        0.460233   -0.780962   -0.301435
      9          1           0        3.441663    0.968594    0.231074
     10          1           0        2.996882   -0.068952   -1.127688
     11          1           0        3.475692   -0.792466    0.412730
     12          1           0        1.335217    0.137071    1.488958
     13          1           0        0.749782    1.132523   -1.383641
     14          1           0       -0.944631    2.388154   -0.194861
     15          1           0       -0.616715    1.504298    1.282148
     16          1           0       -2.676508    0.925949   -0.836376
     17          1           0       -2.714442    0.627091    0.915913
     18          1           0       -0.763276   -2.242484    0.423017
     19          1           0        0.770993   -1.368225   -1.165089
 ---------------------------------------------------------------------

 SCF Done:  E(RB3LYP) =  -365.162185792     A.U. after    1 cycles

 The electronic state is 1-A.
 Alpha  occ. eigenvalues --  -19.14839 -14.35877 -10.21896 -10.20550 -10.18899
 Alpha  occ. eigenvalues --  -10.18739 -10.18181 -10.17882  -1.04814  -0.88016
 Alpha  occ. eigenvalues --   -0.81430  -0.73916  -0.68841  -0.62988  -0.57100
 Alpha  occ. eigenvalues --   -0.54084  -0.51145  -0.48715  -0.45361  -0.43738
 Alpha  occ. eigenvalues --   -0.41797  -0.41161  -0.40382  -0.38030  -0.36358
 Alpha  occ. eigenvalues --   -0.34528  -0.33918  -0.30387  -0.27287  -0.25320
 Alpha  occ. eigenvalues --   -0.21609
 Alpha virt. eigenvalues --    0.08422   0.08584   0.10380   0.11226   0.12932
 Alpha virt. eigenvalues --    0.13928   0.15225   0.15525   0.16651   0.17055
 Alpha virt. eigenvalues --    0.18331   0.18902   0.20069   0.21821   0.22819

 Mulliken charges:
               1
     1  C   -0.417641
     2  C   -0.020772
     3  C   -0.017542
     4  C   -0.263811
     5  C   -0.033205
     6  O   -0.257052
     7  N   -0.253909
     8  C    0.017176
     9  H    0.119080
    10  H    0.114560
    11  H    0.118015
    12  H    0.090187
    13  H    0.083492
    14  H    0.100000
    15  H    0.113138
    16  H    0.103371
    17  H    0.088298
    18  H    0.241638
    19  H    0.074978
 Sum of Mulliken charges =  -0.00000

 Dipole moment (field-independent basis, Debye):
    X=              1.0823    Y=              0.4326    Z=             -0.2611  Tot=              1.1945
 Quadrupole moment (field-independent basis, Debye-Ang):
   XX=            -49.8237   YY=            -45.5110   ZZ=            -49.1663
   XY=             -2.6603   XZ=             -0.5878   YZ=             -0.3575

  Exact polarizability:  87.072  -3.848  69.526   0.230  -0.612  60.274
 Approx polarizability: 109.564  -3.568 102.694   3.428  -1.494  94.181

                      1                      2                      3
                      A                      A                      A
 Frequencies --     72.5030               192.5361               212.3921
 Red. masses --      1.9019                 1.1964                 2.8443
 Frc consts  --      0.0059                 0.0261                 0.0756
 IR Inten    --      0.4519                 0.1974                 2.1063

                      4                      5                      6
                      A                      A                      A
 Frequencies --    234.5172               296.4222               370.9028
 Red. masses --      2.3798                 2.2179                 2.8825
 Frc consts  --      0.0771                 0.1148                 0.2336
 IR Inten    --      0.1637                 0.4330                12.8873

                      7                      8                      9
                      A                      A                      A
 Frequencies --    445.4510               480.5322               529.5991
 Red. masses --      4.3028                 3.3521                 5.7011
 Frc consts  --      0.5030                 0.4560                 0.9421
 IR Inten    --      3.7584                 4.2725                 2.8428

                     10                     11                     12
                      A                      A                      A
 Frequencies --    694.9869               807.7053               813.9915
 Red. masses --      2.1345                 2.8089                 3.0598
 Frc consts  --      0.6074                 1.0797                 1.1945
 IR Inten    --     12.2311                 9.8826                 9.6950

                     13                     14                     15
                      A                      A                      A
 Frequencies --    825.8176               855.1229               888.3788
 Red. masses --      1.7759                 2.7335                 1.8726
 Frc consts  --      0.7136                 1.1777                 0.8707
 IR Inten    --      2.3694                15.1395                 0.8451

                     16                     17                     18
                      A                      A                      A
 Frequencies --    925.4546               964.6740              1014.8495
 Red. masses --      2.5233                 1.5667                 1.5442
 Frc consts  --      1.2733                 0.8590                 0.9370
 IR Inten    --     12.8974                 5.1396                14.0809

                     19                     20                     21
                      A                      A                      A
 Frequencies --   1019.7195              1050.2609              1080.9373
 Red. masses --      1.5732                 2.7663                 2.4646
 Frc consts  --      0.9638                 1.7978                 1.6967
 IR Inten    --     27.9025                 6.8261                17.2818

                     22                     23                     24
                      A                      A                      A
 Frequencies --   1101.5061              1121.7058              1137.0295
 Red. masses --      1.6692                 1.9708                 1.7686
 Frc consts  --      1.1933                 1.4610                 1.3472
 IR Inten    --      2.2459                19.3350                 5.7258

                     25                     26                     27
                      A                      A                      A
 Frequencies --   1166.9344              1174.3102              1223.2936
 Red. masses --      1.9409                 2.0095                 1.5423
 Frc consts  --      1.5572                 1.6327                 1.3598
 IR Inten    --      2.5222                 5.2581                 1.2653

                     28                     29                     30
                      A                      A                      A
 Frequencies --   1260.9641              1267.6672              1320.2887
 Red. masses --      1.3239                 1.1239                 1.2867
 Frc consts  --      1.2403                 1.0641                 1.3215
 IR Inten    --      5.5621                 1.7726                 1.2528

                     31                     32                     33
                      A                      A                      A
 Frequencies --   1340.4699              1360.3712              1396.0365
 Red. masses --      1.2979                 1.3074                 1.2963
 Frc consts  --      1.3740                 1.4255                 1.4885
 IR Inten    --      4.1380                 0.5921                 3.7563

                     34                     35                     36
                      A                      A                      A
 Frequencies --   1416.8758              1431.9352              1471.1612
 Red. masses --      1.2431                 1.3572                 1.8440
 Frc consts  --      1.4703                 1.6396                 2.3514
 IR Inten    --      1.8983                 8.6825                 0.6032

                     37                     38                     39
                      A                      A                      A
 Frequencies --   1488.3239              1493.3203              1503.2000
 Red. masses --      1.0950                 1.0465                 1.1262
 Frc consts  --      1.4291                 1.3749                 1.4993
 IR Inten    --      1.5825                 1.8947                 6.6798

                     40                     41                     42
                      A                      A                      A
 Frequencies --   1506.6888              2987.3537              3025.5583
 Red. masses --      1.0952                 1.0685                 1.0352
 Frc consts  --      1.4648                 5.6183                 5.5831
 IR Inten    --      1.1312                86.0986                36.2484

                     43                     44                     45
                      A                      A                      A
 Frequencies --   3055.4558              3064.9819              3088.6838
 Red. masses --      1.0611                 1.0944                 1.1013
 Frc consts  --      5.8366                 6.0574                 6.1902
 IR Inten    --     34.4981                16.5435                25.6506

                     46                     47                     48
                      A                      A                      A
 Frequencies --   3092.2315              3096.4895              3097.7769
 Red. masses --      1.0990                 1.1034                 1.0895
 Frc consts  --      6.1915                 6.2332                 6.1598
 IR Inten    --     19.3367                21.9438                39.9861

                     49                     50                     51
                      A                      A                      A
 Frequencies --   3143.8377              3156.6247              3522.3161
 Red. masses --      1.0891                 1.0885                 1.0759
 Frc consts  --      6.3420                 6.3903                 7.8644
 IR Inten    --      8.2938                28.3136                 2.1682

 - Thermochemistry -
 -------------------
 Temperature   298.150 Kelvin.  Pressure   1.00000 Atm.
 Atom     1 has atomic number  6 and mass  12.00000

 Molecular mass:   113.08406 amu.
 Principal axes and moments of inertia in atomic units:
                           1         2         3
     Eigenvalues --   399.477311173.055871423.71498
           X            0.99969  -0.02354  -0.00799
           Y            0.02360   0.99969   0.00798
           Z            0.00780  -0.00817   0.99994
 This molecule is an asymmetric top.
 Rotational symmetry number  1.
 Rotational temperatures (Kelvin)      0.21682     0.07384     0.06084
 Rotational constants (GHZ):           4.51776     1.53850     1.26763
 Zero-point vibrational energy     438372.4 (Joules/Mol)
                                  104.77353 (Kcal/Mol)
 Warning -- explicit consideration of   9 degrees of freedom as
           vibrations may cause significant error
 Vibrational temperatures:    104.32   277.02   305.58   337.42   426.49
          (Kelvin)            533.65   640.90   691.38   761.98   999.93
                             1162.11  1171.15  1188.17  1230.33  1278.18
                             1331.52  1387.95  1460.14  1467.15  1511.09
                             1555.23  1584.82  1613.88  1635.93  1678.96
                             1689.57  1760.05  1814.25  1823.89  1899.60
                             1928.64  1957.27  2008.59  2038.57  2060.24
                             2116.67  2141.37  2148.55  2162.77  2167.79
                             4298.14  4353.10  4396.12  4409.83  4443.93
                             4449.03  4455.16  4457.01  4523.28  4541.68
                             5067.83

 Zero-point correction=                           0.166967 (Hartree/Particle)
 Thermal correction to Energy=                    0.174582
 Thermal correction to Enthalpy=                  0.175526
 Thermal correction to Gibbs Free Energy=         0.135064
 Sum of electronic and zero-point Energies=           -364.995219
 Sum of electronic and thermal Energies=              -364.987604
 Sum of electronic and thermal Enthalpies=            -364.986660
 Sum of electronic and thermal Free Energies=         -365.027122

                     E (Thermal)             CV                S
                      KCal/Mol        Cal/Mol-Kelvin    Cal/Mol-Kelvin
 Total                  109.552             29.308             85.160
 Electronic               0.000              0.000              0.000
 Translational            0.889              2.981             40.085
 Rotational               0.889              2.981             27.991
 Vibrational            107.774             23.346             17.084
 Vibration     1          0.599              1.967              4.084
 Vibration     2          0.635              1.850              2.203
 Vibration     3          0.643              1.822              2.023
 Vibration     4          0.654              1.788              1.844
 Vibration     5          0.690              1.680              1.437
 Vibration     6          0.743              1.532              1.076
 Vibration     7          0.805              1.371              0.810
 Vibration     8          0.837              1.293              0.709
 Vibration     9          0.885              1.185              0.588

 Optimization completed.
    -- Stationary point found.
 Normal termination of Gaussian 16 at Thu Aug  4 05:37:28 2022.
