 Gaussian 16, Revision A.03,
 Gaussian 16:  ES64L-G16RevA.03 25-Dec-2016

 -----------------------------
 # opt freq b3lyp/6-31g(2df,p)
 -----------------------------

 -------------------
 Title Card Required
 -------------------
 Symbolic Z-matrix:
 Charge =  0 Multiplicity = 1

 SCF Done:  E(RB3LYP) =  -250.563060461     A.U. after   13 cycles
 SCF Done:  E(RB3LYP) =  -250.602214236     A.U. after   12 cycles
 SCF Done:  E(RB3LYP) =  -250.629471605     A.U. after   11 cycles
 SCF Done:  E(RB3LYP) =  -250.632253614     A.U. after   10 cycles
 SCF Done:  E(RB3LYP) =  -250.633420979     A.U. after   10 cycles
 SCF Done:  E(RB3LYP) =  -250.633674463     A.U. after   10 cycles
 SCF Done:  E(RB3LYP) =  -250.633914673     A.U. after   10 cycles
 SCF Done:  E(RB3LYP) =  -250.633962918     A.U. after    9 cycles
 SCF Done:  E(RB3LYP) =  -250.634011170     A.U. after    9 cycles
 SCF Done:  E(RB3LYP) =  -250.634017459     A.U. after    7 cycles
 SCF Done:  E(RB3LYP) =  -250.634020191     A.U. after    7 cycles
 SCF Done:  E(RB3LYP) =  -250.634021072     A.U. after    7 cycles
 SCF Done:  E(RB3LYP) =  -250.634021167     A.U. after    6 cycles
 Optimization completed.
    -- Stationary point found.
 Normal termination of Gaussian 16 at Thu Aug  4 11:24:44 2022.

 ----------------------------------------------------------------------
 #N Geom=AllCheck Guess=TCheck SCRF=Check GenChk RB3LYP/6-31G(2df,p) Fr
 eq
 ----------------------------------------------------------------------

 Structure from the checkpoint file:  "CC1C2CC12N.chk"
 -------------------
 Title Card Required
 -------------------
 Charge =  0 Multiplicity = 1

                         Standard orientation:
 ---------------------------------------------------------------------
 Center     Atomic      Atomic             Coordinates (Angstroms)
 Number     Number       Type             X           Y           Z
 ---------------------------------------------------------------------
      1          6           0       -2.053247    0.045689   -0.020639
      2          6           0       -0.724618   -0.547388    0.398134
      3          6           0        0.289563   -0.903861   -0.663147
      4          6           0        1.526220   -0.850101    0.183111
      5          6           0        0.530251    0.269271    0.203244
      6          7           0        0.778930    1.636284   -0.088165
      7          1           0       -2.785983   -0.738960   -0.235322
      8          1           0       -1.955944    0.657524   -0.924566
      9          1           0       -2.471935    0.679361    0.769302
     10          1           0       -0.789918   -1.204364    1.272502
     11          1           0        0.176293   -0.999256   -1.731804
     12          1           0        2.457492   -0.633753   -0.334888
     13          1           0        1.627067   -1.515781    1.043292
     14          1           0        0.868054    2.174200    0.769508
     15          1           0        0.013356    2.045388   -0.615093
 ---------------------------------------------------------------------

 SCF Done:  E(RB3LYP) =  -250.634021167     A.U. after    1 cycles

 The electronic state is 1-A.
 Alpha  occ. eigenvalues --  -14.31924 -10.21557 -10.19190 -10.18523 -10.18441
 Alpha  occ. eigenvalues --  -10.17806  -0.93070  -0.85225  -0.73878  -0.63529
 Alpha  occ. eigenvalues --   -0.56565  -0.55023  -0.49163  -0.47965  -0.44657
 Alpha  occ. eigenvalues --   -0.41453  -0.41098  -0.36955  -0.34900  -0.32305
 Alpha  occ. eigenvalues --   -0.31190  -0.24880  -0.21686
 Alpha virt. eigenvalues --    0.07748   0.09961   0.12519   0.12885   0.13811
 Alpha virt. eigenvalues --    0.14709   0.17611   0.17872   0.18833   0.19889
 Alpha virt. eigenvalues --    0.20491   0.22439   0.24998   0.26721   0.29587

 Mulliken charges:
               1
     1  C   -0.426859
     2  C   -0.037785
     3  C   -0.132662
     4  C   -0.296381
     5  C    0.291965
     6  N   -0.578325
     7  H    0.123299
     8  H    0.106522
     9  H    0.117439
    10  H    0.062088
    11  H    0.107274
    12  H    0.109086
    13  H    0.090396
    14  H    0.232636
    15  H    0.231306
 Sum of Mulliken charges =  -0.00000

 Dipole moment (field-independent basis, Debye):
    X=             -1.0510    Y=              0.8026    Z=              0.1819  Tot=              1.3348
 Quadrupole moment (field-independent basis, Debye-Ang):
   XX=            -38.2967   YY=            -36.4390   ZZ=            -36.0940
   XY=             -1.6129   XZ=              1.0878   YZ=              1.0187

  Exact polarizability:  64.585  -1.403  57.438   0.423  -0.322  50.414
 Approx polarizability:  84.919   0.411  84.164   1.126   2.242  77.964

                      1                      2                      3
                      A                      A                      A
 Frequencies --    170.5654               209.2928               231.4990
 Red. masses --      1.1434                 1.2921                 1.8093
 Frc consts  --      0.0196                 0.0333                 0.0571
 IR Inten    --      0.9695                18.9333                10.2707

                      4                      5                      6
                      A                      A                      A
 Frequencies --    289.5709               344.3632               424.9173
 Red. masses --      2.1951                 2.1954                 2.4021
 Frc consts  --      0.1084                 0.1534                 0.2555
 IR Inten    --      6.2690                 6.5165                 7.8237

                      7                      8                      9
                      A                      A                      A
 Frequencies --    525.4788               667.4144               758.7030
 Red. masses --      2.6610                 2.9577                 3.7230
 Frc consts  --      0.4329                 0.7762                 1.2627
 IR Inten    --      4.2277                11.7632                 5.2453

                     10                     11                     12
                      A                      A                      A
 Frequencies --    814.7820               849.9659               883.8669
 Red. masses --      1.7305                 2.1147                 1.2960
 Frc consts  --      0.6769                 0.9001                 0.5965
 IR Inten    --     79.3841                15.1562                60.3447

                     13                     14                     15
                      A                      A                      A
 Frequencies --    959.1822               963.8903              1012.8388
 Red. masses --      1.2644                 1.7491                 1.5237
 Frc consts  --      0.6854                 0.9575                 0.9209
 IR Inten    --     13.4043                 4.4842                 1.1404

                     16                     17                     18
                      A                      A                      A
 Frequencies --   1053.1130              1096.7574              1122.1511
 Red. masses --      1.5460                 1.2914                 1.4968
 Frc consts  --      1.0102                 0.9153                 1.1105
 IR Inten    --     12.4728                 3.6759                 2.7856

                     19                     20                     21
                      A                      A                      A
 Frequencies --   1142.4555              1156.5356              1174.1673
 Red. masses --      2.0666                 1.3662                 1.9705
 Frc consts  --      1.5892                 1.0766                 1.6007
 IR Inten    --      0.3066                 0.9542                 8.9949

                     22                     23                     24
                      A                      A                      A
 Frequencies --   1242.7630              1295.3499              1393.8236
 Red. masses --      1.8120                 1.6660                 1.7131
 Frc consts  --      1.6489                 1.6471                 1.9609
 IR Inten    --      3.1721                 8.4494                 6.5643

                     25                     26                     27
                      A                      A                      A
 Frequencies --   1416.5098              1450.1091              1491.8590
 Red. masses --      1.4119                 1.7048                 1.0515
 Frc consts  --      1.6692                 2.1121                 1.3788
 IR Inten    --      3.0076                11.1393                 2.1709

                     28                     29                     30
                      A                      A                      A
 Frequencies --   1501.3036              1544.3861              1656.8655
 Red. masses --      1.0649                 2.1139                 1.0953
 Frc consts  --      1.4141                 2.9706                 1.7716
 IR Inten    --      4.6630                14.9420                13.5998

                     31                     32                     33
                      A                      A                      A
 Frequencies --   3025.1442              3026.6412              3057.4632
 Red. masses --      1.0647                 1.0559                 1.0615
 Frc consts  --      5.7410                 5.6989                 5.8464
 IR Inten    --     48.4148                31.2768                51.4831

                     34                     35                     36
                      A                      A                      A
 Frequencies --   3089.3127              3095.1156              3170.6676
 Red. masses --      1.1009                 1.1002                 1.1055
 Frc consts  --      6.1902                 6.2096                 6.5483
 IR Inten    --     30.4753                31.7963                14.5434

                     37                     38                     39
                      A                      A                      A
 Frequencies --   3238.6666              3482.7677              3558.8902
 Red. masses --      1.0962                 1.0487                 1.0921
 Frc consts  --      6.7747                 7.4946                 8.1496
 IR Inten    --      2.7417                 1.1631                 1.0092

 - Thermochemistry -
 -------------------
 Temperature   298.150 Kelvin.  Pressure   1.00000 Atm.
 Atom     1 has atomic number  6 and mass  12.00000

 Molecular mass:    83.07350 amu.
 Principal axes and moments of inertia in atomic units:
                           1         2         3
     Eigenvalues --   330.38613 508.06796 720.36319
           X            0.99896  -0.04493   0.00738
           Y            0.04502   0.99892  -0.01139
           Z           -0.00686   0.01171   0.99991
 This molecule is an asymmetric top.
 Rotational symmetry number  1.
 Rotational temperatures (Kelvin)      0.26216     0.17048     0.12024
 Rotational constants (GHZ):           5.46252     3.55216     2.50532
 Zero-point vibrational energy     344459.6 (Joules/Mol)
                                   82.32782 (Kcal/Mol)
 Warning -- explicit consideration of   7 degrees of freedom as
           vibrations may cause significant error
 Vibrational temperatures:    245.41   301.13   333.08   416.63   495.46
          (Kelvin)            611.36   756.05   960.26  1091.60  1172.29
                             1222.91  1271.69  1380.05  1386.82  1457.25
                             1515.19  1577.99  1614.53  1643.74  1664.00
                             1689.36  1788.06  1863.72  2005.40  2038.04
                             2086.38  2146.45  2160.04  2222.03  2383.86
                             4352.51  4354.66  4399.01  4444.83  4453.18
                             4561.88  4659.72  5010.93  5120.45

 Zero-point correction=                           0.131198 (Hartree/Particle)
 Thermal correction to Energy=                    0.137726
 Thermal correction to Enthalpy=                  0.138670
 Thermal correction to Gibbs Free Energy=         0.101679
 Sum of electronic and zero-point Energies=           -250.502823
 Sum of electronic and thermal Energies=              -250.496295
 Sum of electronic and thermal Enthalpies=            -250.495351
 Sum of electronic and thermal Free Energies=         -250.532343

                     E (Thermal)             CV                S
                      KCal/Mol        Cal/Mol-Kelvin    Cal/Mol-Kelvin
 Total                   86.424             24.346             77.855
 Electronic               0.000              0.000              0.000
 Translational            0.889              2.981             39.165
 Rotational               0.889              2.981             26.294
 Vibrational             84.647             18.384             12.396
 Vibration     1          0.626              1.879              2.429
 Vibration     2          0.642              1.827              2.050
 Vibration     3          0.653              1.793              1.867
 Vibration     4          0.686              1.693              1.476
 Vibration     5          0.723              1.587              1.192
 Vibration     6          0.787              1.416              0.875
 Vibration     7          0.880              1.194              0.597

 Optimization completed.
    -- Stationary point found.
 Normal termination of Gaussian 16 at Thu Aug  4 11:36:43 2022.
