 Gaussian 16, Revision A.03,
 Gaussian 16:  ES64L-G16RevA.03 25-Dec-2016

 -----------------------------
 # opt freq b3lyp/6-31g(2df,p)
 -----------------------------

 -------------------
 Title Card Required
 -------------------
 Symbolic Z-matrix:
 Charge =  0 Multiplicity = 1

 SCF Done:  E(RB3LYP) =  -401.702314868     A.U. after   22 cycles
 SCF Done:  E(RB3LYP) =  -401.795297899     A.U. after   16 cycles
 SCF Done:  E(RB3LYP) =  -401.861293289     A.U. after   15 cycles
 SCF Done:  E(RB3LYP) =  -401.905755238     A.U. after   15 cycles
 SCF Done:  E(RB3LYP) =  -401.928666207     A.U. after   15 cycles
 SCF Done:  E(RB3LYP) =  -401.934354680     A.U. after   14 cycles
 SCF Done:  E(RB3LYP) =  -401.937396599     A.U. after   14 cycles
 SCF Done:  E(RB3LYP) =  -401.939613042     A.U. after   14 cycles
 SCF Done:  E(RB3LYP) =  -401.940305115     A.U. after   13 cycles
 SCF Done:  E(RB3LYP) =  -401.940322788     A.U. after    8 cycles
 SCF Done:  E(RB3LYP) =  -401.941859707     A.U. after   12 cycles
 SCF Done:  E(RB3LYP) =  -401.941856105     A.U. after   11 cycles
 SCF Done:  E(RB3LYP) =  -401.941862973     A.U. after   11 cycles
 SCF Done:  E(RB3LYP) =  -401.941863416     A.U. after    9 cycles
 SCF Done:  E(RB3LYP) =  -401.941863530     A.U. after    8 cycles
 SCF Done:  E(RB3LYP) =  -401.941863954     A.U. after    9 cycles
 SCF Done:  E(RB3LYP) =  -401.941864043     A.U. after    7 cycles
 SCF Done:  E(RB3LYP) =  -401.941864150     A.U. after    8 cycles
 SCF Done:  E(RB3LYP) =  -401.941864165     A.U. after    7 cycles
 Optimization completed.
    -- Stationary point found.
 Normal termination of Gaussian 16 at Thu Aug  4 14:32:47 2022.

 ----------------------------------------------------------------------
 #N Geom=AllCheck Guess=TCheck SCRF=Check GenChk RB3LYP/6-31G(2df,p) Fr
 eq
 ----------------------------------------------------------------------

 Structure from the checkpoint file:  "CC1CtCC1OCCdN.chk"
 -------------------
 Title Card Required
 -------------------
 Charge =  0 Multiplicity = 1

                         Standard orientation:
 ---------------------------------------------------------------------
 Center     Atomic      Atomic             Coordinates (Angstroms)
 Number     Number       Type             X           Y           Z
 ---------------------------------------------------------------------
      1          6           0       -2.770370    1.651819    0.144477
      2          6           0       -2.642044    0.251861   -0.394724
      3          6           0       -2.914209   -0.896430    0.461489
      4          6           0       -1.623786   -0.952233    0.107677
      5          6           0       -0.329019   -1.166936   -0.139522
      6          8           0        0.608141   -0.198330    0.033574
      7          6           0        1.963320   -0.627734   -0.026448
      8          6           0        2.834069    0.585525   -0.245699
      9          7           0        3.993514    0.788336    0.220779
     10          1           0       -3.626641    2.148887   -0.328504
     11          1           0       -1.878736    2.245468   -0.088104
     12          1           0       -2.920746    1.640146    1.225780
     13          1           0       -2.560934    0.190524   -1.481644
     14          1           0        0.035451   -2.112985   -0.539190
     15          1           0        2.095716   -1.326445   -0.868596
     16          1           0        2.246946   -1.150870    0.897113
     17          1           0        2.396620    1.339713   -0.907154
     18          1           0        4.284836    0.018614    0.832759
 ---------------------------------------------------------------------

 SCF Done:  E(RB3LYP) =  -401.941864165     A.U. after    1 cycles

 The electronic state is 1-A.
 Alpha  occ. eigenvalues --  -19.19809 -14.33617 -10.26908 -10.26736 -10.24833
 Alpha  occ. eigenvalues --  -10.23821 -10.20365 -10.18663 -10.18662  -1.09089
 Alpha  occ. eigenvalues --   -0.92090  -0.87352  -0.77910  -0.73026  -0.69074
 Alpha  occ. eigenvalues --   -0.61456  -0.57002  -0.55461  -0.53659  -0.50299
 Alpha  occ. eigenvalues --   -0.47446  -0.44949  -0.43256  -0.42572  -0.40393
 Alpha  occ. eigenvalues --   -0.37977  -0.37184  -0.34958  -0.33520  -0.32643
 Alpha  occ. eigenvalues --   -0.27946  -0.25530  -0.19763
 Alpha virt. eigenvalues --   -0.06813  -0.02644   0.01757   0.07964   0.09947
 Alpha virt. eigenvalues --    0.11459   0.11584   0.12832   0.13096   0.14304
 Alpha virt. eigenvalues --    0.15990   0.16604   0.17192   0.18493   0.23865

 Mulliken charges:
               1
     1  C   -0.402994
     2  C    0.016661
     3  C   -0.300800
     4  C    0.215099
     5  C   -0.142798
     6  O   -0.202673
     7  C   -0.126936
     8  C    0.068388
     9  N   -0.380146
    10  H    0.132974
    11  H    0.134587
    12  H    0.140571
    13  H    0.121327
    14  H    0.125232
    15  H    0.127735
    16  H    0.123717
    17  H    0.126279
    18  H    0.223775
 Sum of Mulliken charges =  -0.00000

 Dipole moment (field-independent basis, Debye):
    X=              1.7336    Y=             -0.6241    Z=             -1.8842  Tot=              2.6353
 Quadrupole moment (field-independent basis, Debye-Ang):
   XX=            -66.6876   YY=            -52.8149   ZZ=            -52.8801
   XY=            -14.9022   XZ=              6.6865   YZ=              1.1257

  Exact polarizability: 149.487 -11.101  80.642   0.708  -3.638  60.621
 Approx polarizability: 257.699 -20.693 120.634  -5.245  -6.295  95.955

                      1                      2                      3
                      A                      A                      A
 Frequencies --     36.9302                47.0952                52.3486
 Red. masses --      2.6600                 2.7745                 4.2708
 Frc consts  --      0.0021                 0.0036                 0.0069
 IR Inten    --     14.4330                 1.5835                 1.7194

                      4                      5                      6
                      A                      A                      A
 Frequencies --     85.6530               121.2949               152.6763
 Red. masses --      3.1229                 2.4153                 1.2921
 Frc consts  --      0.0135                 0.0209                 0.0177
 IR Inten    --     14.2905                30.7906                11.7405

                      7                      8                      9
                      A                      A                      A
 Frequencies --    183.0778               273.3235               311.7921
 Red. masses --      3.1172                 3.0204                 4.3925
 Frc consts  --      0.0616                 0.1329                 0.2516
 IR Inten    --     12.4042                54.0202                11.5244

                     10                     11                     12
                      A                      A                      A
 Frequencies --    368.7408               415.0409               460.9507
 Red. masses --      5.9516                 3.6978                 3.1528
 Frc consts  --      0.4768                 0.3753                 0.3947
 IR Inten    --      8.1271                58.1824                 3.8092

                     13                     14                     15
                      A                      A                      A
 Frequencies --    494.1256               612.2365               724.9501
 Red. masses --      3.9399                 3.5740                 1.8547
 Frc consts  --      0.5668                 0.7893                 0.5743
 IR Inten    --     77.8915                11.8483                11.6547

                     16                     17                     18
                      A                      A                      A
 Frequencies --    788.1208               860.0191               890.4732
 Red. masses --      1.4516                 1.8688                 1.5642
 Frc consts  --      0.5312                 0.8144                 0.7308
 IR Inten    --      7.4940                58.8890                14.1007

                     19                     20                     21
                      A                      A                      A
 Frequencies --    981.8668              1018.9338              1044.1540
 Red. masses --      2.8629                 1.7886                 2.7361
 Frc consts  --      1.6262                 1.0941                 1.7576
 IR Inten    --     22.4685                 4.2979                 5.8354

                     22                     23                     24
                      A                      A                      A
 Frequencies --   1063.9864              1079.1713              1103.8606
 Red. masses --      2.9257                 2.0576                 2.6654
 Frc consts  --      1.9514                 1.4119                 1.9136
 IR Inten    --     38.9262                30.3704                17.3212

                     25                     26                     27
                      A                      A                      A
 Frequencies --   1146.9227              1173.4541              1217.0602
 Red. masses --      1.0869                 2.6874                 1.8292
 Frc consts  --      0.8424                 2.1803                 1.5964
 IR Inten    --     59.3361                 7.8789               283.9675

                     28                     29                     30
                      A                      A                      A
 Frequencies --   1229.5559              1277.0655              1353.3677
 Red. masses --      1.5630                 1.2700                 1.2658
 Frc consts  --      1.3922                 1.2203                 1.3660
 IR Inten    --    377.6776                 2.9369               150.9476

                     31                     32                     33
                      A                      A                      A
 Frequencies --   1372.0348              1389.9477              1408.7406
 Red. masses --      1.3787                 1.2413                 1.3001
 Frc consts  --      1.5291                 1.4129                 1.5201
 IR Inten    --     75.6326                 3.3072                 5.2439

                     34                     35                     36
                      A                      A                      A
 Frequencies --   1433.0026              1474.7979              1483.3921
 Red. masses --      1.5619                 1.0691                 1.0501
 Frc consts  --      1.8898                 1.3700                 1.3614
 IR Inten    --     39.0956                 2.9565                 6.9844

                     37                     38                     39
                      A                      A                      A
 Frequencies --   1488.3313              1739.7613              1822.5774
 Red. masses --      1.1022                 8.5824                10.3891
 Frc consts  --      1.4385                15.3052                20.3330
 IR Inten    --      5.4419                52.6999               139.0012

                     40                     41                     42
                      A                      A                      A
 Frequencies --   2974.8076              3023.7585              3031.8630
 Red. masses --      1.0598                 1.0373                 1.1000
 Frc consts  --      5.5259                 5.5879                 5.9575
 IR Inten    --     56.0995                12.8714                28.3986

                     43                     44                     45
                      A                      A                      A
 Frequencies --   3083.2193              3091.5912              3094.3933
 Red. masses --      1.0988                 1.0853                 1.0887
 Frc consts  --      6.1545                 6.1115                 6.1418
 IR Inten    --     12.1719                11.8888                20.6351

                     46                     47                     48
                      A                      A                      A
 Frequencies --   3120.6251              3135.6305              3405.9726
 Red. masses --      1.0867                 1.1003                 1.0741
 Frc consts  --      6.2350                 6.3741                 7.3415
 IR Inten    --     13.8369                11.7109                 2.4162

 - Thermochemistry -
 -------------------
 Temperature   298.150 Kelvin.  Pressure   1.00000 Atm.
 Atom     1 has atomic number  6 and mass  12.00000

 Molecular mass:   123.06841 amu.
 Principal axes and moments of inertia in atomic units:
                           1         2         3
     Eigenvalues --   440.955182723.661323066.86854
           X            0.99953  -0.03024   0.00403
           Y            0.03021   0.99951   0.00795
           Z           -0.00427  -0.00782   0.99996
 This molecule is an asymmetric top.
 Rotational symmetry number  1.
 Warning -- assumption of classical behavior for rotation
           may cause significant error
 Rotational temperatures (Kelvin)      0.19642     0.03180     0.02824
 Rotational constants (GHZ):           4.09280     0.66262     0.58846
 Zero-point vibrational energy     371695.9 (Joules/Mol)
                                   88.83744 (Kcal/Mol)
 Warning -- explicit consideration of  14 degrees of freedom as
           vibrations may cause significant error
 Vibrational temperatures:     53.13    67.76    75.32   123.24   174.52
          (Kelvin)            219.67   263.41   393.25   448.60   530.54
                              597.15   663.21   710.94   880.87  1043.04
                             1133.93  1237.38  1281.19  1412.69  1466.02
                             1502.30  1530.84  1552.69  1588.21  1650.17
                             1688.34  1751.08  1769.06  1837.41  1947.19
                             1974.05  1999.82  2026.86  2061.77  2121.91
                             2134.27  2141.38  2503.13  2622.28  4280.08
                             4350.51  4362.17  4436.06  4448.11  4452.14
                             4489.88  4511.47  4900.43

 Zero-point correction=                           0.141571 (Hartree/Particle)
 Thermal correction to Energy=                    0.152382
 Thermal correction to Enthalpy=                  0.153327
 Thermal correction to Gibbs Free Energy=         0.103306
 Sum of electronic and zero-point Energies=           -401.800293
 Sum of electronic and thermal Energies=              -401.789482
 Sum of electronic and thermal Enthalpies=            -401.788538
 Sum of electronic and thermal Free Energies=         -401.838558

                     E (Thermal)             CV                S
                      KCal/Mol        Cal/Mol-Kelvin    Cal/Mol-Kelvin
 Total                   95.621             35.849            105.277
 Electronic               0.000              0.000              0.000
 Translational            0.889              2.981             40.337
 Rotational               0.889              2.981             29.689
 Vibrational             93.844             29.887             35.252
 Vibration     1          0.594              1.982              5.417
 Vibration     2          0.595              1.979              4.936
 Vibration     3          0.596              1.977              4.727
 Vibration     4          0.601              1.959              3.757
 Vibration     5          0.609              1.931              3.080
 Vibration     6          0.619              1.900              2.639
 Vibration     7          0.631              1.863              2.297
 Vibration     8          0.676              1.723              1.575
 Vibration     9          0.700              1.651              1.353
 Vibration    10          0.741              1.536              1.085
 Vibration    11          0.778              1.438              0.909
 Vibration    12          0.819              1.337              0.763
 Vibration    13          0.850              1.263              0.673
 Vibration    14          0.971              1.006              0.429

 Optimization completed.
    -- Stationary point found.
 Normal termination of Gaussian 16 at Thu Aug  4 14:52:51 2022.
