 Gaussian 16, Revision A.03,
 Gaussian 16:  ES64L-G16RevA.03 25-Dec-2016

 -----------------------------
 # opt freq b3lyp/6-31g(2df,p)
 -----------------------------

 -------------------
 Title Card Required
 -------------------
 Symbolic Z-matrix:
 Charge =  0 Multiplicity = 1

 SCF Done:  E(RB3LYP) =  -271.789795327     A.U. after   12 cycles
 SCF Done:  E(RB3LYP) =  -271.791519373     A.U. after   10 cycles
 SCF Done:  E(RB3LYP) =  -271.791616882     A.U. after    9 cycles
 SCF Done:  E(RB3LYP) =  -271.791630489     A.U. after    7 cycles
 SCF Done:  E(RB3LYP) =  -271.791631612     A.U. after    7 cycles
 SCF Done:  E(RB3LYP) =  -271.791631861     A.U. after    6 cycles
 Optimization completed.
    -- Stationary point found.
 Normal termination of Gaussian 16 at Thu Aug  4 01:39:32 2022.

 ----------------------------------------------------------------------
 #N Geom=AllCheck Guess=TCheck SCRF=Check GenChk RB3LYP/6-31G(2df,p) Fr
 eq
 ----------------------------------------------------------------------

 Structure from the checkpoint file:  "CC1CCCO1.chk"
 -------------------
 Title Card Required
 -------------------
 Charge =  0 Multiplicity = 1

                         Standard orientation:
 ---------------------------------------------------------------------
 Center     Atomic      Atomic             Coordinates (Angstroms)
 Number     Number       Type             X           Y           Z
 ---------------------------------------------------------------------
      1          6           0       -2.144644   -0.035528    0.165670
      2          6           0       -0.736020    0.058771   -0.398292
      3          6           0        0.125918    1.203255    0.147471
      4          6           0        1.544091    0.661717   -0.077400
      5          6           0        1.355849   -0.845606    0.169554
      6          8           0       -0.021989   -1.135751   -0.064088
      7          1           0       -2.729768    0.847721   -0.110588
      8          1           0       -2.115291   -0.110086    1.257319
      9          1           0       -2.655525   -0.920483   -0.224012
     10          1           0       -0.793589    0.145528   -1.497603
     11          1           0       -0.072868    1.339099    1.217316
     12          1           0       -0.063220    2.154212   -0.356979
     13          1           0        2.292944    1.105467    0.583029
     14          1           0        1.859902    0.845114   -1.109885
     15          1           0        1.602981   -1.117473    1.205359
     16          1           0        1.979178   -1.458749   -0.493273
 ---------------------------------------------------------------------

 SCF Done:  E(RB3LYP) =  -271.791631861     A.U. after    1 cycles

 The electronic state is 1-A.
 Alpha  occ. eigenvalues --  -19.12312 -10.22489 -10.21961 -10.18335 -10.18083
 Alpha  occ. eigenvalues --  -10.16988  -1.02027  -0.78031  -0.75887  -0.66869
 Alpha  occ. eigenvalues --   -0.59133  -0.56349  -0.49555  -0.47570  -0.43831
 Alpha  occ. eigenvalues --   -0.42252  -0.40455  -0.37698  -0.36793  -0.34715
 Alpha  occ. eigenvalues --   -0.33153  -0.32820  -0.30438  -0.23784
 Alpha virt. eigenvalues --    0.08683   0.11383   0.11794   0.13613   0.15177
 Alpha virt. eigenvalues --    0.15588   0.17044   0.17662   0.18521   0.19234
 Alpha virt. eigenvalues --    0.19595   0.21805   0.23339   0.25876   0.27011

 Mulliken charges:
               1
     1  C   -0.395921
     2  C    0.169908
     3  C   -0.219336
     4  C   -0.234160
     5  C   -0.054897
     6  O   -0.275170
     7  H    0.110100
     8  H    0.116717
     9  H    0.124460
    10  H    0.060517
    11  H    0.100233
    12  H    0.098925
    13  H    0.101960
    14  H    0.105700
    15  H    0.094532
    16  H    0.096429
 Sum of Mulliken charges =  -0.00000

 Dipole moment (field-independent basis, Debye):
    X=              0.5345    Y=              1.4067    Z=             -0.0281  Tot=              1.5050
 Quadrupole moment (field-independent basis, Debye-Ang):
   XX=            -36.0438   YY=            -39.8647   ZZ=            -37.1431
   XY=             -0.8361   XZ=              0.3875   YZ=             -0.2179

  Exact polarizability:  64.553  -1.800  53.826   0.852  -0.701  51.158
 Approx polarizability:  79.876  -1.934  76.057   1.562  -1.170  76.005

                      1                      2                      3
                      A                      A                      A
 Frequencies --     44.8589               189.8464               232.8769
 Red. masses --      2.6599                 1.7910                 1.0557
 Frc consts  --      0.0032                 0.0380                 0.0337
 IR Inten    --      2.7339                 0.0153                 0.1168

                      4                      5                      6
                      A                      A                      A
 Frequencies --    317.0584               462.4175               565.5151
 Red. masses --      2.3750                 2.3010                 2.1977
 Frc consts  --      0.1407                 0.2899                 0.4141
 IR Inten    --      1.6035                 1.2077                 0.7060

                      7                      8                      9
                      A                      A                      A
 Frequencies --    663.0695               816.0646               867.9057
 Red. masses --      2.9872                 2.4762                 2.1217
 Frc consts  --      0.7738                 0.9716                 0.9416
 IR Inten    --      2.0309                 4.2810                12.2843

                     10                     11                     12
                      A                      A                      A
 Frequencies --    874.3782               909.7348               929.0050
 Red. masses --      1.5224                 1.8054                 2.3826
 Frc consts  --      0.6857                 0.8804                 1.2116
 IR Inten    --      2.5217                 4.1655                 7.0767

                     13                     14                     15
                      A                      A                      A
 Frequencies --    988.3711              1013.9880              1040.7141
 Red. masses --      1.2696                 1.6293                 3.1389
 Frc consts  --      0.7307                 0.9870                 2.0031
 IR Inten    --      2.5025                10.2698                24.3159

                     16                     17                     18
                      A                      A                      A
 Frequencies --   1118.3194              1154.4587              1176.5242
 Red. masses --      4.0770                 2.0166                 1.9444
 Frc consts  --      3.0041                 1.5835                 1.5858
 IR Inten    --    109.5972                14.0240                 2.1431

                     19                     20                     21
                      A                      A                      A
 Frequencies --   1193.2306              1219.6436              1255.0243
 Red. masses --      1.4044                 1.4341                 1.2023
 Frc consts  --      1.1781                 1.2569                 1.1157
 IR Inten    --      8.7644                 4.6492                 2.0014

                     22                     23                     24
                      A                      A                      A
 Frequencies --   1309.0013              1336.2450              1359.2420
 Red. masses --      1.3638                 1.2569                 1.2209
 Frc consts  --      1.3769                 1.3223                 1.3290
 IR Inten    --      0.2517                 0.8224                 4.2728

                     25                     26                     27
                      A                      A                      A
 Frequencies --   1393.2535              1396.9448              1411.3294
 Red. masses --      1.3275                 1.3419                 1.4358
 Frc consts  --      1.5183                 1.5428                 1.6850
 IR Inten    --      9.5497                 3.2541                16.1904

                     28                     29                     30
                      A                      A                      A
 Frequencies --   1483.0918              1487.0163              1497.9128
 Red. masses --      1.0717                 1.0720                 1.0629
 Frc consts  --      1.3889                 1.3967                 1.4051
 IR Inten    --      0.2326                 3.8532                 3.5841

                     31                     32                     33
                      A                      A                      A
 Frequencies --   1500.4361              1534.1030              2940.5574
 Red. masses --      1.0911                 1.0931                 1.0824
 Frc consts  --      1.4472                 1.5157                 5.5142
 IR Inten    --      2.4377                 0.8173                65.7774

                     34                     35                     36
                      A                      A                      A
 Frequencies --   3000.6467              3033.0776              3035.6112
 Red. masses --      1.0624                 1.0941                 1.0455
 Frc consts  --      5.6358                 5.9305                 5.6765
 IR Inten    --     74.2326                31.2542                 9.3924

                     37                     38                     39
                      A                      A                      A
 Frequencies --   3039.4699              3053.5095              3099.0678
 Red. masses --      1.0562                 1.0691                 1.0973
 Frc consts  --      5.7488                 5.8732                 6.2092
 IR Inten    --     22.5187                52.4601                16.5404

                     40                     41                     42
                      A                      A                      A
 Frequencies --   3107.2566              3110.5351              3115.9993
 Red. masses --      1.1038                 1.1018                 1.1018
 Frc consts  --      6.2790                 6.2812                 6.3031
 IR Inten    --     12.7525                54.0590                29.8814

 - Thermochemistry -
 -------------------
 Temperature   298.150 Kelvin.  Pressure   1.00000 Atm.
 Atom     1 has atomic number  6 and mass  12.00000

 Molecular mass:    86.07317 amu.
 Principal axes and moments of inertia in atomic units:
                           1         2         3
     Eigenvalues --   275.17783 569.43876 760.31687
           X            0.99997  -0.00702  -0.00301
           Y            0.00700   0.99996  -0.00531
           Z            0.00305   0.00529   0.99998
 This molecule is an asymmetric top.
 Rotational symmetry number  1.
 Rotational temperatures (Kelvin)      0.31476     0.15210     0.11392
 Rotational constants (GHZ):           6.55845     3.16933     2.37367
 Zero-point vibrational energy     378482.4 (Joules/Mol)
                                   90.45946 (Kcal/Mol)
 Warning -- explicit consideration of   6 degrees of freedom as
           vibrations may cause significant error
 Vibrational temperatures:     64.54   273.15   335.06   456.18   665.32
          (Kelvin)            813.65   954.01  1174.13  1248.72  1258.04
                             1308.91  1336.63  1422.05  1458.90  1497.36
                             1609.01  1661.01  1692.76  1716.79  1754.80
                             1805.70  1883.36  1922.56  1955.65  2004.58
                             2009.89  2030.59  2133.84  2139.48  2155.16
                             2158.79  2207.23  4230.81  4317.26  4363.92
                             4367.57  4373.12  4393.32  4458.87  4470.65
                             4475.37  4483.23

 Zero-point correction=                           0.144156 (Hartree/Particle)
 Thermal correction to Energy=                    0.150467
 Thermal correction to Enthalpy=                  0.151411
 Thermal correction to Gibbs Free Energy=         0.113827
 Sum of electronic and zero-point Energies=           -271.647476
 Sum of electronic and thermal Energies=              -271.641165
 Sum of electronic and thermal Enthalpies=            -271.640221
 Sum of electronic and thermal Free Energies=         -271.677805

                     E (Thermal)             CV                S
                      KCal/Mol        Cal/Mol-Kelvin    Cal/Mol-Kelvin
 Total                   94.419             22.694             79.102
 Electronic               0.000              0.000              0.000
 Translational            0.889              2.981             39.271
 Rotational               0.889              2.981             26.280
 Vibrational             92.642             16.732             13.551
 Vibration     1          0.595              1.979              5.032
 Vibration     2          0.633              1.854              2.229
 Vibration     3          0.654              1.791              1.857
 Vibration     4          0.704              1.641              1.325
 Vibration     5          0.820              1.333              0.759
 Vibration     6          0.921              1.106              0.513

                           ! Non-Optimized Parameters !
 Normal termination of Gaussian 16 at Thu Aug  4 01:52:16 2022.
