 Gaussian 16, Revision A.03,
 Gaussian 16:  ES64L-G16RevA.03 25-Dec-2016

 -----------------------------
 # opt freq b3lyp/6-31g(2df,p)
 -----------------------------

 -------------------
 Title Card Required
 -------------------
 Symbolic Z-matrix:
 Charge =  0 Multiplicity = 1

 SCF Done:  E(RB3LYP) =  -398.357686207     A.U. after   13 cycles
 SCF Done:  E(RB3LYP) =  -398.363051510     A.U. after   11 cycles
 SCF Done:  E(RB3LYP) =  -398.363613692     A.U. after   10 cycles
 SCF Done:  E(RB3LYP) =  -398.363664170     A.U. after    9 cycles
 SCF Done:  E(RB3LYP) =  -398.363679593     A.U. after    8 cycles
 SCF Done:  E(RB3LYP) =  -398.363686783     A.U. after    8 cycles
 SCF Done:  E(RB3LYP) =  -398.363688623     A.U. after    8 cycles
 SCF Done:  E(RB3LYP) =  -398.363688856     A.U. after    6 cycles
 SCF Done:  E(RB3LYP) =  -398.363688923     A.U. after    6 cycles
 Optimization completed.
    -- Stationary point found.
 Normal termination of Gaussian 16 at Sun Jul  3 17:21:42 2022.

 ----------------------------------------------------------------------
 #N Geom=AllCheck Guess=TCheck SCRF=Check GenChk RB3LYP/6-31G(2df,p) Fr
 eq
 ----------------------------------------------------------------------

 Structure from the checkpoint file:  "Cc1cccpNpnc1N.chk"
 -------------------
 Title Card Required
 -------------------
 Charge =  0 Multiplicity = 1

                         Standard orientation:
 ---------------------------------------------------------------------
 Center     Atomic      Atomic             Coordinates (Angstroms)
 Number     Number       Type             X           Y           Z
 ---------------------------------------------------------------------
      1          6           0        2.623380   -0.770469   -0.023269
      2          6           0        1.136177   -0.540468    0.001437
      3          6           0        0.213630   -1.580880    0.011786
      4          6           0       -1.153228   -1.337687    0.015871
      5          6           0       -1.573384   -0.001726    0.008452
      6          7           0       -2.917694    0.336604    0.065839
      7          7           0       -0.715035    1.022960    0.000552
      8          6           0        0.595121    0.761980   -0.002082
      9          7           0        1.425121    1.871203   -0.067727
     10          1           0        2.851701   -1.838092   -0.082820
     11          1           0        3.121559   -0.385872    0.878662
     12          1           0        3.097654   -0.278856   -0.882068
     13          1           0        0.575114   -2.605925    0.013143
     14          1           0       -1.872790   -2.147921    0.033121
     15          1           0       -3.558863   -0.336001   -0.325493
     16          1           0       -3.100437    1.286201   -0.224052
     17          1           0        0.952636    2.730329    0.173155
     18          1           0        2.336505    1.776273    0.352527
 ---------------------------------------------------------------------

 SCF Done:  E(RB3LYP) =  -398.363688923     A.U. after    1 cycles

 The electronic state is 1-A.
 Alpha  occ. eigenvalues --  -14.32726 -14.32498 -14.29548 -10.23714 -10.23711
 Alpha  occ. eigenvalues --  -10.18229 -10.17982 -10.17152 -10.16259  -0.95642
 Alpha  occ. eigenvalues --   -0.90844  -0.84975  -0.79381  -0.73583  -0.67324
 Alpha  occ. eigenvalues --   -0.61321  -0.59685  -0.52386  -0.52113  -0.48338
 Alpha  occ. eigenvalues --   -0.45281  -0.44183  -0.42901  -0.41918  -0.38882
 Alpha  occ. eigenvalues --   -0.38709  -0.37526  -0.35452  -0.33145  -0.28008
 Alpha  occ. eigenvalues --   -0.24975  -0.23555  -0.18511
 Alpha virt. eigenvalues --    0.00869   0.03203   0.08428   0.09706   0.11841
 Alpha virt. eigenvalues --    0.13319   0.14940   0.15751   0.16705   0.17006
 Alpha virt. eigenvalues --    0.19440   0.21048   0.23301   0.27500   0.28231

 Mulliken charges:
               1
     1  C   -0.519491
     2  C    0.223033
     3  C   -0.134448
     4  C   -0.213614
     5  C    0.366079
     6  N   -0.570276
     7  N   -0.399887
     8  C    0.294902
     9  N   -0.567089
    10  H    0.121916
    11  H    0.116049
    12  H    0.130518
    13  H    0.088351
    14  H    0.076397
    15  H    0.245321
    16  H    0.247637
    17  H    0.247970
    18  H    0.246631
 Sum of Mulliken charges =   0.00000

 Dipole moment (field-independent basis, Debye):
    X=              0.2381    Y=             -0.1465    Z=             -0.0710  Tot=              0.2884
 Quadrupole moment (field-independent basis, Debye-Ang):
   XX=            -42.6206   YY=            -47.8946   ZZ=            -55.9761
   XY=              2.2912   XZ=              5.2735   YZ=              1.7675

  Exact polarizability: 121.719   3.102  94.345   1.030   0.123  42.534
 Approx polarizability: 185.642   8.590 157.272  -0.401  -0.687  67.953

                      1                      2                      3
                      A                      A                      A
 Frequencies --    125.0696               173.0939               233.2758
 Red. masses --      3.3226                 1.0465                 4.2371
 Frc consts  --      0.0306                 0.0185                 0.1359
 IR Inten    --      0.8952                 1.5985                14.9786

                      4                      5                      6
                      A                      A                      A
 Frequencies --    291.2222               311.2044               322.0455
 Red. masses --      2.7138                 2.7665                 2.3963
 Frc consts  --      0.1356                 0.1579                 0.1464
 IR Inten    --      0.1484                11.3014                 4.8426

                      7                      8                      9
                      A                      A                      A
 Frequencies --    377.1406               400.7886               456.7484
 Red. masses --      1.1724                 1.1724                 3.0807
 Frc consts  --      0.0982                 0.1110                 0.3787
 IR Inten    --     24.7985                36.8788                38.1742

                     10                     11                     12
                      A                      A                      A
 Frequencies --    480.8711               508.1492               564.3946
 Red. masses --      4.9547                 2.9211                 1.6358
 Frc consts  --      0.6750                 0.4444                 0.3070
 IR Inten    --     12.1997                 1.2918               116.4638

                     13                     14                     15
                      A                      A                      A
 Frequencies --    583.3297               604.8373               711.1517
 Red. masses --      1.6735                 2.2313                 3.4864
 Frc consts  --      0.3355                 0.4809                 1.0389
 IR Inten    --    356.4190                91.4043                15.7970

                     16                     17                     18
                      A                      A                      A
 Frequencies --    759.0417               765.3037               791.8600
 Red. masses --      4.1869                 3.8098                 3.0247
 Frc consts  --      1.4213                 1.3147                 1.1175
 IR Inten    --      0.2493                 2.6520                 8.7701

                     19                     20                     21
                      A                      A                      A
 Frequencies --    809.2559               954.1196               971.2408
 Red. masses --      2.3727                 1.2913                 2.2095
 Frc consts  --      0.9155                 0.6926                 1.2280
 IR Inten    --     54.2409                 1.6777                 1.1349

                     22                     23                     24
                      A                      A                      A
 Frequencies --   1009.1216              1063.8868              1070.8867
 Red. masses --      1.8581                 1.4676                 1.4387
 Frc consts  --      1.1148                 0.9787                 0.9721
 IR Inten    --      8.9407                 1.1249                16.0002

                     25                     26                     27
                      A                      A                      A
 Frequencies --   1141.0848              1184.6933              1224.9003
 Red. masses --      1.3195                 1.7061                 3.6800
 Frc consts  --      1.0123                 1.4108                 3.2531
 IR Inten    --     29.3491                 1.4235                 0.0575

                     28                     29                     30
                      A                      A                      A
 Frequencies --   1301.1853              1350.0394              1374.9789
 Red. masses --      1.6491                 4.4199                 3.8736
 Frc consts  --      1.6451                 4.7463                 4.3147
 IR Inten    --     12.6657                18.2004                49.0947

                     31                     32                     33
                      A                      A                      A
 Frequencies --   1413.5310              1465.0360              1482.9242
 Red. masses --      1.3137                 2.7111                 1.0436
 Frc consts  --      1.5465                 3.4284                 1.3521
 IR Inten    --      2.5003               101.3536                 5.1976

                     34                     35                     36
                      A                      A                      A
 Frequencies --   1506.4187              1517.9350              1619.0836
 Red. masses --      1.2256                 3.1676                 2.8517
 Frc consts  --      1.6386                 4.3002                 4.4045
 IR Inten    --     47.3046               139.3857                43.5453

                     37                     38                     39
                      A                      A                      A
 Frequencies --   1626.5764              1645.3376              1656.4317
 Red. masses --      1.3461                 1.5973                 4.1946
 Frc consts  --      2.0983                 2.5477                 6.7810
 IR Inten    --     51.4075               172.1829               278.3416

                     40                     41                     42
                      A                      A                      A
 Frequencies --   2997.4239              3047.2197              3105.4709
 Red. masses --      1.0459                 1.0922                 1.0969
 Frc consts  --      5.5365                 5.9750                 6.2329
 IR Inten    --     52.1892                25.5335                14.9199

                     43                     44                     45
                      A                      A                      A
 Frequencies --   3160.0780              3191.8125              3571.7462
 Red. masses --      1.0878                 1.0934                 1.0464
 Frc consts  --      6.3999                 6.5628                 7.8648
 IR Inten    --     17.5129                14.3081                23.4658

                     46                     47                     48
                      A                      A                      A
 Frequencies --   3572.2991              3684.2102              3684.8450
 Red. masses --      1.0464                 1.0989                 1.0990
 Frc consts  --      7.8679                 8.7883                 8.7923
 IR Inten    --     23.7854                19.2920                19.7119

 - Thermochemistry -
 -------------------
 Temperature   298.150 Kelvin.  Pressure   1.00000 Atm.
 Atom     1 has atomic number  6 and mass  12.00000

 Molecular mass:   123.07965 amu.
 Principal axes and moments of inertia in atomic units:
                           1         2         3
     Eigenvalues --   585.307981305.703371876.74295
           X            0.99997  -0.00447   0.00701
           Y            0.00443   0.99998   0.00539
           Z           -0.00703  -0.00536   0.99996
 This molecule is an asymmetric top.
 Rotational symmetry number  1.
 Warning -- assumption of classical behavior for rotation
           may cause significant error
 Rotational temperatures (Kelvin)      0.14798     0.06634     0.04615
 Rotational constants (GHZ):           3.08340     1.38220     0.96163
 Zero-point vibrational energy     393950.0 (Joules/Mol)
                                   94.15632 (Kcal/Mol)
 Warning -- explicit consideration of  14 degrees of freedom as
           vibrations may cause significant error
 Vibrational temperatures:    179.95   249.04   335.63   419.00   447.75
          (Kelvin)            463.35   542.62   576.65   657.16   691.87
                              731.11   812.04   839.28   870.23  1023.19
                             1092.09  1101.10  1139.31  1164.34  1372.77
                             1397.40  1451.90  1530.70  1540.77  1641.77
                             1704.51  1762.36  1872.12  1942.41  1978.29
                             2033.76  2107.86  2133.60  2167.40  2183.97
                             2329.50  2340.28  2367.27  2383.24  4312.62
                             4384.27  4468.08  4546.65  4592.31  5138.95
                             5139.74  5300.76  5301.67

 Zero-point correction=                           0.150048 (Hartree/Particle)
 Thermal correction to Energy=                    0.158520
 Thermal correction to Enthalpy=                  0.159464
 Thermal correction to Gibbs Free Energy=         0.117658
 Sum of electronic and zero-point Energies=           -398.213641
 Sum of electronic and thermal Energies=              -398.205169
 Sum of electronic and thermal Enthalpies=            -398.204225
 Sum of electronic and thermal Free Energies=         -398.246031

                     E (Thermal)             CV                S
                      KCal/Mol        Cal/Mol-Kelvin    Cal/Mol-Kelvin
 Total                   99.473             33.580             87.988
 Electronic               0.000              0.000              0.000
 Translational            0.889              2.981             40.337
 Rotational               0.889              2.981             28.752
 Vibrational             97.695             27.619             18.899
 Vibration     1          0.610              1.928              3.020
 Vibration     2          0.627              1.876              2.402
 Vibration     3          0.654              1.790              1.854
 Vibration     4          0.687              1.690              1.467
 Vibration     5          0.700              1.652              1.356
 Vibration     6          0.707              1.631              1.300
 Vibration     7          0.748              1.519              1.051
 Vibration     8          0.767              1.468              0.960
 Vibration     9          0.815              1.346              0.776
 Vibration    10          0.837              1.292              0.708
 Vibration    11          0.863              1.232              0.638
 Vibration    12          0.920              1.108              0.515
 Vibration    13          0.940              1.067              0.479
 Vibration    14          0.963              1.022              0.441

                           ! Non-Optimized Parameters !
 Normal termination of Gaussian 16 at Sun Jul  3 17:47:35 2022.
