 Gaussian 16, Revision A.03,
 Gaussian 16:  ES64L-G16RevA.03 25-Dec-2016

 -----------------------------
 # opt freq b3lyp/6-31g(2df,p)
 -----------------------------

 -------------------
 Title Card Required
 -------------------
 Symbolic Z-matrix:
 Charge =  0 Multiplicity = 1

 SCF Done:  E(RB3LYP) =  -421.598827951     A.U. after   21 cycles
 SCF Done:  E(RB3LYP) =  -421.659079231     A.U. after   16 cycles
 SCF Done:  E(RB3LYP) =  -421.726874723     A.U. after   17 cycles
 SCF Done:  E(RB3LYP) =  -421.768923012     A.U. after   17 cycles
 SCF Done:  E(RB3LYP) =  -421.819483436     A.U. after   16 cycles
 SCF Done:  E(RB3LYP) =  -421.866730389     A.U. after   15 cycles
 SCF Done:  E(RB3LYP) =  -421.904228491     A.U. after   15 cycles
 SCF Done:  E(RB3LYP) =  -421.957947010     A.U. after   15 cycles
 SCF Done:  E(RB3LYP) =  -421.977061774     A.U. after   14 cycles
 SCF Done:  E(RB3LYP) =  -421.989668871     A.U. after   14 cycles
 SCF Done:  E(RB3LYP) =  -421.998029144     A.U. after   13 cycles
 SCF Done:  E(RB3LYP) =  -421.999109718     A.U. after   12 cycles
 SCF Done:  E(RB3LYP) =  -421.999388095     A.U. after   12 cycles
 SCF Done:  E(RB3LYP) =  -421.999545534     A.U. after   12 cycles
 SCF Done:  E(RB3LYP) =  -421.999756267     A.U. after   12 cycles
 SCF Done:  E(RB3LYP) =  -421.999829829     A.U. after   11 cycles
 SCF Done:  E(RB3LYP) =  -421.999875879     A.U. after   11 cycles
 SCF Done:  E(RB3LYP) =  -421.999881667     A.U. after    9 cycles
 SCF Done:  E(RB3LYP) =  -421.999882158     A.U. after    7 cycles
 Optimization completed.
    -- Stationary point found.
 Normal termination of Gaussian 16 at Sun Jul  3 11:10:23 2022.

 ----------------------------------------------------------------------
 #N Geom=AllCheck Guess=TCheck SCRF=Check GenChk RB3LYP/6-31G(2df,p) Fr
 eq
 ----------------------------------------------------------------------

 Structure from the checkpoint file:  "CC1C2dCC1CpdOpC2O.chk"
 -------------------
 Title Card Required
 -------------------
 Charge =  0 Multiplicity = 1

                         Standard orientation:
 ---------------------------------------------------------------------
 Center     Atomic      Atomic             Coordinates (Angstroms)
 Number     Number       Type             X           Y           Z
 ---------------------------------------------------------------------
      1          6           0       -2.943946    0.440207    0.061662
      2          6           0       -1.976648   -0.691346   -0.080653
      3          6           0       -0.645409   -0.618360    0.049380
      4          6           0        0.277716   -1.736891   -0.098181
      5          6           0        1.576617   -1.362583   -0.041884
      6          6           0        1.641347    0.097579    0.104165
      7          8           0        2.582964    0.852253   -0.018238
      8          6           0        0.206426    0.590982    0.383118
      9          8           0       -0.088434    1.761887   -0.340361
     10          1           0       -3.655776    0.237804    0.872584
     11          1           0       -3.542401    0.550545   -0.851321
     12          1           0       -2.439318    1.387332    0.254378
     13          1           0       -2.404430   -1.663653   -0.325153
     14          1           0       -0.072892   -2.753380   -0.245503
     15          1           0        2.445384   -1.996934   -0.154381
     16          1           0        0.141742    0.775735    1.472107
     17          1           0        0.754825    2.231903   -0.419555
 ---------------------------------------------------------------------

 SCF Done:  E(RB3LYP) =  -421.999882158     A.U. after    1 cycles

 The electronic state is 1-A.
 Alpha  occ. eigenvalues --  -19.14108 -19.13229 -10.26552 -10.24012 -10.22168
 Alpha  occ. eigenvalues --  -10.20550 -10.20200 -10.20007 -10.18612  -1.04773
 Alpha  occ. eigenvalues --   -1.01731  -0.86447  -0.78656  -0.71102  -0.69301
 Alpha  occ. eigenvalues --   -0.61222  -0.56292  -0.54275  -0.49632  -0.48480
 Alpha  occ. eigenvalues --   -0.46421  -0.44306  -0.41800  -0.41672  -0.41224
 Alpha  occ. eigenvalues --   -0.38999  -0.37718  -0.37155  -0.33818  -0.32904
 Alpha  occ. eigenvalues --   -0.28079  -0.24739  -0.23813
 Alpha virt. eigenvalues --   -0.06641   0.00457   0.08563   0.10150   0.10453
 Alpha virt. eigenvalues --    0.12957   0.13377   0.14949   0.16164   0.16786
 Alpha virt. eigenvalues --    0.17994   0.19355   0.23410   0.24849   0.25652

 Mulliken charges:
               1
     1  C   -0.448263
     2  C   -0.146019
     3  C    0.288871
     4  C   -0.111859
     5  C   -0.215700
     6  C    0.347788
     7  O   -0.351231
     8  C   -0.080526
     9  O   -0.432789
    10  H    0.129124
    11  H    0.135011
    12  H    0.157758
    13  H    0.088660
    14  H    0.120874
    15  H    0.123257
    16  H    0.100807
    17  H    0.294239
 Sum of Mulliken charges =  -0.00000

 Dipole moment (field-independent basis, Debye):
    X=             -2.1262    Y=             -2.3122    Z=              0.5263  Tot=              3.1850
 Quadrupole moment (field-independent basis, Debye-Ang):
   XX=            -54.7697   YY=            -48.5189   ZZ=            -52.3131
   XY=             -1.6173   XZ=             -0.0268   YZ=              1.1571

  Exact polarizability: 127.384   1.908  80.019   0.792   2.154  46.402
 Approx polarizability: 218.862  15.870 121.171   2.664   1.722  73.891

                      1                      2                      3
                      A                      A                      A
 Frequencies --     65.8565               152.4491               179.6158
 Red. masses --      6.2910                 1.1870                 2.9580
 Frc consts  --      0.0161                 0.0163                 0.0562
 IR Inten    --      1.2892                 0.7706                 3.5817

                      4                      5                      6
                      A                      A                      A
 Frequencies --    180.8785               257.6546               290.0062
 Red. masses --      2.9177                 4.3322                 3.7026
 Frc consts  --      0.0562                 0.1694                 0.1835
 IR Inten    --      2.4789                16.9164                 3.0117

                      7                      8                      9
                      A                      A                      A
 Frequencies --    352.8523               401.2854               428.3800
 Red. masses --      3.1018                 1.4480                 2.3372
 Frc consts  --      0.2275                 0.1374                 0.2527
 IR Inten    --      3.9813                57.5289                29.7697

                     10                     11                     12
                      A                      A                      A
 Frequencies --    519.5304               571.8399               637.5155
 Red. masses --      4.3147                 4.2260                 3.9348
 Frc consts  --      0.6861                 0.8142                 0.9422
 IR Inten    --      3.0309                 4.2711                 5.1798

                     13                     14                     15
                      A                      A                      A
 Frequencies --    700.4965               731.6384               791.9154
 Red. masses --      3.6831                 5.8418                 1.5048
 Frc consts  --      1.0648                 1.8424                 0.5560
 IR Inten    --      3.2802                 4.1080                20.8545

                     16                     17                     18
                      A                      A                      A
 Frequencies --    872.6914               885.5851               901.3755
 Red. masses --      2.2026                 1.3772                 3.5558
 Frc consts  --      0.9883                 0.6364                 1.7022
 IR Inten    --     23.6637                19.6621                 9.1507

                     19                     20                     21
                      A                      A                      A
 Frequencies --    991.3236              1002.5013              1064.1189
 Red. masses --      1.7773                 1.3863                 1.5616
 Frc consts  --      1.0291                 0.8209                 1.0418
 IR Inten    --     16.2136                 1.1064                 0.8777

                     22                     23                     24
                      A                      A                      A
 Frequencies --   1085.6402              1106.3090              1131.0398
 Red. masses --      1.8332                 1.9840                 2.8776
 Frc consts  --      1.2730                 1.4307                 2.1689
 IR Inten    --     16.5864                16.7752                89.6966

                     25                     26                     27
                      A                      A                      A
 Frequencies --   1181.9425              1202.9718              1247.6567
 Red. masses --      2.5262                 1.3208                 1.8977
 Frc consts  --      2.0793                 1.1261                 1.7404
 IR Inten    --     20.1808                27.0341                 9.8357

                     28                     29                     30
                      A                      A                      A
 Frequencies --   1334.5043              1361.9220              1374.8863
 Red. masses --      1.3194                 1.4653                 2.1162
 Frc consts  --      1.3844                 1.6013                 2.3568
 IR Inten    --     10.5210                45.5721                 7.4443

                     31                     32                     33
                      A                      A                      A
 Frequencies --   1410.9016              1419.4009              1478.1132
 Red. masses --      1.2298                 1.6491                 1.0555
 Frc consts  --      1.4424                 1.9575                 1.3587
 IR Inten    --      6.6838                16.5158                 5.6567

                     34                     35                     36
                      A                      A                      A
 Frequencies --   1490.1814              1587.4304              1731.3578
 Red. masses --      1.0623                 5.9225                 7.5353
 Frc consts  --      1.3898                 8.7932                13.3084
 IR Inten    --      6.9383                50.1601                34.4769

                     37                     38                     39
                      A                      A                      A
 Frequencies --   1802.3069              2925.8231              3020.1994
 Red. masses --     12.3030                 1.0789                 1.0412
 Frc consts  --     23.5461                 5.4417                 5.5956
 IR Inten    --    342.6765                35.0600                23.2458

                     40                     41                     42
                      A                      A                      A
 Frequencies --   3063.4662              3124.1683              3152.2158
 Red. masses --      1.0971                 1.0878                 1.0967
 Frc consts  --      6.0663                 6.2558                 6.4203
 IR Inten    --     14.2510                13.2657                 8.5384

                     43                     44                     45
                      A                      A                      A
 Frequencies --   3188.2117              3233.0808              3726.6468
 Red. masses --      1.0907                 1.0997                 1.0654
 Frc consts  --      6.5322                 6.7726                 8.7174
 IR Inten    --      7.1976                 2.7285                32.1486

 - Thermochemistry -
 -------------------
 Temperature   298.150 Kelvin.  Pressure   1.00000 Atm.
 Atom     1 has atomic number  6 and mass  12.00000

 Molecular mass:   124.05243 amu.
 Principal axes and moments of inertia in atomic units:
                           1         2         3
     Eigenvalues --   596.750561351.727001890.41191
           X            0.99972  -0.02342  -0.00160
           Y            0.02344   0.99965   0.01197
           Z            0.00132  -0.01201   0.99993
 This molecule is an asymmetric top.
 Rotational symmetry number  1.
 Warning -- assumption of classical behavior for rotation
           may cause significant error
 Rotational temperatures (Kelvin)      0.14514     0.06408     0.04582
 Rotational constants (GHZ):           3.02428     1.33514     0.95468
 Zero-point vibrational energy     355051.0 (Joules/Mol)
                                   84.85922 (Kcal/Mol)
 Warning -- explicit consideration of  11 degrees of freedom as
           vibrations may cause significant error
 Vibrational temperatures:     94.75   219.34   258.43   260.24   370.71
          (Kelvin)            417.25   507.68   577.36   616.34   747.49
                              822.75   917.24  1007.86  1052.66  1139.39
                             1255.61  1274.16  1296.88  1426.29  1442.38
                             1531.03  1561.99  1591.73  1627.31  1700.55
                             1730.81  1795.10  1920.05  1959.50  1978.15
                             2029.97  2042.20  2126.68  2144.04  2283.96
                             2491.04  2593.12  4209.61  4345.39  4407.64
                             4494.98  4535.34  4587.13  4651.68  5361.81

 Zero-point correction=                           0.135232 (Hartree/Particle)
 Thermal correction to Energy=                    0.143821
 Thermal correction to Enthalpy=                  0.144765
 Thermal correction to Gibbs Free Energy=         0.101860
 Sum of electronic and zero-point Energies=           -421.864650
 Sum of electronic and thermal Energies=              -421.856061
 Sum of electronic and thermal Enthalpies=            -421.855117
 Sum of electronic and thermal Free Energies=         -421.898023

                     E (Thermal)             CV                S
                      KCal/Mol        Cal/Mol-Kelvin    Cal/Mol-Kelvin
 Total                   90.249             31.855             90.303
 Electronic               0.000              0.000              0.000
 Translational            0.889              2.981             40.360
 Rotational               0.889              2.981             28.813
 Vibrational             88.472             25.894             21.129
 Vibration     1          0.597              1.971              4.274
 Vibration     2          0.619              1.900              2.641
 Vibration     3          0.629              1.867              2.332
 Vibration     4          0.630              1.866              2.319
 Vibration     5          0.667              1.750              1.678
 Vibration     6          0.686              1.692              1.474
 Vibration     7          0.729              1.569              1.153
 Vibration     8          0.767              1.467              0.958
 Vibration     9          0.790              1.408              0.864
 Vibration    10          0.875              1.207              0.611
 Vibration    11          0.928              1.092              0.501

                           ! Non-Optimized Parameters !
 Normal termination of Gaussian 16 at Sun Jul  3 11:35:41 2022.
