 Gaussian 16, Revision A.03,
 Gaussian 16:  ES64L-G16RevA.03 25-Dec-2016

 -----------------------------
 # opt freq b3lyp/6-31g(2df,p)
 -----------------------------

 -------------------
 Title Card Required
 -------------------
 Symbolic Z-matrix:
 Charge =  0 Multiplicity = 1

 SCF Done:  E(RB3LYP) =  -380.933489187     A.U. after   15 cycles
 SCF Done:  E(RB3LYP) =  -380.965810672     A.U. after   15 cycles
 SCF Done:  E(RB3LYP) =  -380.967847319     A.U. after   16 cycles
 SCF Done:  E(RB3LYP) =  -380.964019425     A.U. after   17 cycles
 SCF Done:  E(RB3LYP) =  -380.969707518     A.U. after   15 cycles
 SCF Done:  E(RB3LYP) =  -380.972489288     A.U. after   16 cycles
 SCF Done:  E(RB3LYP) =  -380.971783249     A.U. after   16 cycles
 SCF Done:  E(RB3LYP) =  -380.973958656     A.U. after   14 cycles
 SCF Done:  E(RB3LYP) =  -380.975062209     A.U. after   16 cycles
 SCF Done:  E(RB3LYP) =  -380.975494968     A.U. after   15 cycles
 SCF Done:  E(RB3LYP) =  -380.975677237     A.U. after   11 cycles
 SCF Done:  E(RB3LYP) =  -380.975757485     A.U. after   12 cycles
 SCF Done:  E(RB3LYP) =  -380.975783171     A.U. after   11 cycles
 SCF Done:  E(RB3LYP) =  -380.975792237     A.U. after    9 cycles
 SCF Done:  E(RB3LYP) =  -380.975796008     A.U. after    9 cycles
 SCF Done:  E(RB3LYP) =  -380.975797242     A.U. after    8 cycles
 SCF Done:  E(RB3LYP) =  -380.975797894     A.U. after    8 cycles
 SCF Done:  E(RB3LYP) =  -380.975797981     A.U. after    7 cycles
 Optimization completed.
    -- Stationary point found.
 Normal termination of Gaussian 16 at Thu Aug  4 08:54:02 2022.

 ----------------------------------------------------------------------
 #N Geom=AllCheck Guess=TCheck SCRF=Check GenChk RB3LYP/6-31G(2df,p) Fr
 eq
 ----------------------------------------------------------------------

 Structure from the checkpoint file:  "CC1CC1NCtCCtN.chk"
 -------------------
 Title Card Required
 -------------------
 Charge =  0 Multiplicity = 1

                         Standard orientation:
 ---------------------------------------------------------------------
 Center     Atomic      Atomic             Coordinates (Angstroms)
 Number     Number       Type             X           Y           Z
 ---------------------------------------------------------------------
      1          6           0        2.430054    1.812331    0.160834
      2          6           0        1.896239    0.525602   -0.425291
      3          6           0        2.662114   -0.769407   -0.296747
      4          6           0        1.386568   -0.565337    0.478295
      5          7           0        0.226843   -1.319305    0.060094
      6          6           0       -0.982913   -0.781206    0.050511
      7          6           0       -2.082042   -0.268088    0.010357
      8          6           0       -3.314161    0.304155   -0.034735
      9          7           0       -4.369047    0.795102   -0.072410
     10          1           0        3.137729    2.290506   -0.524237
     11          1           0        2.955570    1.630315    1.104107
     12          1           0        1.620809    2.522508    0.359576
     13          1           0        1.337594    0.635341   -1.350057
     14          1           0        3.591230   -0.770207    0.263115
     15          1           0        2.631976   -1.461717   -1.130575
     16          1           0        1.465377   -0.401028    1.551465
     17          1           0        0.279993   -2.324596    0.153471
 ---------------------------------------------------------------------

 SCF Done:  E(RB3LYP) =  -380.975797981     A.U. after    1 cycles

 The electronic state is 1-A.
 Alpha  occ. eigenvalues --  -14.39468 -14.32141 -10.24799 -10.24746 -10.22206
 Alpha  occ. eigenvalues --  -10.21449 -10.20850 -10.20575 -10.19365  -0.97934
 Alpha  occ. eigenvalues --   -0.89262  -0.87461  -0.77553  -0.72854  -0.65605
 Alpha  occ. eigenvalues --   -0.62898  -0.60009  -0.57137  -0.54258  -0.48919
 Alpha  occ. eigenvalues --   -0.43933  -0.42228  -0.40807  -0.39285  -0.37326
 Alpha  occ. eigenvalues --   -0.36914  -0.35363  -0.34894  -0.31611  -0.30329
 Alpha  occ. eigenvalues --   -0.27857  -0.23299
 Alpha virt. eigenvalues --   -0.03130  -0.00161   0.06508   0.09020   0.09039
 Alpha virt. eigenvalues --    0.11529   0.12346   0.14176   0.14586   0.15761
 Alpha virt. eigenvalues --    0.16808   0.18189   0.19232   0.19997   0.21898

 Mulliken charges:
               1
     1  C   -0.408036
     2  C    0.021372
     3  C   -0.305662
     4  C   -0.029839
     5  N   -0.446254
     6  C   -0.160485
     7  C    0.415635
     8  C    0.158280
     9  N   -0.355766
    10  H    0.127240
    11  H    0.117713
    12  H    0.132799
    13  H    0.109359
    14  H    0.122787
    15  H    0.123053
    16  H    0.107721
    17  H    0.270082
 Sum of Mulliken charges =  -0.00000

 Dipole moment (field-independent basis, Debye):
    X=              6.5157    Y=             -2.3653    Z=              0.4672  Tot=              6.9474
 Quadrupole moment (field-independent basis, Debye-Ang):
   XX=            -73.9751   YY=            -47.9182   ZZ=            -51.9022
   XY=              4.9557   XZ=              0.2468   YZ=             -0.3360

  Exact polarizability: 138.445 -19.913  74.038   1.653  -0.177  55.236
 Approx polarizability: 222.356 -57.555 116.666   4.093  -2.426  83.204

                      1                      2                      3
                      A                      A                      A
 Frequencies --     39.1318                62.8925               136.2762
 Red. masses --      3.8931                 3.9350                 7.2577
 Frc consts  --      0.0035                 0.0092                 0.0794
 IR Inten    --      0.9678                 1.6109                 0.2734

                      4                      5                      6
                      A                      A                      A
 Frequencies --    166.7659               207.5037               264.5383
 Red. masses --      5.4502                 1.0873                 3.3010
 Frc consts  --      0.0893                 0.0276                 0.1361
 IR Inten    --      2.2230                 0.0456                 0.9285

                      7                      8                      9
                      A                      A                      A
 Frequencies --    296.4001               362.2679               390.3046
 Red. masses --      2.2935                 1.5038                 4.4823
 Frc consts  --      0.1187                 0.1163                 0.4023
 IR Inten    --     11.1246                71.5676                 4.3382

                     10                     11                     12
                      A                      A                      A
 Frequencies --    425.4386               490.1660               541.4065
 Red. masses --      2.0102                10.5879                11.8011
 Frc consts  --      0.2144                 1.4988                 2.0381
 IR Inten    --     18.0029                 1.4244                12.0341

                     13                     14                     15
                      A                      A                      A
 Frequencies --    556.2541               596.4497               742.5209
 Red. masses --      5.6062                 6.7724                 4.1200
 Frc consts  --      1.0220                 1.4195                 1.3383
 IR Inten    --     18.2337                 5.1689                 1.7662

                     16                     17                     18
                      A                      A                      A
 Frequencies --    806.9658               821.6803               896.2799
 Red. masses --      1.9907                 2.0866                 1.8281
 Frc consts  --      0.7638                 0.8300                 0.8653
 IR Inten    --      5.9250                 4.1226                 2.0863

                     19                     20                     21
                      A                      A                      A
 Frequencies --    915.3966              1034.7421              1056.1307
 Red. masses --      1.4237                 2.1198                 1.3685
 Frc consts  --      0.7029                 1.3372                 0.8994
 IR Inten    --      4.7725                 0.7204                 9.6862

                     22                     23                     24
                      A                      A                      A
 Frequencies --   1085.5341              1109.8189              1131.7123
 Red. masses --      2.1018                 1.2429                 1.5742
 Frc consts  --      1.4593                 0.9020                 1.1879
 IR Inten    --      0.9881                 6.6937                 4.0080

                     25                     26                     27
                      A                      A                      A
 Frequencies --   1170.4896              1197.4707              1239.3284
 Red. masses --      1.9628                 1.7415                 1.7411
 Frc consts  --      1.5844                 1.4713                 1.5756
 IR Inten    --      4.0132                 0.7640                 1.8512

                     28                     29                     30
                      A                      A                      A
 Frequencies --   1335.5065              1347.3708              1414.9342
 Red. masses --      1.5133                 1.8445                 1.2416
 Frc consts  --      1.5903                 1.9729                 1.4646
 IR Inten    --    103.3779                10.6291                17.5167

                     31                     32                     33
                      A                      A                      A
 Frequencies --   1429.4607              1462.1021              1488.8923
 Red. masses --      1.5114                 1.8580                 1.3126
 Frc consts  --      1.8196                 2.3402                 1.7144
 IR Inten    --     13.2549                67.8888                 7.4718

                     34                     35                     36
                      A                      A                      A
 Frequencies --   1492.1778              1504.8413              2268.0605
 Red. masses --      1.0487                 1.1697                12.3599
 Frc consts  --      1.3758                 1.5606                37.4606
 IR Inten    --      2.5102                 5.0437                36.0121

                     37                     38                     39
                      A                      A                      A
 Frequencies --   2380.5187              3032.6793              3099.3241
 Red. masses --     12.0581                 1.0352                 1.1005
 Frc consts  --     40.2597                 5.6098                 6.2282
 IR Inten    --    545.8972                23.5235                17.2702

                     40                     41                     42
                      A                      A                      A
 Frequencies --   3101.5706              3115.4650              3136.3914
 Red. masses --      1.1016                 1.0870                 1.0556
 Frc consts  --      6.2436                 6.2160                 6.1179
 IR Inten    --     16.2331                26.9360                10.7053

                     43                     44                     45
                      A                      A                      A
 Frequencies --   3158.8092              3225.1015              3573.1231
 Red. masses --      1.0887                 1.1168                 1.0743
 Frc consts  --      6.4005                 6.8439                 8.0813
 IR Inten    --      9.2688                 7.5559                42.3464

 - Thermochemistry -
 -------------------
 Temperature   298.150 Kelvin.  Pressure   1.00000 Atm.
 Atom     1 has atomic number  6 and mass  12.00000

 Molecular mass:   120.06875 amu.
 Principal axes and moments of inertia in atomic units:
                           1         2         3
     Eigenvalues --   474.549012651.310393027.87500
           X            0.99988   0.01529   0.00117
           Y           -0.01530   0.99983   0.01070
           Z           -0.00100  -0.01071   0.99994
 This molecule is an asymmetric top.
 Rotational symmetry number  1.
 Warning -- assumption of classical behavior for rotation
           may cause significant error
 Rotational temperatures (Kelvin)      0.18252     0.03267     0.02861
 Rotational constants (GHZ):           3.80307     0.68070     0.59604
 Zero-point vibrational energy     354753.7 (Joules/Mol)
                                   84.78818 (Kcal/Mol)
 Warning -- explicit consideration of  14 degrees of freedom as
           vibrations may cause significant error
 Vibrational temperatures:     56.30    90.49   196.07   239.94   298.55
          (Kelvin)            380.61   426.45   521.22   561.56   612.11
                              705.24   778.96   800.33   858.16  1068.32
                             1161.04  1182.21  1289.55  1317.05  1488.76
                             1519.54  1561.84  1596.78  1628.28  1684.07
                             1722.89  1783.12  1921.50  1938.57  2035.77
                             2056.68  2103.64  2142.18  2146.91  2165.13
                             3263.23  3425.04  4363.35  4459.24  4462.47
                             4482.46  4512.57  4544.82  4640.20  5140.93

 Zero-point correction=                           0.135119 (Hartree/Particle)
 Thermal correction to Energy=                    0.144655
 Thermal correction to Enthalpy=                  0.145599
 Thermal correction to Gibbs Free Energy=         0.099585
 Sum of electronic and zero-point Energies=           -380.840679
 Sum of electronic and thermal Energies=              -380.831143
 Sum of electronic and thermal Enthalpies=            -380.830199
 Sum of electronic and thermal Free Energies=         -380.876213

                     E (Thermal)             CV                S
                      KCal/Mol        Cal/Mol-Kelvin    Cal/Mol-Kelvin
 Total                   90.772             33.871             96.846
 Electronic               0.000              0.000              0.000
 Translational            0.889              2.981             40.263
 Rotational               0.889              2.981             29.723
 Vibrational             88.995             27.909             26.860
 Vibration     1          0.594              1.981              5.303
 Vibration     2          0.597              1.972              4.364
 Vibration     3          0.614              1.917              2.856
 Vibration     4          0.624              1.883              2.472
 Vibration     5          0.641              1.829              2.066
 Vibration     6          0.671              1.738              1.632
 Vibration     7          0.690              1.680              1.437
 Vibration     8          0.736              1.550              1.112
 Vibration     9          0.758              1.491              0.999
 Vibration    10          0.787              1.415              0.874
 Vibration    11          0.846              1.272              0.683
 Vibration    12          0.896              1.159              0.562
 Vibration    13          0.912              1.126              0.531
 Vibration    14          0.954              1.039              0.456

 Optimization completed.
    -- Stationary point found.
 Normal termination of Gaussian 16 at Thu Aug  4 09:13:16 2022.
