 Gaussian 16, Revision A.03,
 Gaussian 16:  ES64L-G16RevA.03 25-Dec-2016

 -----------------------------
 # opt freq b3lyp/6-31g(2df,p)
 -----------------------------

 -------------------
 Title Card Required
 -------------------
 Symbolic Z-matrix:
 Charge =  0 Multiplicity = 1

 SCF Done:  E(RB3LYP) =  -418.200608686     A.U. after   13 cycles
 SCF Done:  E(RB3LYP) =  -418.203189787     A.U. after   11 cycles
 SCF Done:  E(RB3LYP) =  -418.203602691     A.U. after   11 cycles
 SCF Done:  E(RB3LYP) =  -418.203718394     A.U. after   11 cycles
 SCF Done:  E(RB3LYP) =  -418.203727467     A.U. after   10 cycles
 SCF Done:  E(RB3LYP) =  -418.203746155     A.U. after    9 cycles
 SCF Done:  E(RB3LYP) =  -418.203748938     A.U. after    8 cycles
 SCF Done:  E(RB3LYP) =  -418.203749332     A.U. after    7 cycles
 SCF Done:  E(RB3LYP) =  -418.203749733     A.U. after    8 cycles
 SCF Done:  E(RB3LYP) =  -418.203749942     A.U. after    7 cycles
 Optimization completed.
    -- Stationary point found.
 Normal termination of Gaussian 16 at Thu Aug  4 01:50:41 2022.

 ----------------------------------------------------------------------
 #N Geom=AllCheck Guess=TCheck SCRF=Check GenChk RB3LYP/6-31G(2df,p) Fr
 eq
 ----------------------------------------------------------------------

 Structure from the checkpoint file:  "Cc1ccpCOpncn1.chk"
 -------------------
 Title Card Required
 -------------------
 Charge =  0 Multiplicity = 1

                         Standard orientation:
 ---------------------------------------------------------------------
 Center     Atomic      Atomic             Coordinates (Angstroms)
 Number     Number       Type             X           Y           Z
 ---------------------------------------------------------------------
      1          6           0       -2.451904   -1.567630   -0.021584
      2          6           0       -1.420203   -0.474134   -0.012219
      3          6           0       -0.053059   -0.739150   -0.078027
      4          6           0        0.816811    0.346493   -0.062779
      5          6           0        2.320096    0.175318   -0.141766
      6          8           0        2.764686   -1.147729    0.085878
      7          7           0        0.368680    1.605619    0.011324
      8          6           0       -0.955190    1.748083    0.065338
      9          7           0       -1.875392    0.786191    0.061968
     10          1           0       -1.994550   -2.557529   -0.083571
     11          1           0       -3.130339   -1.436177   -0.870417
     12          1           0       -3.064293   -1.514425    0.884134
     13          1           0        0.332099   -1.748736   -0.147802
     14          1           0        2.788181    0.902542    0.535923
     15          1           0        2.648027    0.437591   -1.154685
     16          1           0        2.637767   -1.347208    1.019088
     17          1           0       -1.326705    2.769223    0.123478
 ---------------------------------------------------------------------

 SCF Done:  E(RB3LYP) =  -418.203749942     A.U. after    1 cycles

 The electronic state is 1-A.
 Alpha  occ. eigenvalues --  -19.15154 -14.32750 -14.32530 -10.24635 -10.24106
 Alpha  occ. eigenvalues --  -10.24045 -10.23663 -10.19457 -10.18923  -1.03368
 Alpha  occ. eigenvalues --   -0.98059  -0.88904  -0.80139  -0.73501  -0.70429
 Alpha  occ. eigenvalues --   -0.64316  -0.60217  -0.52977  -0.51852  -0.48435
 Alpha  occ. eigenvalues --   -0.45936  -0.45343  -0.43505  -0.42654  -0.39594
 Alpha  occ. eigenvalues --   -0.39250  -0.38937  -0.34833  -0.30039  -0.29440
 Alpha  occ. eigenvalues --   -0.28658  -0.27470  -0.24758
 Alpha virt. eigenvalues --   -0.03501  -0.01912   0.06934   0.10966   0.11669
 Alpha virt. eigenvalues --    0.12813   0.14028   0.15131   0.17594   0.17995
 Alpha virt. eigenvalues --    0.18912   0.19054   0.22685   0.24170   0.26583

 Mulliken charges:
               1
     1  C   -0.468824
     2  C    0.335381
     3  C   -0.224908
     4  C    0.271204
     5  C   -0.149834
     6  O   -0.404322
     7  N   -0.307252
     8  C    0.056259
     9  N   -0.304276
    10  H    0.122881
    11  H    0.148156
    12  H    0.146559
    13  H    0.112282
    14  H    0.120648
    15  H    0.141431
    16  H    0.288713
    17  H    0.115902
 Sum of Mulliken charges =  -0.00000

 Dipole moment (field-independent basis, Debye):
    X=              0.1661    Y=             -1.5953    Z=              0.9346  Tot=              1.8564
 Quadrupole moment (field-independent basis, Debye-Ang):
   XX=            -55.0313   YY=            -52.3702   ZZ=            -49.9268
   XY=              3.1822   XZ=              3.0320   YZ=             -1.9924

  Exact polarizability:  97.628   3.523  86.664  -1.105   0.273  47.422
 Approx polarizability: 146.838   3.023 141.155  -2.880   1.410  75.388

                      1                      2                      3
                      A                      A                      A
 Frequencies --     50.8759                75.2736               157.8307
 Red. masses --      1.0300                 2.8125                 2.9273
 Frc consts  --      0.0016                 0.0094                 0.0430
 IR Inten    --      0.3187                 5.8026                 1.5611

                      4                      5                      6
                      A                      A                      A
 Frequencies --    189.5975               215.1277               328.6583
 Red. masses --      4.3569                 4.6278                 1.1691
 Frc consts  --      0.0923                 0.1262                 0.0744
 IR Inten    --      2.8713                 1.1795               121.5773

                      7                      8                      9
                      A                      A                      A
 Frequencies --    356.4477               442.5419               454.3190
 Red. masses --      2.9668                 2.7645                 4.1678
 Frc consts  --      0.2221                 0.3190                 0.5068
 IR Inten    --     16.2998                 9.9433                 2.2103

                     10                     11                     12
                      A                      A                      A
 Frequencies --    549.9164               560.8686               617.7433
 Red. masses --      5.3389                 3.4882                 5.2418
 Frc consts  --      0.9513                 0.6465                 1.1785
 IR Inten    --     10.2662                 2.3738                15.2403

                     13                     14                     15
                      A                      A                      A
 Frequencies --    776.2614               799.6163               903.9755
 Red. masses --      3.2123                 5.6781                 1.2795
 Frc consts  --      1.1405                 2.1390                 0.6160
 IR Inten    --      8.8075                 7.8390                 4.9770

                     16                     17                     18
                      A                      A                      A
 Frequencies --    940.4785               986.7568              1002.6553
 Red. masses --      3.4889                 1.6778                 2.2028
 Frc consts  --      1.8182                 0.9625                 1.3047
 IR Inten    --      9.3174                16.3756                 1.5777

                     19                     20                     21
                      A                      A                      A
 Frequencies --   1005.2424              1023.2440              1062.6531
 Red. masses --      2.0315                 1.9732                 1.6752
 Frc consts  --      1.2095                 1.2173                 1.1146
 IR Inten    --     10.2091                 1.6366                 6.5774

                     22                     23                     24
                      A                      A                      A
 Frequencies --   1089.9787              1164.8814              1200.8847
 Red. masses --      5.6396                 1.5909                 1.1354
 Frc consts  --      3.9476                 1.2719                 0.9647
 IR Inten    --     63.6270                 7.8725                12.3629

                     25                     26                     27
                      A                      A                      A
 Frequencies --   1247.3936              1270.0530              1340.4087
 Red. masses --      5.3946                 4.6620                 1.5579
 Frc consts  --      4.9455                 4.4306                 1.6492
 IR Inten    --      1.6489                14.9552                 2.1294

                     28                     29                     30
                      A                      A                      A
 Frequencies --   1375.8208              1385.7062              1402.5217
 Red. masses --      2.5637                 1.6673                 1.2333
 Frc consts  --      2.8591                 1.8863                 1.4294
 IR Inten    --     14.2553                16.1797                60.3495

                     31                     32                     33
                      A                      A                      A
 Frequencies --   1410.0487              1474.3316              1477.6024
 Red. masses --      1.4379                 1.0454                 1.0806
 Frc consts  --      1.6844                 1.3388                 1.3901
 IR Inten    --      5.9862                 4.9861                19.9890

                     34                     35                     36
                      A                      A                      A
 Frequencies --   1482.7511              1501.0234              1587.0591
 Red. masses --      1.2038                 2.0088                 7.6035
 Frc consts  --      1.5593                 2.6667                11.2836
 IR Inten    --     18.7083                 8.8983                64.8694

                     37                     38                     39
                      A                      A                      A
 Frequencies --   1626.6889              3014.7110              3044.0533
 Red. masses --      6.4265                 1.0634                 1.0359
 Frc consts  --     10.0192                 5.6940                 5.6556
 IR Inten    --    217.6049                26.8984                 9.1832

                     40                     41                     42
                      A                      A                      A
 Frequencies --   3064.2901              3105.6165              3131.8886
 Red. masses --      1.0987                 1.0992                 1.1025
 Frc consts  --      6.0785                 6.2465                 6.3715
 IR Inten    --     13.1831                 7.2761                13.8761

                     43                     44                     45
                      A                      A                      A
 Frequencies --   3155.3574              3210.5401              3816.1038
 Red. masses --      1.0900                 1.0908                 1.0663
 Frc consts  --      6.3940                 6.6244                 9.1489
 IR Inten    --     30.3455                 2.2330                23.5444

 - Thermochemistry -
 -------------------
 Temperature   298.150 Kelvin.  Pressure   1.00000 Atm.
 Atom     1 has atomic number  6 and mass  12.00000

 Molecular mass:   124.06366 amu.
 Principal axes and moments of inertia in atomic units:
                           1         2         3
     Eigenvalues --   614.062141449.052022028.38195
           X            0.99907   0.04304   0.00264
           Y           -0.04303   0.99907  -0.00399
           Z           -0.00281   0.00387   0.99999
 This molecule is an asymmetric top.
 Rotational symmetry number  1.
 Warning -- assumption of classical behavior for rotation
           may cause significant error
 Rotational temperatures (Kelvin)      0.14105     0.05977     0.04270
 Rotational constants (GHZ):           2.93902     1.24546     0.88974
 Zero-point vibrational energy     359357.0 (Joules/Mol)
                                   85.88838 (Kcal/Mol)
 Warning -- explicit consideration of  12 degrees of freedom as
           vibrations may cause significant error
 Vibrational temperatures:     73.20   108.30   227.08   272.79   309.52
          (Kelvin)            472.87   512.85   636.72   653.66   791.21
                              806.96   888.79  1116.87  1150.47  1300.62
                             1353.14  1419.72  1442.60  1446.32  1472.22
                             1528.92  1568.24  1676.00  1727.81  1794.72
                             1827.32  1928.55  1979.50  1993.72  2017.92
                             2028.75  2121.23  2125.94  2133.35  2159.64
                             2283.42  2340.44  4337.50  4379.71  4408.83
                             4468.29  4506.09  4539.86  4619.25  5490.52

 Zero-point correction=                           0.136872 (Hartree/Particle)
 Thermal correction to Energy=                    0.145451
 Thermal correction to Enthalpy=                  0.146396
 Thermal correction to Gibbs Free Energy=         0.102708
 Sum of electronic and zero-point Energies=           -418.066878
 Sum of electronic and thermal Energies=              -418.058299
 Sum of electronic and thermal Enthalpies=            -418.057354
 Sum of electronic and thermal Free Energies=         -418.101042

                     E (Thermal)             CV                S
                      KCal/Mol        Cal/Mol-Kelvin    Cal/Mol-Kelvin
 Total                   91.272             30.762             91.947
 Electronic               0.000              0.000              0.000
 Translational            0.889              2.981             40.361
 Rotational               0.889              2.981             28.980
 Vibrational             89.495             24.800             22.606
 Vibration     1          0.595              1.977              4.783
 Vibration     2          0.599              1.965              4.010
 Vibration     3          0.621              1.894              2.576
 Vibration     4          0.633              1.854              2.232
 Vibration     5          0.645              1.818              2.000
 Vibration     6          0.712              1.618              1.267
 Vibration     7          0.732              1.562              1.138
 Vibration     8          0.802              1.377              0.819
 Vibration     9          0.813              1.351              0.783
 Vibration    10          0.905              1.140              0.544
 Vibration    11          0.917              1.116              0.522
 Vibration    12          0.978              0.994              0.420

                           ! Non-Optimized Parameters !
 Normal termination of Gaussian 16 at Thu Aug  4 02:13:42 2022.
