 Gaussian 16, Revision A.03,
 Gaussian 16:  ES64L-G16RevA.03 25-Dec-2016

 -----------------------------
 # opt freq b3lyp/6-31g(2df,p)
 -----------------------------

 -------------------
 Title Card Required
 -------------------
 Symbolic Z-matrix:
 Charge =  0 Multiplicity = 1

 SCF Done:  E(RB3LYP) =  -403.163431397     A.U. after   14 cycles
 SCF Done:  E(RB3LYP) =  -403.226285815     A.U. after   13 cycles
 SCF Done:  E(RB3LYP) =  -403.282647069     A.U. after   12 cycles
 SCF Done:  E(RB3LYP) =  -403.302452008     A.U. after   12 cycles
 SCF Done:  E(RB3LYP) =  -403.313411390     A.U. after   12 cycles
 SCF Done:  E(RB3LYP) =  -403.317896655     A.U. after   12 cycles
 SCF Done:  E(RB3LYP) =  -403.318595862     A.U. after   10 cycles
 SCF Done:  E(RB3LYP) =  -403.318732250     A.U. after   10 cycles
 SCF Done:  E(RB3LYP) =  -403.318743422     A.U. after    8 cycles
 SCF Done:  E(RB3LYP) =  -403.318746412     A.U. after    7 cycles
 SCF Done:  E(RB3LYP) =  -403.319177290     A.U. after    9 cycles
 SCF Done:  E(RB3LYP) =  -403.319284195     A.U. after   10 cycles
 SCF Done:  E(RB3LYP) =  -403.319329680     A.U. after    9 cycles
 SCF Done:  E(RB3LYP) =  -403.319338353     A.U. after    9 cycles
 SCF Done:  E(RB3LYP) =  -403.319341981     A.U. after    8 cycles
 SCF Done:  E(RB3LYP) =  -403.319342762     A.U. after    8 cycles
 SCF Done:  E(RB3LYP) =  -403.319343320     A.U. after    8 cycles
 SCF Done:  E(RB3LYP) =  -403.319343811     A.U. after    8 cycles
 SCF Done:  E(RB3LYP) =  -403.319343918     A.U. after    7 cycles
 Optimization completed.
    -- Stationary point found.
 Normal termination of Gaussian 16 at Sun Jul  3 22:21:42 2022.

 ----------------------------------------------------------------------
 #N Geom=AllCheck Guess=TCheck SCRF=Check GenChk RB3LYP/6-31G(2df,p) Fr
 eq
 ----------------------------------------------------------------------

 Structure from the checkpoint file:  "CC1COC2NCCdC12.chk"
 -------------------
 Title Card Required
 -------------------
 Charge =  0 Multiplicity = 1

                         Standard orientation:
 ---------------------------------------------------------------------
 Center     Atomic      Atomic             Coordinates (Angstroms)
 Number     Number       Type             X           Y           Z
 ---------------------------------------------------------------------
      1          6           0        2.428307   -0.977589    0.640724
      2          6           0        1.418256   -0.472941   -0.398558
      3          6           0        1.440223    1.098194   -0.555361
      4          8           0        0.124077    1.600173   -0.296354
      5          6           0       -0.480493    0.643684    0.604811
      6          7           0       -1.912499    0.556500    0.616352
      7          6           0       -2.349545   -0.616713   -0.158389
      8          6           0       -1.061340   -1.338850   -0.468513
      9          6           0       -0.021441   -0.644246   -0.019649
     10          1           0        3.449082   -0.698764    0.357684
     11          1           0        2.387833   -2.067216    0.730293
     12          1           0        2.226787   -0.550584    1.628727
     13          1           0        1.626200   -0.952946   -1.359395
     14          1           0        1.722086    1.414185   -1.563458
     15          1           0        2.162142    1.530626    0.154386
     16          1           0       -0.087417    0.854420    1.614117
     17          1           0       -2.386478    1.420859    0.397902
     18          1           0       -2.852559   -0.355593   -1.103731
     19          1           0       -3.066844   -1.216260    0.421020
     20          1           0       -1.029757   -2.224854   -1.091571
 ---------------------------------------------------------------------

 SCF Done:  E(RB3LYP) =  -403.319343918     A.U. after    1 cycles

 The electronic state is 1-A.
 Alpha  occ. eigenvalues --  -19.12697 -14.31065 -10.24297 -10.22456 -10.20999
 Alpha  occ. eigenvalues --  -10.19658 -10.18266 -10.17946 -10.17929  -1.02701
 Alpha  occ. eigenvalues --   -0.90896  -0.80547  -0.74656  -0.71328  -0.66989
 Alpha  occ. eigenvalues --   -0.59836  -0.59015  -0.53948  -0.50725  -0.47583
 Alpha  occ. eigenvalues --   -0.45144  -0.44315  -0.42393  -0.41635  -0.40060
 Alpha  occ. eigenvalues --   -0.38969  -0.38222  -0.37099  -0.34234  -0.32948
 Alpha  occ. eigenvalues --   -0.30331  -0.25378  -0.23812  -0.22343
 Alpha virt. eigenvalues --    0.01169   0.09495   0.10064   0.11932   0.13642
 Alpha virt. eigenvalues --    0.14150   0.14895   0.15247   0.15503   0.16655
 Alpha virt. eigenvalues --    0.17855   0.18283   0.19261   0.20073   0.21549

 Mulliken charges:
               1
     1  C   -0.399891
     2  C   -0.126743
     3  C   -0.078930
     4  O   -0.287101
     5  C    0.094567
     6  N   -0.346511
     7  C   -0.194032
     8  C   -0.234571
     9  C    0.327097
    10  H    0.114112
    11  H    0.120554
    12  H    0.122115
    13  H    0.083260
    14  H    0.108751
    15  H    0.090225
    16  H    0.064772
    17  H    0.230594
    18  H    0.105314
    19  H    0.108424
    20  H    0.097994
 Sum of Mulliken charges =  -0.00000

 Dipole moment (field-independent basis, Debye):
    X=              0.4561    Y=             -1.0133    Z=             -0.7776  Tot=              1.3562
 Quadrupole moment (field-independent basis, Debye-Ang):
   XX=            -49.4774   YY=            -55.1062   ZZ=            -54.6015
   XY=             -0.2830   XZ=              1.3500   YZ=              1.6524

  Exact polarizability: 102.980   7.088  75.648   2.916   4.432  65.572
 Approx polarizability: 138.850  13.515 113.456   6.267   8.336 101.638

                      1                      2                      3
                      A                      A                      A
 Frequencies --     72.0945               145.3297               164.8275
 Red. masses --      2.4622                 2.4273                 2.8230
 Frc consts  --      0.0075                 0.0302                 0.0452
 IR Inten    --      0.2974                13.7216                 5.9616

                      4                      5                      6
                      A                      A                      A
 Frequencies --    235.4783               271.7639               317.5565
 Red. masses --      1.0956                 2.2413                 2.4616
 Frc consts  --      0.0358                 0.0975                 0.1463
 IR Inten    --      1.1700                 5.5115                 1.4410

                      7                      8                      9
                      A                      A                      A
 Frequencies --    356.0331               449.6120               531.8979
 Red. masses --      2.1525                 2.6931                 3.0712
 Frc consts  --      0.1608                 0.3208                 0.5119
 IR Inten    --     53.1075                 2.0056                72.3107

                     10                     11                     12
                      A                      A                      A
 Frequencies --    606.8442               660.3833               734.3719
 Red. masses --      4.7900                 3.3492                 5.0103
 Frc consts  --      1.0393                 0.8606                 1.5920
 IR Inten    --      8.2160                 4.3961                12.8269

                     13                     14                     15
                      A                      A                      A
 Frequencies --    810.5640               821.0182               870.2774
 Red. masses --      3.0917                 1.5929                 2.6880
 Frc consts  --      1.1968                 0.6326                 1.1995
 IR Inten    --      8.1517                 3.6072                12.3030

                     16                     17                     18
                      A                      A                      A
 Frequencies --    907.8489               929.5502               936.8847
 Red. masses --      2.8860                 1.4315                 2.0407
 Frc consts  --      1.4015                 0.7288                 1.0554
 IR Inten    --      4.3922                 4.6149                14.3442

                     19                     20                     21
                      A                      A                      A
 Frequencies --    950.7758               989.9702              1008.8657
 Red. masses --      4.0169                 2.0547                 2.7322
 Frc consts  --      2.1394                 1.1864                 1.6384
 IR Inten    --     57.6383                 5.4635                32.2933

                     22                     23                     24
                      A                      A                      A
 Frequencies --   1021.1297              1044.3060              1090.2415
 Red. masses --      3.3297                 1.8871                 1.9730
 Frc consts  --      2.0456                 1.2126                 1.3817
 IR Inten    --     83.3200                10.3716                 8.4263

                     25                     26                     27
                      A                      A                      A
 Frequencies --   1145.5050              1159.4267              1181.1806
 Red. masses --      2.0446                 1.7562                 1.9970
 Frc consts  --      1.5807                 1.3909                 1.6416
 IR Inten    --      4.1314                28.9126                19.3304

                     28                     29                     30
                      A                      A                      A
 Frequencies --   1202.4491              1237.9450              1250.0527
 Red. masses --      1.3193                 1.2741                 1.2785
 Frc consts  --      1.1239                 1.1504                 1.1770
 IR Inten    --      3.4926                 0.9025                 1.1435

                     31                     32                     33
                      A                      A                      A
 Frequencies --   1291.6802              1306.3462              1344.7171
 Red. masses --      1.5514                 1.6427                 1.3157
 Frc consts  --      1.5251                 1.6517                 1.4018
 IR Inten    --      3.6017                 1.7092                 5.0570

                     34                     35                     36
                      A                      A                      A
 Frequencies --   1361.5637              1387.0746              1409.8573
 Red. masses --      1.4032                 1.3615                 1.3345
 Frc consts  --      1.5326                 1.5433                 1.5628
 IR Inten    --      2.4565                 2.7425                 7.9543

                     37                     38                     39
                      A                      A                      A
 Frequencies --   1411.9354              1437.6964              1494.9759
 Red. masses --      1.3214                 1.5162                 1.0482
 Frc consts  --      1.5521                 1.8464                 1.3802
 IR Inten    --     11.7646                40.7184                 2.4901

                     40                     41                     42
                      A                      A                      A
 Frequencies --   1498.4470              1512.6198              1513.1447
 Red. masses --      1.0462                 1.0840                 1.0936
 Frc consts  --      1.3841                 1.4614                 1.4752
 IR Inten    --      4.0558                 1.9831                 0.6860

                     43                     44                     45
                      A                      A                      A
 Frequencies --   1740.7664              2943.5619              2971.6040
 Red. masses --      8.2292                 1.0820                 1.0676
 Frc consts  --     14.6923                 5.5238                 5.5547
 IR Inten    --      0.9810                72.3916                67.3227

                     46                     47                     48
                      A                      A                      A
 Frequencies --   2983.4303              3000.1577              3031.2099
 Red. masses --      1.0703                 1.0928                 1.0351
 Frc consts  --      5.6129                 5.7951                 5.6035
 IR Inten    --     75.4413                51.7634                32.4284

                     49                     50                     51
                      A                      A                      A
 Frequencies --   3056.0255              3084.5527              3099.9100
 Red. masses --      1.0859                 1.0946                 1.1011
 Frc consts  --      5.9752                 6.1359                 6.2339
 IR Inten    --      6.4361                35.7592                36.0026

                     52                     53                     54
                      A                      A                      A
 Frequencies --   3109.7243              3201.3046              3605.0163
 Red. masses --      1.1016                 1.0948                 1.0754
 Frc consts  --      6.2763                 6.6105                 8.2342
 IR Inten    --     29.4177                 9.4342                10.5148

 - Thermochemistry -
 -------------------
 Temperature   298.150 Kelvin.  Pressure   1.00000 Atm.
 Atom     1 has atomic number  6 and mass  12.00000

 Molecular mass:   125.08406 amu.
 Principal axes and moments of inertia in atomic units:
                           1         2         3
     Eigenvalues --   597.308941245.996791574.72448
           X            0.99989  -0.00510   0.01423
           Y            0.00497   0.99994   0.00967
           Z           -0.01428  -0.00960   0.99985
 This molecule is an asymmetric top.
 Rotational symmetry number  1.
 Warning -- assumption of classical behavior for rotation
           may cause significant error
 Rotational temperatures (Kelvin)      0.14501     0.06951     0.05500
 Rotational constants (GHZ):           3.02145     1.44843     1.14607
 Zero-point vibrational energy     453991.8 (Joules/Mol)
                                  108.50665 (Kcal/Mol)
 Warning -- explicit consideration of  10 degrees of freedom as
           vibrations may cause significant error
 Vibrational temperatures:    103.73   209.10   237.15   338.80   391.01
          (Kelvin)            456.89   512.25   646.89   765.28   873.11
                              950.14  1056.60  1166.22  1181.26  1252.14
                             1306.19  1337.42  1347.97  1367.95  1424.35
                             1451.53  1469.18  1502.52  1568.61  1648.13
                             1668.16  1699.46  1730.06  1781.13  1798.55
                             1858.44  1879.54  1934.75  1958.99  1995.69
                             2028.47  2031.46  2068.52  2150.94  2155.93
                             2176.32  2177.08  2504.57  4235.13  4275.48
                             4292.49  4316.56  4361.23  4396.94  4437.98
                             4460.08  4474.20  4605.96  5186.81

 Zero-point correction=                           0.172916 (Hartree/Particle)
 Thermal correction to Energy=                    0.181135
 Thermal correction to Enthalpy=                  0.182079
 Thermal correction to Gibbs Free Energy=         0.140023
 Sum of electronic and zero-point Energies=           -403.146428
 Sum of electronic and thermal Energies=              -403.138209
 Sum of electronic and thermal Enthalpies=            -403.137265
 Sum of electronic and thermal Free Energies=         -403.179321

                     E (Thermal)             CV                S
                      KCal/Mol        Cal/Mol-Kelvin    Cal/Mol-Kelvin
 Total                  113.664             31.559             88.515
 Electronic               0.000              0.000              0.000
 Translational            0.889              2.981             40.385
 Rotational               0.889              2.981             28.551
 Vibrational            111.886             25.598             19.578
 Vibration     1          0.598              1.967              4.095
 Vibration     2          0.617              1.908              2.732
 Vibration     3          0.623              1.886              2.494
 Vibration     4          0.655              1.786              1.837
 Vibration     5          0.675              1.725              1.585
 Vibration     6          0.704              1.640              1.323
 Vibration     7          0.732              1.563              1.139
 Vibration     8          0.809              1.362              0.797
 Vibration     9          0.887              1.179              0.583
 Vibration    10          0.966              1.017              0.438

 Optimization completed.
    -- Stationary point found.
 Normal termination of Gaussian 16 at Sun Jul  3 22:54:04 2022.
