 Gaussian 16, Revision A.03,
 Gaussian 16:  ES64L-G16RevA.03 25-Dec-2016

 -----------------------------
 # opt freq b3lyp/6-31g(2df,p)
 -----------------------------

 -------------------
 Title Card Required
 -------------------
 Symbolic Z-matrix:
 Charge =  0 Multiplicity = 1

 SCF Done:  E(RB3LYP) =  -403.314906435     A.U. after   14 cycles
 SCF Done:  E(RB3LYP) =  -403.319430351     A.U. after   11 cycles
 SCF Done:  E(RB3LYP) =  -403.319921956     A.U. after   11 cycles
 SCF Done:  E(RB3LYP) =  -403.320147273     A.U. after   11 cycles
 SCF Done:  E(RB3LYP) =  -403.320324866     A.U. after   12 cycles
 SCF Done:  E(RB3LYP) =  -403.320211896     A.U. after   10 cycles
 SCF Done:  E(RB3LYP) =  -403.320753295     A.U. after   11 cycles
 SCF Done:  E(RB3LYP) =  -403.319590827     A.U. after   14 cycles
 SCF Done:  E(RB3LYP) =  -403.321905409     A.U. after   13 cycles
 SCF Done:  E(RB3LYP) =  -403.322318961     A.U. after   12 cycles
 SCF Done:  E(RB3LYP) =  -403.322363475     A.U. after   10 cycles
 SCF Done:  E(RB3LYP) =  -403.322376074     A.U. after   10 cycles
 SCF Done:  E(RB3LYP) =  -403.322377790     A.U. after    9 cycles
 SCF Done:  E(RB3LYP) =  -403.322378336     A.U. after    8 cycles
 Optimization completed.
    -- Stationary point found.
 Normal termination of Gaussian 16 at Sun Jul  3 14:48:41 2022.

 ----------------------------------------------------------------------
 #N Geom=AllCheck Guess=TCheck SCRF=Check GenChk RB3LYP/6-31G(2df,p) Fr
 eq
 ----------------------------------------------------------------------

 Structure from the checkpoint file:  "CC1CdCCpCdNpC1O.chk"
 -------------------
 Title Card Required
 -------------------
 Charge =  0 Multiplicity = 1

                         Standard orientation:
 ---------------------------------------------------------------------
 Center     Atomic      Atomic             Coordinates (Angstroms)
 Number     Number       Type             X           Y           Z
 ---------------------------------------------------------------------
      1          6           0       -2.728872    0.000260   -0.609179
      2          6           0       -1.238944    0.353607   -0.610865
      3          6           0       -0.829750    1.453413    0.347482
      4          6           0        0.343488    1.206169    0.931082
      5          6           0        0.953539   -0.093602    0.436855
      6          6           0        2.055469    0.171945   -0.567082
      7          7           0        3.266069   -0.205032   -0.521057
      8          6           0       -0.287509   -0.808990   -0.192966
      9          8           0       -0.878107   -1.692592    0.743631
     10          1           0       -3.326394    0.864337   -0.916970
     11          1           0       -3.069152   -0.311560    0.381588
     12          1           0       -2.938003   -0.819753   -1.302419
     13          1           0       -0.969401    0.660827   -1.632825
     14          1           0       -1.433731    2.340499    0.508264
     15          1           0        0.857285    1.860684    1.625910
     16          1           0        1.359710   -0.720323    1.239904
     17          1           0        1.752750    0.772990   -1.432999
     18          1           0        3.439474   -0.750472    0.330061
     19          1           0       -0.013508   -1.439796   -1.042693
     20          1           0       -1.101181   -1.178291    1.528564
 ---------------------------------------------------------------------

 SCF Done:  E(RB3LYP) =  -403.322378336     A.U. after    1 cycles

 The electronic state is 1-A.
 Alpha  occ. eigenvalues --  -19.14414 -14.31448 -10.24104 -10.22837 -10.20053
 Alpha  occ. eigenvalues --  -10.19808 -10.19434 -10.19331 -10.18044  -1.02851
 Alpha  occ. eigenvalues --   -0.90186  -0.84782  -0.75900  -0.71662  -0.66519
 Alpha  occ. eigenvalues --   -0.60575  -0.57938  -0.54794  -0.51717  -0.48420
 Alpha  occ. eigenvalues --   -0.46398  -0.45441  -0.42895  -0.41292  -0.39313
 Alpha  occ. eigenvalues --   -0.38576  -0.37028  -0.35758  -0.34427  -0.33209
 Alpha  occ. eigenvalues --   -0.31284  -0.28061  -0.26444  -0.24644
 Alpha virt. eigenvalues --   -0.01372   0.02161   0.07379   0.09250   0.10768
 Alpha virt. eigenvalues --    0.12697   0.13204   0.14136   0.14492   0.16082
 Alpha virt. eigenvalues --    0.16355   0.17974   0.18908   0.20251   0.21005

 Mulliken charges:
               1
     1  C   -0.395201
     2  C   -0.051116
     3  C   -0.071462
     4  C   -0.112747
     5  C   -0.133080
     6  C    0.078933
     7  N   -0.409695
     8  C    0.099726
     9  O   -0.427024
    10  H    0.112563
    11  H    0.114178
    12  H    0.123578
    13  H    0.091318
    14  H    0.099998
    15  H    0.104883
    16  H    0.076701
    17  H    0.106802
    18  H    0.216071
    19  H    0.093527
    20  H    0.282047
 Sum of Mulliken charges =  -0.00000

 Dipole moment (field-independent basis, Debye):
    X=             -2.0893    Y=              1.2595    Z=              1.3084  Tot=              2.7683
 Quadrupole moment (field-independent basis, Debye-Ang):
   XX=            -62.9014   YY=            -56.6255   ZZ=            -51.3912
   XY=             -3.0122   XZ=              5.1975   YZ=              0.3800

  Exact polarizability: 106.482  -7.248  71.698   5.946   0.272  69.925
 Approx polarizability: 150.557 -13.622 107.771  10.428  -2.359 110.410

                      1                      2                      3
                      A                      A                      A
 Frequencies --     66.4413                76.6114               173.0815
 Red. masses --      3.4540                 3.7218                 2.0898
 Frc consts  --      0.0090                 0.0129                 0.0369
 IR Inten    --      0.4488                 0.8358                 1.4556

                      4                      5                      6
                      A                      A                      A
 Frequencies --    211.8645               219.2783               273.8083
 Red. masses --      1.5093                 2.0710                 3.0015
 Frc consts  --      0.0399                 0.0587                 0.1326
 IR Inten    --      1.7377                 2.9513                 3.5039

                      7                      8                      9
                      A                      A                      A
 Frequencies --    326.7141               360.1539               407.7996
 Red. masses --      2.5114                 1.8131                 1.5719
 Frc consts  --      0.1579                 0.1386                 0.1540
 IR Inten    --      1.8702                12.7330                76.2567

                     10                     11                     12
                      A                      A                      A
 Frequencies --    440.8956               513.9977               564.8525
 Red. masses --      3.2870                 3.4968                 3.1805
 Frc consts  --      0.3765                 0.5443                 0.5979
 IR Inten    --      8.6146                 0.6773                 3.2224

                     13                     14                     15
                      A                      A                      A
 Frequencies --    710.6187               776.6345               786.3844
 Red. masses --      2.3169                 1.7400                 3.0966
 Frc consts  --      0.6893                 0.6184                 1.1283
 IR Inten    --     13.9065                19.2941                13.8554

                     16                     17                     18
                      A                      A                      A
 Frequencies --    816.9759               833.6592               901.1150
 Red. masses --      2.5563                 3.0587                 1.9669
 Frc consts  --      1.0052                 1.2525                 0.9410
 IR Inten    --      5.4401                14.6274                14.6288

                     19                     20                     21
                      A                      A                      A
 Frequencies --    963.2358               975.4785              1001.1262
 Red. masses --      2.2556                 1.3095                 1.8103
 Frc consts  --      1.2330                 0.7341                 1.0690
 IR Inten    --     20.8608                 0.5938                24.0101

                     22                     23                     24
                      A                      A                      A
 Frequencies --   1012.2848              1047.8297              1084.6740
 Red. masses --      1.9787                 3.4371                 2.1407
 Frc consts  --      1.1946                 2.2234                 1.4839
 IR Inten    --      4.8269                 1.6502                31.2286

                     25                     26                     27
                      A                      A                      A
 Frequencies --   1105.1261              1134.2034              1144.0656
 Red. masses --      1.4704                 1.8303                 1.3501
 Frc consts  --      1.0581                 1.3873                 1.0412
 IR Inten    --      3.0789                30.7274                23.6170

                     28                     29                     30
                      A                      A                      A
 Frequencies --   1149.0171              1202.2738              1226.7889
 Red. masses --      1.2458                 1.2062                 1.5149
 Frc consts  --      0.9690                 1.0273                 1.3433
 IR Inten    --     10.0830                84.6165                 7.2425

                     31                     32                     33
                      A                      A                      A
 Frequencies --   1263.3570              1285.1287              1308.8421
 Red. masses --      1.4082                 1.5850                 1.3290
 Frc consts  --      1.3243                 1.5423                 1.3414
 IR Inten    --     22.9576                 5.2503                27.7502

                     34                     35                     36
                      A                      A                      A
 Frequencies --   1332.3153              1340.0099              1378.7002
 Red. masses --      1.3977                 1.3963                 1.7462
 Frc consts  --      1.4618                 1.4772                 1.9557
 IR Inten    --     37.5644                 0.7092                 1.5970

                     37                     38                     39
                      A                      A                      A
 Frequencies --   1413.0290              1420.4679              1436.0447
 Red. masses --      1.2264                 1.2102                 1.2030
 Frc consts  --      1.4427                 1.4387                 1.4616
 IR Inten    --      7.1578                25.7031                44.7976

                     40                     41                     42
                      A                      A                      A
 Frequencies --   1493.4103              1496.0145              1667.2717
 Red. masses --      1.0517                 1.0468                 6.6931
 Frc consts  --      1.3820                 1.3803                10.9620
 IR Inten    --      6.3288                 4.9284                 2.6119

                     43                     44                     45
                      A                      A                      A
 Frequencies --   1720.9250              2985.5089              3034.1723
 Red. masses --      8.3846                 1.0818                 1.0835
 Frc consts  --     14.6304                 5.6809                 5.8769
 IR Inten    --     89.3578                16.9924                13.9797

                     46                     47                     48
                      A                      A                      A
 Frequencies --   3041.2777              3062.0183              3082.1520
 Red. masses --      1.0356                 1.0870                 1.0872
 Frc consts  --      5.6437                 6.0050                 6.0851
 IR Inten    --     27.2940                32.0073                25.9718

                     49                     50                     51
                      A                      A                      A
 Frequencies --   3107.9079              3118.9688              3179.2919
 Red. masses --      1.1014                 1.1012                 1.0852
 Frc consts  --      6.2680                 6.3115                 6.4631
 IR Inten    --     21.1643                24.5598                 4.4342

                     52                     53                     54
                      A                      A                      A
 Frequencies --   3206.4380              3401.4315              3788.1068
 Red. masses --      1.1033                 1.0734                 1.0656
 Frc consts  --      6.6834                 7.3171                 9.0094
 IR Inten    --     16.6744                 4.0145                14.4605

 - Thermochemistry -
 -------------------
 Temperature   298.150 Kelvin.  Pressure   1.00000 Atm.
 Atom     1 has atomic number  6 and mass  12.00000

 Molecular mass:   125.08406 amu.
 Principal axes and moments of inertia in atomic units:
                           1         2         3
     Eigenvalues --   609.005051600.832961814.30181
           X            0.99976  -0.01043   0.01939
           Y            0.01022   0.99989   0.01119
           Z           -0.01950  -0.01099   0.99975
 This molecule is an asymmetric top.
 Rotational symmetry number  1.
 Warning -- assumption of classical behavior for rotation
           may cause significant error
 Rotational temperatures (Kelvin)      0.14222     0.05411     0.04774
 Rotational constants (GHZ):           2.96343     1.12738     0.99473
 Zero-point vibrational energy     449017.0 (Joules/Mol)
                                  107.31764 (Kcal/Mol)
 Warning -- explicit consideration of  12 degrees of freedom as
           vibrations may cause significant error
 Vibrational temperatures:     95.59   110.23   249.03   304.83   315.49
          (Kelvin)            393.95   470.07   518.18   586.73   634.35
                              739.53   812.70  1022.42  1117.40  1131.43
                             1175.45  1199.45  1296.50  1385.88  1403.50
                             1440.40  1456.45  1507.59  1560.60  1590.03
                             1631.87  1646.06  1653.18  1729.80  1765.08
                             1817.69  1849.01  1883.13  1916.90  1927.98
                             1983.64  2033.03  2043.74  2066.15  2148.68
                             2152.43  2398.83  2476.03  4295.48  4365.50
                             4375.72  4405.56  4434.53  4471.59  4487.50
                             4574.29  4613.35  4893.90  5450.24

 Zero-point correction=                           0.171022 (Hartree/Particle)
 Thermal correction to Energy=                    0.180175
 Thermal correction to Enthalpy=                  0.181119
 Thermal correction to Gibbs Free Energy=         0.136854
 Sum of electronic and zero-point Energies=           -403.151357
 Sum of electronic and thermal Energies=              -403.142204
 Sum of electronic and thermal Enthalpies=            -403.141259
 Sum of electronic and thermal Free Energies=         -403.185524

                     E (Thermal)             CV                S
                      KCal/Mol        Cal/Mol-Kelvin    Cal/Mol-Kelvin
 Total                  113.061             34.311             93.163
 Electronic               0.000              0.000              0.000
 Translational            0.889              2.981             40.385
 Rotational               0.889              2.981             28.960
 Vibrational            111.284             28.349             23.818
 Vibration     1          0.598              1.970              4.256
 Vibration     2          0.599              1.965              3.976
 Vibration     3          0.627              1.876              2.402
 Vibration     4          0.643              1.823              2.028
 Vibration     5          0.647              1.812              1.965
 Vibration     6          0.676              1.722              1.572
 Vibration     7          0.710              1.622              1.276
 Vibration     8          0.735              1.554              1.121
 Vibration     9          0.772              1.453              0.934
 Vibration    10          0.801              1.381              0.824
 Vibration    11          0.869              1.219              0.624
 Vibration    12          0.921              1.107              0.514

                           ! Non-Optimized Parameters !
 Normal termination of Gaussian 16 at Sun Jul  3 15:22:20 2022.
