 Gaussian 16, Revision A.03,
 Gaussian 16:  ES64L-G16RevA.03 25-Dec-2016

 -----------------------------
 # opt freq b3lyp/6-31g(2df,p)
 -----------------------------

 -------------------
 Title Card Required
 -------------------
 Symbolic Z-matrix:
 Charge =  0 Multiplicity = 1

 SCF Done:  E(RB3LYP) =  -386.446592709     A.U. after   26 cycles
 SCF Done:  E(RB3LYP) =  -386.540597456     A.U. after   17 cycles
 SCF Done:  E(RB3LYP) =  -386.657636852     A.U. after   17 cycles
 SCF Done:  E(RB3LYP) =  -386.702911287     A.U. after   17 cycles
 SCF Done:  E(RB3LYP) =  -386.779987134     A.U. after   16 cycles
 SCF Done:  E(RB3LYP) =  -386.852963551     A.U. after   19 cycles
 SCF Done:  E(RB3LYP) =  -386.901292997     A.U. after   19 cycles
 SCF Done:  E(RB3LYP) =  -386.952557398     A.U. after   23 cycles
 SCF Done:  E(RB3LYP) =  -387.006755016     A.U. after   20 cycles
 SCF Done:  E(RB3LYP) =  -387.030383311     A.U. after   16 cycles
 SCF Done:  E(RB3LYP) =  -387.257954960     A.U. after    9 cycles
 SCF Done:  E(RB3LYP) =  -387.257989076     A.U. after    9 cycles
 SCF Done:  E(RB3LYP) =  -387.258007868     A.U. after    8 cycles
 SCF Done:  E(RB3LYP) =  -387.258023374     A.U. after    8 cycles
 SCF Done:  E(RB3LYP) =  -387.258028406     A.U. after    7 cycles
 SCF Done:  E(RB3LYP) =  -387.258035644     A.U. after    8 cycles
 SCF Done:  E(RB3LYP) =  -387.258043504     A.U. after    8 cycles
 SCF Done:  E(RB3LYP) =  -387.258048683     A.U. after    7 cycles
 SCF Done:  E(RB3LYP) =  -387.258051939     A.U. after    8 cycles
 Optimization completed.
    -- Stationary point found.
 Normal termination of Gaussian 16 at Thu Aug  4 18:38:20 2022.

 ----------------------------------------------------------------------
 #N Geom=AllCheck Guess=TCheck SCRF=Check GenChk RB3LYP/6-31G(2df,p) Fr
 eq
 ----------------------------------------------------------------------

 Structure from the checkpoint file:  "CC1CtCCCpOpC1C.chk"
 -------------------
 Title Card Required
 -------------------
 Charge =  0 Multiplicity = 1

                         Standard orientation:
 ---------------------------------------------------------------------
 Center     Atomic      Atomic             Coordinates (Angstroms)
 Number     Number       Type             X           Y           Z
 ---------------------------------------------------------------------
      1          6           0       -1.724767    1.563489   -0.747325
      2          6           0       -1.596783    0.479373    0.342239
      3          6           0       -0.419724   -0.406929    0.075082
      4          6           0        1.029218   -0.141856    0.044837
      5          6           0        1.267634   -1.622716   -0.311829
      6          6           0        1.823179    0.905406    0.259906
      7          8           0        3.185744    0.912970    0.189732
      8          6           0       -0.255028   -1.713774   -0.229473
      9          6           0       -2.895429   -0.324728    0.480763
     10          1           0       -0.799751    2.136930   -0.853433
     11          1           0       -2.534274    2.259932   -0.505977
     12          1           0       -1.946146    1.107338   -1.718169
     13          1           0       -1.407327    0.995272    1.295366
     14          1           0        1.703192   -1.808932   -1.301200
     15          1           0        1.821190   -2.207463    0.433308
     16          1           0        1.442594    1.886516    0.523562
     17          1           0        3.485275    0.027039   -0.046268
     18          1           0       -0.935606   -2.543296   -0.367000
     19          1           0       -3.737859    0.334576    0.711723
     20          1           0       -2.817939   -1.071129    1.276969
     21          1           0       -3.129107   -0.850140   -0.451930
 ---------------------------------------------------------------------

 SCF Done:  E(RB3LYP) =  -387.258051939     A.U. after    1 cycles

 The electronic state is 1-A.
 Alpha  occ. eigenvalues --  -19.16378 -10.22630 -10.19207 -10.18885 -10.18502
 Alpha  occ. eigenvalues --  -10.17683 -10.17510 -10.17414 -10.17294  -1.04833
 Alpha  occ. eigenvalues --   -0.86263  -0.78924  -0.71439  -0.68172  -0.65594
 Alpha  occ. eigenvalues --   -0.60416  -0.58348  -0.53472  -0.48307  -0.46833
 Alpha  occ. eigenvalues --   -0.44296  -0.43193  -0.41412  -0.39266  -0.38775
 Alpha  occ. eigenvalues --   -0.38194  -0.37515  -0.36219  -0.34259  -0.33361
 Alpha  occ. eigenvalues --   -0.32500  -0.30691  -0.26765  -0.19562
 Alpha virt. eigenvalues --    0.00376   0.06654   0.07672   0.09972   0.11532
 Alpha virt. eigenvalues --    0.13403   0.14187   0.14858   0.15845   0.16948
 Alpha virt. eigenvalues --    0.17921   0.18267   0.18620   0.20045   0.20329

 Mulliken charges:
               1
     1  C   -0.384532
     2  C   -0.110319
     3  C    0.338144
     4  C    0.128437
     5  C   -0.400296
     6  C   -0.056428
     7  O   -0.388037
     8  C   -0.242022
     9  C   -0.388627
    10  H    0.120161
    11  H    0.110651
    12  H    0.118735
    13  H    0.083336
    14  H    0.108384
    15  H    0.107906
    16  H    0.109247
    17  H    0.301107
    18  H    0.099762
    19  H    0.109885
    20  H    0.117096
    21  H    0.117412
 Sum of Mulliken charges =  -0.00000

 Dipole moment (field-independent basis, Debye):
    X=             -0.4944    Y=             -0.7647    Z=             -0.1503  Tot=              0.9229
 Quadrupole moment (field-independent basis, Debye-Ang):
   XX=            -53.8779   YY=            -53.9650   ZZ=            -56.0800
   XY=             -4.8111   XZ=             -1.4090   YZ=              0.9447

  Exact polarizability: 109.139   5.349 100.836  -0.394   5.831  61.193
 Approx polarizability: 149.167  22.758 169.170   2.691  15.979  95.097

                      1                      2                      3
                      A                      A                      A
 Frequencies --     48.0647               115.9464               150.5743
 Red. masses --      2.9675                 3.9870                 2.6254
 Frc consts  --      0.0040                 0.0316                 0.0351
 IR Inten    --      0.0850                 1.3704                 2.9437

                      4                      5                      6
                      A                      A                      A
 Frequencies --    183.8651               217.9264               225.4909
 Red. masses --      3.1073                 1.4208                 1.4313
 Frc consts  --      0.0619                 0.0398                 0.0429
 IR Inten    --      0.0017                 1.2371                 1.4609

                      7                      8                      9
                      A                      A                      A
 Frequencies --    254.1333               296.0087               312.5039
 Red. masses --      1.2796                 2.0649                 2.4050
 Frc consts  --      0.0487                 0.1066                 0.1384
 IR Inten    --      2.3571                 5.3422                 5.9989

                     10                     11                     12
                      A                      A                      A
 Frequencies --    375.3206               413.6465               494.2658
 Red. masses --      2.1091                 2.1529                 1.8660
 Frc consts  --      0.1750                 0.2170                 0.2686
 IR Inten    --      4.6502                 3.0445                72.0830

                     13                     14                     15
                      A                      A                      A
 Frequencies --    598.5769               621.3881               676.5919
 Red. masses --      3.7591                 3.3817                 2.7516
 Frc consts  --      0.7936                 0.7693                 0.7421
 IR Inten    --      0.2936                 2.4539                 0.7100

                     16                     17                     18
                      A                      A                      A
 Frequencies --    756.2592               791.7662               881.7364
 Red. masses --      3.1355                 1.2706                 2.5106
 Frc consts  --      1.0566                 0.4693                 1.1500
 IR Inten    --      8.3148                19.9662                 2.0853

                     19                     20                     21
                      A                      A                      A
 Frequencies --    896.0509               929.3045               945.6437
 Red. masses --      1.3401                 1.1701                 2.0882
 Frc consts  --      0.6340                 0.5954                 1.1002
 IR Inten    --     13.2668                 0.7925                 3.5531

                     22                     23                     24
                      A                      A                      A
 Frequencies --    967.5666               998.7810              1007.8069
 Red. masses --      1.4725                 1.9038                 3.4444
 Frc consts  --      0.8122                 1.1189                 2.0612
 IR Inten    --      0.2990                 4.1843                15.0827

                     25                     26                     27
                      A                      A                      A
 Frequencies --   1093.8137              1101.2701              1118.8595
 Red. masses --      1.2506                 1.3293                 2.4952
 Frc consts  --      0.8815                 0.9499                 1.8404
 IR Inten    --     13.1686                28.7935                35.9733

                     28                     29                     30
                      A                      A                      A
 Frequencies --   1138.1670              1173.0002              1199.6100
 Red. masses --      2.3359                 2.4347                 1.7201
 Frc consts  --      1.7829                 1.9738                 1.4584
 IR Inten    --    188.8453                39.6088                 3.4803

                     31                     32                     33
                      A                      A                      A
 Frequencies --   1231.9846              1272.7427              1313.4994
 Red. masses --      1.5173                 2.1728                 1.7659
 Frc consts  --      1.3569                 2.0737                 1.7950
 IR Inten    --      3.8061                16.0117                 0.0796

                     34                     35                     36
                      A                      A                      A
 Frequencies --   1331.7553              1375.9677              1397.2634
 Red. masses --      1.3512                 1.7219                 1.2652
 Frc consts  --      1.4120                 1.9208                 1.4553
 IR Inten    --      1.3414                 1.1054                 3.8234

                     37                     38                     39
                      A                      A                      A
 Frequencies --   1403.6654              1417.2088              1478.8768
 Red. masses --      1.3288                 1.2256                 1.1216
 Frc consts  --      1.5425                 1.4503                 1.4453
 IR Inten    --     27.3546                 2.7007                 3.0884

                     40                     41                     42
                      A                      A                      A
 Frequencies --   1485.8417              1491.8376              1500.1489
 Red. masses --      1.0418                 1.0516                 1.0433
 Frc consts  --      1.3552                 1.3789                 1.3833
 IR Inten    --      1.5341                 1.0156                 6.7201

                     43                     44                     45
                      A                      A                      A
 Frequencies --   1510.8839              1649.5359              1768.3390
 Red. masses --      1.0646                 7.1068                 8.1403
 Frc consts  --      1.4318                11.3932                14.9977
 IR Inten    --      3.9911                20.8144               112.7401

                     46                     47                     48
                      A                      A                      A
 Frequencies --   2991.8031              3018.0069              3031.0356
 Red. masses --      1.0814                 1.0558                 1.0348
 Frc consts  --      5.7031                 5.6658                 5.6011
 IR Inten    --     17.3409                54.9051                22.5579

                     49                     50                     51
                      A                      A                      A
 Frequencies --   3034.7824              3058.6659              3097.9154
 Red. masses --      1.0352                 1.1060                 1.1014
 Frc consts  --      5.6172                 6.0966                 6.2279
 IR Inten    --     23.8520                28.3440                 4.9086

                     52                     53                     54
                      A                      A                      A
 Frequencies --   3103.8064              3108.3797              3113.2536
 Red. masses --      1.1014                 1.1020                 1.1011
 Frc consts  --      6.2514                 6.2733                 6.2877
 IR Inten    --     51.2897                25.1817                29.8306

                     55                     56                     57
                      A                      A                      A
 Frequencies --   3189.5487              3220.4445              3797.9021
 Red. masses --      1.0907                 1.0981                 1.0652
 Frc consts  --      6.5375                 6.7099                 9.0522
 IR Inten    --      9.7730                 4.4564                26.5811

 - Thermochemistry -
 -------------------
 Temperature   298.150 Kelvin.  Pressure   1.00000 Atm.
 Atom     1 has atomic number  6 and mass  12.00000

 Molecular mass:   124.08882 amu.
 Principal axes and moments of inertia in atomic units:
                           1         2         3
     Eigenvalues --   650.424531765.723722241.42391
           X            0.99963  -0.02697  -0.00382
           Y            0.02694   0.99961  -0.00727
           Z            0.00401   0.00717   0.99997
 This molecule is an asymmetric top.
 Rotational symmetry number  1.
 Warning -- assumption of classical behavior for rotation
           may cause significant error
 Rotational temperatures (Kelvin)      0.13317     0.04905     0.03864
 Rotational constants (GHZ):           2.77471     1.02210     0.80518
 Zero-point vibrational energy     474792.1 (Joules/Mol)
                                  113.47803 (Kcal/Mol)
 Warning -- explicit consideration of  13 degrees of freedom as
           vibrations may cause significant error
 Vibrational temperatures:     69.15   166.82   216.64   264.54   313.55
          (Kelvin)            324.43   365.64   425.89   449.62   540.00
                              595.15   711.14   861.22   894.04   973.46
                             1088.09  1139.18  1268.62  1289.22  1337.06
                             1360.57  1392.11  1437.02  1450.01  1573.75
                             1584.48  1609.79  1637.57  1687.69  1725.97
                             1772.55  1831.19  1889.83  1916.10  1979.71
                             2010.35  2019.56  2039.05  2127.77  2137.79
                             2146.42  2158.38  2173.82  2373.31  2544.25
                             4304.54  4342.24  4360.98  4366.38  4400.74
                             4457.21  4465.69  4472.27  4479.28  4589.05
                             4633.50  5464.33

 Zero-point correction=                           0.180839 (Hartree/Particle)
 Thermal correction to Energy=                    0.190831
 Thermal correction to Enthalpy=                  0.191775
 Thermal correction to Gibbs Free Energy=         0.145780
 Sum of electronic and zero-point Energies=           -387.077213
 Sum of electronic and thermal Energies=              -387.067221
 Sum of electronic and thermal Enthalpies=            -387.066277
 Sum of electronic and thermal Free Energies=         -387.112272

                     E (Thermal)             CV                S
                      KCal/Mol        Cal/Mol-Kelvin    Cal/Mol-Kelvin
 Total                  119.748             36.960             96.805
 Electronic               0.000              0.000              0.000
 Translational            0.889              2.981             40.361
 Rotational               0.889              2.981             29.333
 Vibrational            117.971             30.998             27.111
 Vibration     1          0.595              1.978              4.895
 Vibration     2          0.608              1.936              3.167
 Vibration     3          0.618              1.902              2.665
 Vibration     4          0.631              1.862              2.289
 Vibration     5          0.646              1.814              1.976
 Vibration     6          0.650              1.802              1.915
 Vibration     7          0.665              1.756              1.702
 Vibration     8          0.690              1.681              1.439
 Vibration     9          0.701              1.650              1.349
 Vibration    10          0.746              1.523              1.058
 Vibration    11          0.777              1.441              0.914
 Vibration    12          0.850              1.263              0.673
 Vibration    13          0.957              1.035              0.452

                           ! Non-Optimized Parameters !
 Normal termination of Gaussian 16 at Thu Aug  4 19:08:28 2022.
