 Gaussian 16, Revision A.03,
 Gaussian 16:  ES64L-G16RevA.03 25-Dec-2016

 -----------------------------
 # opt freq b3lyp/6-31g(2df,p)
 -----------------------------

 -------------------
 Title Card Required
 -------------------
 Symbolic Z-matrix:
 Charge =  0 Multiplicity = 1

 SCF Done:  E(RB3LYP) =  -363.739690690     A.U. after   18 cycles
 SCF Done:  E(RB3LYP) =  -363.790327711     A.U. after   15 cycles
 SCF Done:  E(RB3LYP) =  -363.836564893     A.U. after   15 cycles
 SCF Done:  E(RB3LYP) =  -363.860173183     A.U. after   15 cycles
 SCF Done:  E(RB3LYP) =  -363.896033585     A.U. after   15 cycles
 SCF Done:  E(RB3LYP) =  -363.908759019     A.U. after   14 cycles
 SCF Done:  E(RB3LYP) =  -363.913925288     A.U. after   14 cycles
 SCF Done:  E(RB3LYP) =  -363.915837440     A.U. after   13 cycles
 SCF Done:  E(RB3LYP) =  -363.916807788     A.U. after   13 cycles
 SCF Done:  E(RB3LYP) =  -363.917370269     A.U. after   13 cycles
 SCF Done:  E(RB3LYP) =  -363.927851282     A.U. after   12 cycles
 SCF Done:  E(RB3LYP) =  -363.928092195     A.U. after   12 cycles
 SCF Done:  E(RB3LYP) =  -363.928192929     A.U. after   11 cycles
 SCF Done:  E(RB3LYP) =  -363.928230968     A.U. after   11 cycles
 SCF Done:  E(RB3LYP) =  -363.928262508     A.U. after   11 cycles
 SCF Done:  E(RB3LYP) =  -363.928277105     A.U. after   10 cycles
 SCF Done:  E(RB3LYP) =  -363.928287833     A.U. after   11 cycles
 SCF Done:  E(RB3LYP) =  -363.928290515     A.U. after    9 cycles
 SCF Done:  E(RB3LYP) =  -363.928290791     A.U. after    8 cycles
 Optimization completed.
    -- Stationary point found.
 Normal termination of Gaussian 16 at Thu Aug  4 03:07:11 2022.

 ----------------------------------------------------------------------
 #N Geom=AllCheck Guess=TCheck SCRF=Check GenChk RB3LYP/6-31G(2df,p) Fr
 eq
 ----------------------------------------------------------------------

 Structure from the checkpoint file:  "CC1CpOpCdC2NC21.chk"
 -------------------
 Title Card Required
 -------------------
 Charge =  0 Multiplicity = 1

                         Standard orientation:
 ---------------------------------------------------------------------
 Center     Atomic      Atomic             Coordinates (Angstroms)
 Number     Number       Type             X           Y           Z
 ---------------------------------------------------------------------
      1          6           0       -2.301314    0.370460    0.150979
      2          6           0       -0.816389    0.348366    0.538607
      3          6           0       -0.141417   -1.023187    0.315669
      4          8           0       -0.392326   -1.474352   -1.022253
      5          6           0        1.335926   -0.872362    0.626240
      6          6           0        2.043044    0.211693    0.238471
      7          7           0        1.218578    1.185866   -0.426210
      8          6           0       -0.043525    1.397957   -0.185476
      9          1           0       -2.865023   -0.325609    0.777838
     10          1           0       -2.423283    0.064875   -0.890394
     11          1           0       -2.732852    1.368367    0.282550
     12          1           0       -0.722610    0.566501    1.617766
     13          1           0       -0.612922   -1.738988    1.000633
     14          1           0        0.469550   -1.576704   -1.437626
     15          1           0        1.818352   -1.650150    1.210264
     16          1           0        1.715123    1.853358   -1.004362
     17          1           0       -0.495726    2.334548   -0.502107
 ---------------------------------------------------------------------

 SCF Done:  E(RB3LYP) =  -363.928290791     A.U. after    1 cycles

 The electronic state is 1-A.
 Alpha  occ. eigenvalues --  -19.12629 -14.41265 -10.25583 -10.22820 -10.20679
 Alpha  occ. eigenvalues --  -10.18694 -10.15765 -10.15440  -1.01023  -0.98240
 Alpha  occ. eigenvalues --   -0.80804  -0.75269  -0.69237  -0.64248  -0.60729
 Alpha  occ. eigenvalues --   -0.56181  -0.52355  -0.47898  -0.47365  -0.44027
 Alpha  occ. eigenvalues --   -0.42498  -0.40509  -0.39108  -0.37653  -0.35955
 Alpha  occ. eigenvalues --   -0.34811  -0.32557  -0.26259  -0.22250  -0.18005
 Alpha virt. eigenvalues --   -0.06246   0.05324   0.07082   0.09716   0.11133
 Alpha virt. eigenvalues --    0.12893   0.14571   0.14687   0.16719   0.17533
 Alpha virt. eigenvalues --    0.19197   0.20029   0.22306   0.23979   0.25035

 Mulliken charges:
               1
     1  C   -0.415895
     2  C   -0.046945
     3  C    0.096227
     4  O   -0.450148
     5  C   -0.179181
     6  C   -0.223190
     7  N   -0.150267
     8  C    0.029125
     9  H    0.126342
    10  H    0.149350
    11  H    0.109858
    12  H    0.109941
    13  H    0.071540
    14  H    0.281749
    15  H    0.085392
    16  H    0.276524
    17  H    0.129577
 Sum of Mulliken charges =  -0.00000

 Dipole moment (field-independent basis, Debye):
    X=             -2.1417    Y=              2.6221    Z=             -0.7787  Tot=              3.4740
 Quadrupole moment (field-independent basis, Debye-Ang):
   XX=            -56.1037   YY=            -42.5988   ZZ=            -46.2449
   XY=             -1.1130   XZ=             -5.6643   YZ=             -3.9857

  Exact polarizability:  94.137  -8.045  77.850   0.783  -9.054  57.556
 Approx polarizability: 166.319 -21.913 130.289   6.066 -19.873  95.324

                      1                      2                      3
                      A                      A                      A
 Frequencies --    128.3688               172.5947               205.2561
 Red. masses --      4.0764                 2.4929                 1.6656
 Frc consts  --      0.0396                 0.0438                 0.0413
 IR Inten    --      9.4697                24.8041                24.9800

                      4                      5                      6
                      A                      A                      A
 Frequencies --    229.1167               267.4606               327.2480
 Red. masses --      1.1395                 1.9697                 2.6035
 Frc consts  --      0.0352                 0.0830                 0.1643
 IR Inten    --      0.2235                10.5113                14.7211

                      7                      8                      9
                      A                      A                      A
 Frequencies --    378.2435               475.3396               527.9437
 Red. masses --      3.2700                 3.0142                 4.1332
 Frc consts  --      0.2756                 0.4013                 0.6788
 IR Inten    --     55.2818                 8.2030                 8.2557

                     10                     11                     12
                      A                      A                      A
 Frequencies --    590.8884               663.4550               727.5655
 Red. masses --      2.9622                 5.7184                 2.3613
 Frc consts  --      0.6094                 1.4830                 0.7364
 IR Inten    --     13.0651                12.3457                78.7850

                     13                     14                     15
                      A                      A                      A
 Frequencies --    771.1753               802.7885               851.2456
 Red. masses --      2.2751                 3.1142                 1.4984
 Frc consts  --      0.7972                 1.1825                 0.6397
 IR Inten    --     24.3392                18.9752                14.5131

                     16                     17                     18
                      A                      A                      A
 Frequencies --    897.6377               946.5665               967.7288
 Red. masses --      2.3802                 1.4483                 2.6541
 Frc consts  --      1.1300                 0.7646                 1.4644
 IR Inten    --     28.2045                 5.0094                 1.8870

                     19                     20                     21
                      A                      A                      A
 Frequencies --    973.7383               994.3031              1065.7801
 Red. masses --      1.8404                 1.8201                 2.5948
 Frc consts  --      1.0282                 1.0602                 1.7366
 IR Inten    --     52.5610                33.8611                34.0292

                     22                     23                     24
                      A                      A                      A
 Frequencies --   1109.5050              1145.8676              1228.5175
 Red. masses --      2.7720                 1.5674                 1.3219
 Frc consts  --      2.0105                 1.2125                 1.1755
 IR Inten    --      3.0477                50.5099                10.6687

                     25                     26                     27
                      A                      A                      A
 Frequencies --   1255.8944              1273.1508              1293.6991
 Red. masses --      1.2113                 1.3294                 1.3095
 Frc consts  --      1.1257                 1.2696                 1.2913
 IR Inten    --      2.0326                 0.9725                 6.8448

                     28                     29                     30
                      A                      A                      A
 Frequencies --   1310.2260              1369.1158              1386.9334
 Red. masses --      1.5783                 1.5077                 1.2068
 Frc consts  --      1.5964                 1.6651                 1.3677
 IR Inten    --     16.0903                 5.8456                45.5758

                     31                     32                     33
                      A                      A                      A
 Frequencies --   1402.6292              1477.2927              1494.5348
 Red. masses --      1.2189                 1.3963                 1.1134
 Frc consts  --      1.4129                 1.7954                 1.4652
 IR Inten    --      2.5001                 3.0328                 2.4081

                     34                     35                     36
                      A                      A                      A
 Frequencies --   1507.2022              1552.8726              1594.3239
 Red. masses --      1.0729                 4.4950                 5.9858
 Frc consts  --      1.4360                 6.3863                 8.9645
 IR Inten    --      6.0005                10.9338                 4.4691

                     37                     38                     39
                      A                      A                      A
 Frequencies --   2952.0183              3018.3731              3041.1053
 Red. masses --      1.0786                 1.0853                 1.0374
 Frc consts  --      5.5377                 5.8256                 5.6529
 IR Inten    --      9.9794                44.2004                32.3057

                     40                     41                     42
                      A                      A                      A
 Frequencies --   3109.1132              3135.6202              3157.2587
 Red. masses --      1.0996                 1.1015                 1.0904
 Frc consts  --      6.2629                 6.3806                 6.4039
 IR Inten    --     17.7549                 9.7620                 6.4648

                     43                     44                     45
                      A                      A                      A
 Frequencies --   3165.7570              3558.0411              3819.7936
 Red. masses --      1.0892                 1.0769                 1.0664
 Frc consts  --      6.4316                 8.0326                 9.1678
 IR Inten    --     25.6402                34.2200                21.4378

 - Thermochemistry -
 -------------------
 Temperature   298.150 Kelvin.  Pressure   1.00000 Atm.
 Atom     1 has atomic number  6 and mass  12.00000

 Molecular mass:   111.06841 amu.
 Principal axes and moments of inertia in atomic units:
                           1         2         3
     Eigenvalues --   580.32459 841.757661137.94372
           X            0.99827  -0.05672  -0.01563
           Y            0.05604   0.99759  -0.04096
           Z            0.01791   0.04001   0.99904
 This molecule is an asymmetric top.
 Rotational symmetry number  1.
 Warning -- assumption of classical behavior for rotation
           may cause significant error
 Rotational temperatures (Kelvin)      0.14925     0.10290     0.07611
 Rotational constants (GHZ):           3.10988     2.14402     1.58597
 Zero-point vibrational energy     372776.1 (Joules/Mol)
                                   89.09562 (Kcal/Mol)
 Warning -- explicit consideration of  10 degrees of freedom as
           vibrations may cause significant error
 Vibrational temperatures:    184.69   248.33   295.32   329.65   384.82
          (Kelvin)            470.84   544.21   683.91   759.59   850.16
                              954.56  1046.80  1109.55  1155.03  1224.75
                             1291.50  1361.90  1392.35  1400.99  1430.58
                             1533.42  1596.33  1648.65  1767.56  1806.95
                             1831.78  1861.34  1885.12  1969.85  1995.49
                             2018.07  2125.49  2150.30  2168.53  2234.24
                             2293.88  4247.30  4342.77  4375.47  4473.32
                             4511.46  4542.59  4554.82  5119.23  5495.83

 Zero-point correction=                           0.141983 (Hartree/Particle)
 Thermal correction to Energy=                    0.149826
 Thermal correction to Enthalpy=                  0.150771
 Thermal correction to Gibbs Free Energy=         0.110314
 Sum of electronic and zero-point Energies=           -363.786308
 Sum of electronic and thermal Energies=              -363.778464
 Sum of electronic and thermal Enthalpies=            -363.777520
 Sum of electronic and thermal Free Energies=         -363.817977

                     E (Thermal)             CV                S
                      KCal/Mol        Cal/Mol-Kelvin    Cal/Mol-Kelvin
 Total                   94.018             29.867             85.148
 Electronic               0.000              0.000              0.000
 Translational            0.889              2.981             40.031
 Rotational               0.889              2.981             27.810
 Vibrational             92.240             23.905             17.307
 Vibration     1          0.611              1.925              2.970
 Vibration     2          0.626              1.876              2.407
 Vibration     3          0.640              1.832              2.085
 Vibration     4          0.652              1.797              1.886
 Vibration     5          0.673              1.733              1.613
 Vibration     6          0.711              1.621              1.274
 Vibration     7          0.749              1.517              1.046
 Vibration     8          0.832              1.305              0.723
 Vibration     9          0.883              1.188              0.592
 Vibration    10          0.948              1.051              0.466

 Optimization completed.
    -- Stationary point found.
 Normal termination of Gaussian 16 at Thu Aug  4 03:30:56 2022.
