 Gaussian 16, Revision A.03,
 Gaussian 16:  ES64L-G16RevA.03 25-Dec-2016

 -----------------------------
 # opt freq b3lyp/6-31g(2df,p)
 -----------------------------

 -------------------
 Title Card Required
 -------------------
 Symbolic Z-matrix:
 Charge =  0 Multiplicity = 1

 SCF Done:  E(RB3LYP) =  -343.998533718     A.U. after   14 cycles
 SCF Done:  E(RB3LYP) =  -344.048296549     A.U. after   14 cycles
 SCF Done:  E(RB3LYP) =  -344.071986778     A.U. after   13 cycles
 SCF Done:  E(RB3LYP) =  -344.077964878     A.U. after   12 cycles
 SCF Done:  E(RB3LYP) =  -344.081999561     A.U. after   12 cycles
 SCF Done:  E(RB3LYP) =  -344.082925435     A.U. after   11 cycles
 SCF Done:  E(RB3LYP) =  -344.083332047     A.U. after   11 cycles
 SCF Done:  E(RB3LYP) =  -344.083489055     A.U. after   11 cycles
 SCF Done:  E(RB3LYP) =  -344.083508150     A.U. after   10 cycles
 SCF Done:  E(RB3LYP) =  -344.083517171     A.U. after    9 cycles
 SCF Done:  E(RB3LYP) =  -344.083520318     A.U. after    8 cycles
 SCF Done:  E(RB3LYP) =  -344.083522170     A.U. after    8 cycles
 SCF Done:  E(RB3LYP) =  -344.083522563     A.U. after    8 cycles
 SCF Done:  E(RB3LYP) =  -344.083522618     A.U. after    7 cycles
 Optimization completed.
    -- Stationary point found.
 Normal termination of Gaussian 16 at Sun Jul  3 21:08:08 2022.

 ----------------------------------------------------------------------
 #N Geom=AllCheck Guess=TCheck SCRF=Check GenChk RB3LYP/6-31G(2df,p) Fr
 eq
 ----------------------------------------------------------------------

 Structure from the checkpoint file:  "CC1CNC2dCNC21.chk"
 -------------------
 Title Card Required
 -------------------
 Charge =  0 Multiplicity = 1

                         Standard orientation:
 ---------------------------------------------------------------------
 Center     Atomic      Atomic             Coordinates (Angstroms)
 Number     Number       Type             X           Y           Z
 ---------------------------------------------------------------------
      1          6           0       -2.266011   -0.849734   -0.263881
      2          6           0       -0.977914   -0.431145    0.453150
      3          6           0       -0.878597    1.140924    0.628676
      4          7           0        0.094074    1.690777   -0.363254
      5          6           0        0.943400    0.564709   -0.536512
      6          6           0        2.049498    0.101286    0.094147
      7          7           0        1.545462   -1.211442    0.337083
      8          6           0        0.279849   -0.790111   -0.371178
      9          1           0       -3.151413   -0.549895    0.306295
     10          1           0       -2.310448   -1.934339   -0.408358
     11          1           0       -2.336909   -0.381451   -1.253420
     12          1           0       -0.934329   -0.909379    1.435468
     13          1           0       -0.491750    1.371422    1.626000
     14          1           0       -1.850789    1.633519    0.523236
     15          1           0       -0.396451    1.898922   -1.229466
     16          1           0        2.978894    0.505891    0.477175
     17          1           0        2.047607   -2.000487   -0.069577
     18          1           0        0.067493   -1.405123   -1.250572
 ---------------------------------------------------------------------

 SCF Done:  E(RB3LYP) =  -344.083522618     A.U. after    1 cycles

 The electronic state is 1-A.
 Alpha  occ. eigenvalues --  -14.33106 -14.31642 -10.20477 -10.20461 -10.20267
 Alpha  occ. eigenvalues --  -10.18725 -10.18436 -10.17766  -0.95452  -0.89254
 Alpha  occ. eigenvalues --   -0.77555  -0.69919  -0.66847  -0.65249  -0.56441
 Alpha  occ. eigenvalues --   -0.52387  -0.50691  -0.47697  -0.46864  -0.41262
 Alpha  occ. eigenvalues --   -0.40413  -0.39881  -0.38831  -0.38056  -0.33928
 Alpha  occ. eigenvalues --   -0.33035  -0.31183  -0.27492  -0.23140  -0.20205
 Alpha virt. eigenvalues --    0.01222   0.08198   0.08795   0.11413   0.13252
 Alpha virt. eigenvalues --    0.14314   0.14850   0.15487   0.16228   0.17893
 Alpha virt. eigenvalues --    0.18865   0.20256   0.20795   0.21483   0.23803

 Mulliken charges:
               1
     1  C   -0.400288
     2  C    0.013766
     3  C   -0.182154
     4  N   -0.344598
     5  C    0.073559
     6  C   -0.076325
     7  N   -0.323377
     8  C   -0.025092
     9  H    0.114586
    10  H    0.115552
    11  H    0.110969
    12  H    0.089207
    13  H    0.115019
    14  H    0.094316
    15  H    0.221114
    16  H    0.113517
    17  H    0.219892
    18  H    0.070336
 Sum of Mulliken charges =  -0.00000

 Dipole moment (field-independent basis, Debye):
    X=             -0.7148    Y=             -1.2008    Z=             -0.7386  Tot=              1.5806
 Quadrupole moment (field-independent basis, Debye-Ang):
   XX=            -44.8442   YY=            -49.6233   ZZ=            -48.3436
   XY=             -2.9166   XZ=              0.1028   YZ=              1.0071

  Exact polarizability:  87.768  -4.188  73.671   4.509  -0.977  59.018
 Approx polarizability: 123.781 -11.440 115.154  13.154 -10.457  98.890

                      1                      2                      3
                      A                      A                      A
 Frequencies --     67.2796               204.7919               248.5170
 Red. masses --      2.6155                 2.4353                 1.0980
 Frc consts  --      0.0070                 0.0602                 0.0400
 IR Inten    --      3.3763                 4.8953                 0.6052

                      4                      5                      6
                      A                      A                      A
 Frequencies --    311.9021               329.0670               400.2026
 Red. masses --      2.5511                 2.8913                 2.2043
 Frc consts  --      0.1462                 0.1845                 0.2080
 IR Inten    --      5.4935                 2.2126                 3.3248

                      7                      8                      9
                      A                      A                      A
 Frequencies --    473.5881               659.7199               681.4027
 Red. masses --      2.7419                 3.8612                 4.6911
 Frc consts  --      0.3623                 0.9901                 1.2833
 IR Inten    --     14.3770                22.3078                30.0640

                     10                     11                     12
                      A                      A                      A
 Frequencies --    757.0062               780.7290               811.8769
 Red. masses --      3.1411                 2.2695                 1.6031
 Frc consts  --      1.0606                 0.8151                 0.6226
 IR Inten    --     37.8178                44.1595                35.3983

                     13                     14                     15
                      A                      A                      A
 Frequencies --    824.5939               856.7386               877.5700
 Red. masses --      2.0827                 1.5855                 2.3142
 Frc consts  --      0.8344                 0.6857                 1.0501
 IR Inten    --     38.5144                69.3180                49.0950

                     16                     17                     18
                      A                      A                      A
 Frequencies --    947.1999               963.9337               979.1384
 Red. masses --      2.2457                 1.8885                 1.8426
 Frc consts  --      1.1871                 1.0338                 1.0408
 IR Inten    --      8.3053                22.7808                12.8365

                     19                     20                     21
                      A                      A                      A
 Frequencies --   1019.5416              1043.4756              1085.7136
 Red. masses --      2.3092                 1.9795                 2.0106
 Frc consts  --      1.4142                 1.2699                 1.3964
 IR Inten    --      8.5963                 2.5466                 4.5766

                     22                     23                     24
                      A                      A                      A
 Frequencies --   1113.0938              1130.7150              1147.8438
 Red. masses --      1.9809                 1.5387                 2.2921
 Frc consts  --      1.4460                 1.1591                 1.7793
 IR Inten    --      6.7689                 0.5936                24.7449

                     25                     26                     27
                      A                      A                      A
 Frequencies --   1178.7131              1223.7573              1269.2427
 Red. masses --      2.4913                 1.2387                 1.5584
 Frc consts  --      2.0393                 1.0930                 1.4792
 IR Inten    --     16.7765                 1.7626                 0.9306

                     28                     29                     30
                      A                      A                      A
 Frequencies --   1275.9319              1299.8476              1335.1453
 Red. masses --      1.3846                 1.4576                 1.4593
 Frc consts  --      1.3281                 1.4510                 1.5327
 IR Inten    --      3.8773                19.1305                 3.3825

                     31                     32                     33
                      A                      A                      A
 Frequencies --   1348.9576              1375.5595              1409.6717
 Red. masses --      1.3036                 1.5823                 1.2200
 Frc consts  --      1.3976                 1.7640                 1.4284
 IR Inten    --      3.1177                 5.9993                 2.0272

                     34                     35                     36
                      A                      A                      A
 Frequencies --   1418.1968              1490.4208              1498.2983
 Red. masses --      1.1990                 1.0836                 1.0538
 Frc consts  --      1.4209                 1.4181                 1.3938
 IR Inten    --      9.0805                 1.7592                 1.8250

                     37                     38                     39
                      A                      A                      A
 Frequencies --   1499.7697              1647.9928              3021.1470
 Red. masses --      1.0468                 6.1481                 1.0365
 Frc consts  --      1.3873                 9.8379                 5.5738
 IR Inten    --      4.7476                 8.5441                22.6781

                     40                     41                     42
                      A                      A                      A
 Frequencies --   3041.2224              3063.4890              3066.0901
 Red. masses --      1.0589                 1.0860                 1.0873
 Frc consts  --      5.7705                 6.0048                 6.0225
 IR Inten    --     45.1983                31.9907                 2.2788

                     43                     44                     45
                      A                      A                      A
 Frequencies --   3087.0278              3093.2387              3098.6312
 Red. masses --      1.1038                 1.1004                 1.1021
 Frc consts  --      6.1978                 6.2034                 6.2346
 IR Inten    --     25.5508                47.3316                32.0088

                     46                     47                     48
                      A                      A                      A
 Frequencies --   3202.5922              3441.3814              3479.0559
 Red. masses --      1.0994                 1.0753                 1.0736
 Frc consts  --      6.6434                 7.5030                 7.6564
 IR Inten    --     17.0666                 6.7132                 1.1397

 - Thermochemistry -
 -------------------
 Temperature   298.150 Kelvin.  Pressure   1.00000 Atm.
 Atom     1 has atomic number  6 and mass  12.00000

 Molecular mass:   110.08440 amu.
 Principal axes and moments of inertia in atomic units:
                           1         2         3
     Eigenvalues --   517.58650 868.516861194.67450
           X            0.99993   0.00881   0.00783
           Y           -0.00904   0.99953   0.02923
           Z           -0.00757  -0.02930   0.99954
 This molecule is an asymmetric top.
 Rotational symmetry number  1.
 Warning -- assumption of classical behavior for rotation
           may cause significant error
 Rotational temperatures (Kelvin)      0.16734     0.09973     0.07250
 Rotational constants (GHZ):           3.48684     2.07796     1.51066
 Zero-point vibrational energy     410205.6 (Joules/Mol)
                                   98.04149 (Kcal/Mol)
 Warning -- explicit consideration of   7 degrees of freedom as
           vibrations may cause significant error
 Vibrational temperatures:     96.80   294.65   357.56   448.76   473.45
          (Kelvin)            575.80   681.39   949.19   980.39  1089.16
                             1123.29  1168.11  1186.41  1232.66  1262.63
                             1362.81  1386.89  1408.76  1466.89  1501.33
                             1562.10  1601.49  1626.85  1651.49  1695.91
                             1760.71  1826.16  1835.78  1870.19  1920.98
                             1940.85  1979.12  2028.20  2040.47  2144.38
                             2155.72  2157.83  2371.09  4346.76  4375.64
                             4407.68  4411.42  4441.54  4450.48  4458.24
                             4607.82  4951.38  5005.59

 Zero-point correction=                           0.156239 (Hartree/Particle)
 Thermal correction to Energy=                    0.163366
 Thermal correction to Enthalpy=                  0.164310
 Thermal correction to Gibbs Free Energy=         0.124853
 Sum of electronic and zero-point Energies=           -343.927284
 Sum of electronic and thermal Energies=              -343.920157
 Sum of electronic and thermal Enthalpies=            -343.919213
 Sum of electronic and thermal Free Energies=         -343.958669

                     E (Thermal)             CV                S
                      KCal/Mol        Cal/Mol-Kelvin    Cal/Mol-Kelvin
 Total                  102.514             27.825             83.043
 Electronic               0.000              0.000              0.000
 Translational            0.889              2.981             40.004
 Rotational               0.889              2.981             27.776
 Vibrational            100.736             21.864             15.263
 Vibration     1          0.598              1.970              4.231
 Vibration     2          0.640              1.833              2.090
 Vibration     3          0.662              1.765              1.741
 Vibration     4          0.700              1.651              1.352
 Vibration     5          0.712              1.617              1.265
 Vibration     6          0.766              1.470              0.962
 Vibration     7          0.830              1.309              0.728

 Optimization completed.
    -- Stationary point found.
 Normal termination of Gaussian 16 at Sun Jul  3 21:32:52 2022.
