 Gaussian 16, Revision A.03,
 Gaussian 16:  ES64L-G16RevA.03 25-Dec-2016

 -----------------------------
 # opt freq b3lyp/6-31g(2df,p)
 -----------------------------

 -------------------
 Title Card Required
 -------------------
 Symbolic Z-matrix:
 Charge =  0 Multiplicity = 1

 SCF Done:  E(RB3LYP) =  -345.259420348     A.U. after   12 cycles
 SCF Done:  E(RB3LYP) =  -345.271144126     A.U. after   11 cycles
 SCF Done:  E(RB3LYP) =  -345.273449272     A.U. after   12 cycles
 SCF Done:  E(RB3LYP) =  -345.275361142     A.U. after   11 cycles
 SCF Done:  E(RB3LYP) =  -345.276773134     A.U. after   11 cycles
 SCF Done:  E(RB3LYP) =  -345.277066267     A.U. after   10 cycles
 SCF Done:  E(RB3LYP) =  -345.277207283     A.U. after   10 cycles
 SCF Done:  E(RB3LYP) =  -345.277235896     A.U. after    9 cycles
 SCF Done:  E(RB3LYP) =  -345.277246676     A.U. after    9 cycles
 SCF Done:  E(RB3LYP) =  -345.277249907     A.U. after    8 cycles
 SCF Done:  E(RB3LYP) =  -345.277250420     A.U. after    7 cycles
 SCF Done:  E(RB3LYP) =  -345.277250514     A.U. after    6 cycles
 Optimization completed.
    -- Stationary point found.
 Normal termination of Gaussian 16 at Sun Jul  3 18:37:17 2022.

 ----------------------------------------------------------------------
 #N Geom=AllCheck Guess=TCheck SCRF=Check GenChk RB3LYP/6-31G(2df,p) Fr
 eq
 ----------------------------------------------------------------------

 Structure from the checkpoint file:  "CC1CC1CN1CN1.chk"
 -------------------
 Title Card Required
 -------------------
 Charge =  0 Multiplicity = 1

                         Standard orientation:
 ---------------------------------------------------------------------
 Center     Atomic      Atomic             Coordinates (Angstroms)
 Number     Number       Type             X           Y           Z
 ---------------------------------------------------------------------
      1          6           0        2.226413    1.421850    0.086308
      2          6           0        1.533726    0.179093   -0.427562
      3          6           0        1.890526   -1.177479    0.115022
      4          6           0        0.540463   -0.573915    0.437757
      5          6           0       -0.695639   -1.221480   -0.159113
      6          7           0       -1.931889   -0.436209   -0.316262
      7          6           0       -2.239791    0.548135    0.679344
      8          7           0       -1.776041    1.013255   -0.623976
      9          1           0        3.179176    1.585478   -0.428794
     10          1           0        2.439827    1.338256    1.157343
     11          1           0        1.612561    2.318212   -0.060667
     12          1           0        1.292927    0.202547   -1.488435
     13          1           0        2.623057   -1.230178    0.913654
     14          1           0        1.918662   -2.018877   -0.569930
     15          1           0        0.440810   -0.214813    1.459067
     16          1           0       -0.982880   -2.095081    0.440041
     17          1           0       -0.444549   -1.598202   -1.158453
     18          1           0       -1.577383    0.674412    1.534130
     19          1           0       -3.295339    0.697104    0.896373
     20          1           0       -0.785549    1.244601   -0.503193
 ---------------------------------------------------------------------

 SCF Done:  E(RB3LYP) =  -345.277250514     A.U. after    1 cycles

 The electronic state is 1-A.
 Alpha  occ. eigenvalues --  -14.34908 -14.34325 -10.23070 -10.21447 -10.20106
 Alpha  occ. eigenvalues --  -10.19887 -10.19210 -10.18653  -1.01995  -0.87275
 Alpha  occ. eigenvalues --   -0.77589  -0.71780  -0.67106  -0.62772  -0.58642
 Alpha  occ. eigenvalues --   -0.57039  -0.52410  -0.48395  -0.46791  -0.43923
 Alpha  occ. eigenvalues --   -0.42572  -0.41460  -0.39674  -0.37862  -0.36062
 Alpha  occ. eigenvalues --   -0.35765  -0.34324  -0.29880  -0.28431  -0.28167
 Alpha  occ. eigenvalues --   -0.22045
 Alpha virt. eigenvalues --    0.07515   0.08639   0.10203   0.10582   0.10712
 Alpha virt. eigenvalues --    0.12864   0.13358   0.14219   0.15573   0.16107
 Alpha virt. eigenvalues --    0.16404   0.17337   0.17763   0.20570   0.21199

 Mulliken charges:
               1
     1  C   -0.413474
     2  C    0.027852
     3  C   -0.316583
     4  C   -0.036726
     5  C   -0.158277
     6  N   -0.095910
     7  C   -0.170733
     8  N   -0.303269
     9  H    0.123790
    10  H    0.115976
    11  H    0.120219
    12  H    0.095533
    13  H    0.112699
    14  H    0.115094
    15  H    0.087179
    16  H    0.115412
    17  H    0.110228
    18  H    0.108907
    19  H    0.123328
    20  H    0.238754
 Sum of Mulliken charges =   0.00000

 Dipole moment (field-independent basis, Debye):
    X=              2.4085    Y=             -0.2595    Z=              1.8586  Tot=              3.0533
 Quadrupole moment (field-independent basis, Debye-Ang):
   XX=            -54.4691   YY=            -50.0916   ZZ=            -49.6663
   XY=              0.6474   XZ=             -4.9780   YZ=              1.6050

  Exact polarizability:  85.683  -1.856  75.705  -3.357   0.729  65.526
 Approx polarizability: 110.499  -2.221 112.391  -4.658  -1.200 105.190

                      1                      2                      3
                      A                      A                      A
 Frequencies --     58.4404               107.6699               153.0584
 Red. masses --      3.0169                 3.7831                 2.2358
 Frc consts  --      0.0061                 0.0258                 0.0309
 IR Inten    --      2.4253                 2.4555                 2.1121

                      4                      5                      6
                      A                      A                      A
 Frequencies --    213.7726               267.9219               286.5307
 Red. masses --      1.1156                 2.7322                 2.6289
 Frc consts  --      0.0300                 0.1156                 0.1272
 IR Inten    --      0.0964                 1.5904                 1.3331

                      7                      8                      9
                      A                      A                      A
 Frequencies --    365.6337               394.0560               398.9243
 Red. masses --      2.6607                 2.2670                 2.1967
 Frc consts  --      0.2096                 0.2074                 0.2060
 IR Inten    --      0.5250                 3.0966                 0.4603

                     10                     11                     12
                      A                      A                      A
 Frequencies --    554.4557               717.6206               777.7908
 Red. masses --      2.8751                 5.6359                 2.5063
 Frc consts  --      0.5208                 1.7100                 0.8933
 IR Inten    --      4.4971                 6.6132                 1.7691

                     13                     14                     15
                      A                      A                      A
 Frequencies --    822.5384               825.1850               878.7243
 Red. masses --      2.9055                 2.5730                 1.3526
 Frc consts  --      1.1582                 1.0323                 0.6154
 IR Inten    --      5.9556                 9.6264                 0.3625

                     16                     17                     18
                      A                      A                      A
 Frequencies --    885.3040               962.6439               972.8088
 Red. masses --      1.6124                 1.4169                 1.2511
 Frc consts  --      0.7446                 0.7736                 0.6976
 IR Inten    --      9.7927                 0.7731                14.1937

                     19                     20                     21
                      A                      A                      A
 Frequencies --    999.3104              1021.0852              1058.4924
 Red. masses --      3.0227                 1.9031                 1.3205
 Frc consts  --      1.7785                 1.1691                 0.8717
 IR Inten    --     22.2506                 1.4122                 4.9044

                     22                     23                     24
                      A                      A                      A
 Frequencies --   1076.8099              1092.0312              1113.6805
 Red. masses --      1.6502                 1.8610                 1.3688
 Frc consts  --      1.1274                 1.3076                 1.0002
 IR Inten    --     25.0308                 3.5415                 3.8332

                     25                     26                     27
                      A                      A                      A
 Frequencies --   1140.8811              1169.0731              1172.8815
 Red. masses --      1.3208                 1.3994                 1.4765
 Frc consts  --      1.0129                 1.1268                 1.1967
 IR Inten    --      0.0184                 3.2615                 1.2390

                     28                     29                     30
                      A                      A                      A
 Frequencies --   1198.1745              1233.2073              1254.4310
 Red. masses --      1.6937                 1.6764                 1.4784
 Frc consts  --      1.4326                 1.5021                 1.3706
 IR Inten    --      0.9268                 1.0227                23.1039

                     31                     32                     33
                      A                      A                      A
 Frequencies --   1279.2989              1308.6462              1337.0138
 Red. masses --      1.4640                 2.3647                 1.2991
 Frc consts  --      1.4116                 2.3860                 1.3683
 IR Inten    --      4.7800                24.9748                 3.6517

                     34                     35                     36
                      A                      A                      A
 Frequencies --   1366.2828              1383.1427              1418.1928
 Red. masses --      1.2855                 1.2945                 1.2273
 Frc consts  --      1.4138                 1.4591                 1.4544
 IR Inten    --     13.5611                 7.2972                 3.4106

                     37                     38                     39
                      A                      A                      A
 Frequencies --   1438.3491              1476.4845              1491.6306
 Red. masses --      1.6058                 1.0900                 1.0523
 Frc consts  --      1.9573                 1.4000                 1.3795
 IR Inten    --      6.5782                 3.0817                 1.4292

                     40                     41                     42
                      A                      A                      A
 Frequencies --   1494.2283              1504.3487              1524.7027
 Red. masses --      1.2119                 1.1936                 1.1522
 Frc consts  --      1.5942                 1.5916                 1.5782
 IR Inten    --      4.9092                 3.3789                 1.1536

                     43                     44                     45
                      A                      A                      A
 Frequencies --   3021.2060              3023.9074              3057.6522
 Red. masses --      1.0587                 1.0358                 1.1038
 Frc consts  --      5.6935                 5.5806                 6.0800
 IR Inten    --     39.4247                24.6068                19.2742

                     46                     47                     48
                      A                      A                      A
 Frequencies --   3085.1226              3090.6268              3093.9471
 Red. masses --      1.1003                 1.0501                 1.0997
 Frc consts  --      6.1703                 5.9099                 6.2023
 IR Inten    --     25.0741                23.9904                16.7157

                     49                     50                     51
                      A                      A                      A
 Frequencies --   3125.6358              3129.3332              3136.7531
 Red. masses --      1.0615                 1.0821                 1.0865
 Frc consts  --      6.1103                 6.2435                 6.2987
 IR Inten    --     19.3177                 5.9318                27.2136

                     52                     53                     54
                      A                      A                      A
 Frequencies --   3175.3375              3211.0672              3407.9137
 Red. masses --      1.1189                 1.1162                 1.0739
 Frc consts  --      6.6472                 6.7810                 7.3486
 IR Inten    --     25.5319                10.7768                 4.8729

 - Thermochemistry -
 -------------------
 Temperature   298.150 Kelvin.  Pressure   1.00000 Atm.
 Atom     1 has atomic number  6 and mass  12.00000

 Molecular mass:   112.10005 amu.
 Principal axes and moments of inertia in atomic units:
                           1         2         3
     Eigenvalues --   493.285541329.236531612.72749
           X            0.99982   0.01561  -0.01044
           Y           -0.01534   0.99954   0.02604
           Z            0.01084  -0.02588   0.99961
 This molecule is an asymmetric top.
 Rotational symmetry number  1.
 Warning -- assumption of classical behavior for rotation
           may cause significant error
 Rotational temperatures (Kelvin)      0.17559     0.06516     0.05371
 Rotational constants (GHZ):           3.65861     1.35773     1.11906
 Zero-point vibrational energy     465072.0 (Joules/Mol)
                                  111.15487 (Kcal/Mol)
 Warning -- explicit consideration of  10 degrees of freedom as
           vibrations may cause significant error
 Vibrational temperatures:     84.08   154.91   220.22   307.57   385.48
          (Kelvin)            412.25   526.07   566.96   573.96   797.74
                             1032.50  1119.07  1183.45  1187.26  1264.29
                             1273.76  1385.03  1399.65  1437.78  1469.11
                             1522.93  1549.29  1571.19  1602.34  1641.47
                             1682.04  1687.51  1723.91  1774.31  1804.85
                             1840.63  1882.85  1923.66  1965.78  1990.03
                             2040.46  2069.46  2124.33  2146.12  2149.86
                             2164.42  2193.71  4346.84  4350.73  4399.28
                             4438.80  4446.72  4451.50  4497.09  4502.41
                             4513.09  4568.60  4620.01  4903.23

 Zero-point correction=                           0.177137 (Hartree/Particle)
 Thermal correction to Energy=                    0.185641
 Thermal correction to Enthalpy=                  0.186585
 Thermal correction to Gibbs Free Energy=         0.143835
 Sum of electronic and zero-point Energies=           -345.100114
 Sum of electronic and thermal Energies=              -345.091609
 Sum of electronic and thermal Enthalpies=            -345.090665
 Sum of electronic and thermal Free Energies=         -345.133416

                     E (Thermal)             CV                S
                      KCal/Mol        Cal/Mol-Kelvin    Cal/Mol-Kelvin
 Total                  116.492             31.643             89.976
 Electronic               0.000              0.000              0.000
 Translational            0.889              2.981             40.058
 Rotational               0.889              2.981             28.449
 Vibrational            114.714             25.681             21.469
 Vibration     1          0.596              1.974              4.509
 Vibration     2          0.606              1.943              3.310
 Vibration     3          0.619              1.899              2.634
 Vibration     4          0.644              1.820              2.011
 Vibration     5          0.673              1.732              1.610
 Vibration     6          0.684              1.699              1.494
 Vibration     7          0.739              1.543              1.098
 Vibration     8          0.761              1.483              0.985
 Vibration     9          0.765              1.472              0.967
 Vibration    10          0.910              1.130              0.535

 Optimization completed.
    -- Stationary point found.
 Normal termination of Gaussian 16 at Sun Jul  3 19:02:26 2022.
