 Gaussian 16, Revision A.03,
 Gaussian 16:  ES64L-G16RevA.03 25-Dec-2016

 -----------------------------
 # opt freq b3lyp/6-31g(2df,p)
 -----------------------------

 -------------------
 Title Card Required
 -------------------
 Symbolic Z-matrix:
 Charge =  0 Multiplicity = 1

 SCF Done:  E(RB3LYP) =  -367.294515757     A.U. after   15 cycles
 SCF Done:  E(RB3LYP) =  -367.320515219     A.U. after   13 cycles
 SCF Done:  E(RB3LYP) =  -367.340470454     A.U. after   12 cycles
 SCF Done:  E(RB3LYP) =  -367.351441330     A.U. after   12 cycles
 SCF Done:  E(RB3LYP) =  -367.358584266     A.U. after   12 cycles
 SCF Done:  E(RB3LYP) =  -367.359651294     A.U. after   10 cycles
 SCF Done:  E(RB3LYP) =  -367.359860885     A.U. after   10 cycles
 SCF Done:  E(RB3LYP) =  -367.359891087     A.U. after    9 cycles
 SCF Done:  E(RB3LYP) =  -367.359900892     A.U. after    8 cycles
 SCF Done:  E(RB3LYP) =  -367.359904636     A.U. after    8 cycles
 SCF Done:  E(RB3LYP) =  -367.359905359     A.U. after    8 cycles
 SCF Done:  E(RB3LYP) =  -367.359905808     A.U. after    8 cycles
 SCF Done:  E(RB3LYP) =  -367.359905953     A.U. after    7 cycles
 SCF Done:  E(RB3LYP) =  -367.359906048     A.U. after    7 cycles
 Optimization completed.
    -- Stationary point found.
 Normal termination of Gaussian 16 at Wed Aug  3 07:40:05 2022.

 ----------------------------------------------------------------------
 #N Geom=AllCheck Guess=TCheck SCRF=Check GenChk RB3LYP/6-31G(2df,p) Fr
 eq
 ----------------------------------------------------------------------

 Structure from the checkpoint file:  "CC1CCdC2NC2C1C.chk"
 -------------------
 Title Card Required
 -------------------
 Charge =  0 Multiplicity = 1

                         Standard orientation:
 ---------------------------------------------------------------------
 Center     Atomic      Atomic             Coordinates (Angstroms)
 Number     Number       Type             X           Y           Z
 ---------------------------------------------------------------------
      1          6           0        2.459502   -0.635571    0.357512
      2          6           0        0.929613   -0.559464    0.440661
      3          6           0        0.244544   -1.542733   -0.566415
      4          6           0       -1.240759   -1.573777   -0.234144
      5          6           0       -1.721058   -0.344667   -0.176912
      6          7           0       -2.408404    0.696923    0.449621
      7          6           0       -1.061387    0.926747   -0.247976
      8          6           0        0.357993    0.917220    0.353155
      9          6           0        1.224814    1.873038   -0.484391
     10          1           0        2.795250   -1.659555    0.551696
     11          1           0        2.941337    0.012732    1.097068
     12          1           0        2.833217   -0.350379   -0.631211
     13          1           0        0.647233   -0.933435    1.433191
     14          1           0        0.694618   -2.535026   -0.462197
     15          1           0        0.433570   -1.219492   -1.598639
     16          1           0       -1.719698   -2.454222    0.178299
     17          1           0       -2.364257    0.624087    1.466169
     18          1           0       -1.205097    1.585660   -1.099746
     19          1           0        0.325770    1.313778    1.376773
     20          1           0        1.309402    1.530718   -1.522156
     21          1           0        2.234925    1.971994   -0.081806
     22          1           0        0.772986    2.869922   -0.503732
 ---------------------------------------------------------------------

 SCF Done:  E(RB3LYP) =  -367.359906048     A.U. after    1 cycles

 The electronic state is 1-A.
 Alpha  occ. eigenvalues --  -14.34364 -10.21086 -10.20461 -10.19734 -10.18852
 Alpha  occ. eigenvalues --  -10.18164 -10.17738 -10.17333 -10.16969  -0.96573
 Alpha  occ. eigenvalues --   -0.81944  -0.76421  -0.72922  -0.66293  -0.65162
 Alpha  occ. eigenvalues --   -0.61563  -0.56604  -0.50963  -0.49840  -0.46445
 Alpha  occ. eigenvalues --   -0.44669  -0.43941  -0.40670  -0.38820  -0.38579
 Alpha  occ. eigenvalues --   -0.37689  -0.37267  -0.36196  -0.33655  -0.31879
 Alpha  occ. eigenvalues --   -0.30982  -0.30138  -0.28021  -0.20803
 Alpha virt. eigenvalues --    0.01934   0.07617   0.09092   0.09993   0.11971
 Alpha virt. eigenvalues --    0.13257   0.14508   0.14717   0.15286   0.16587
 Alpha virt. eigenvalues --    0.17206   0.18251   0.18784   0.19050   0.20470

 Mulliken charges:
               1
     1  C   -0.415600
     2  C    0.049453
     3  C   -0.240637
     4  C   -0.250258
     5  C    0.300382
     6  N   -0.411224
     7  C   -0.087414
     8  C   -0.025669
     9  C   -0.399172
    10  H    0.110257
    11  H    0.111510
    12  H    0.117464
    13  H    0.071240
    14  H    0.095264
    15  H    0.102993
    16  H    0.089547
    17  H    0.242838
    18  H    0.104791
    19  H    0.079502
    20  H    0.120998
    21  H    0.116812
    22  H    0.116924
 Sum of Mulliken charges =  -0.00000

 Dipole moment (field-independent basis, Debye):
    X=              1.6274    Y=             -0.0123    Z=              1.0662  Tot=              1.9456
 Quadrupole moment (field-independent basis, Debye-Ang):
   XX=            -61.4794   YY=            -55.1567   ZZ=            -53.6750
   XY=              1.4445   XZ=             -2.4879   YZ=             -0.6777

  Exact polarizability:  95.331  -2.606  97.513  -3.940  -0.011  70.345
 Approx polarizability: 133.030 -10.487 150.351  -7.626   1.838 112.204

                      1                      2                      3
                      A                      A                      A
 Frequencies --     50.8180               217.7527               254.4928
 Red. masses --      2.9968                 2.4100                 1.3084
 Frc consts  --      0.0046                 0.0673                 0.0499
 IR Inten    --      0.2667                 0.7475                 0.0129

                      4                      5                      6
                      A                      A                      A
 Frequencies --    277.2568               281.1389               314.0515
 Red. masses --      1.9075                 1.1488                 2.2447
 Frc consts  --      0.0864                 0.0535                 0.1304
 IR Inten    --      2.3675                 0.0810                 0.1168

                      7                      8                      9
                      A                      A                      A
 Frequencies --    337.0979               378.9181               380.2215
 Red. masses --      1.9663                 2.7915                 3.1024
 Frc consts  --      0.1316                 0.2361                 0.2643
 IR Inten    --      2.1116                 4.5468                 0.3227

                     10                     11                     12
                      A                      A                      A
 Frequencies --    469.6380               475.1641               568.0689
 Red. masses --      3.0690                 3.6364                 2.8827
 Frc consts  --      0.3988                 0.4837                 0.5481
 IR Inten    --      2.0834                 1.5498                 1.8239

                     13                     14                     15
                      A                      A                      A
 Frequencies --    642.7243               722.0488               751.8469
 Red. masses --      4.2273                 4.4874                 2.5486
 Frc consts  --      1.0289                 1.3784                 0.8488
 IR Inten    --     16.1998                 2.3642                37.0276

                     16                     17                     18
                      A                      A                      A
 Frequencies --    775.9922               862.7683               879.0882
 Red. masses --      1.3324                 2.2331                 1.9536
 Frc consts  --      0.4727                 0.9794                 0.8895
 IR Inten    --     81.8839                16.0597                37.2884

                     19                     20                     21
                      A                      A                      A
 Frequencies --    907.8308               950.6826               974.3937
 Red. masses --      2.0087                 1.5681                 1.7644
 Frc consts  --      0.9754                 0.8350                 0.9870
 IR Inten    --      3.2041                49.5044                 3.3166

                     22                     23                     24
                      A                      A                      A
 Frequencies --   1014.7244              1015.7669              1028.2983
 Red. masses --      2.2520                 1.4458                 2.0754
 Frc consts  --      1.3662                 0.8789                 1.2930
 IR Inten    --      1.4925                 3.4782                 7.9666

                     25                     26                     27
                      A                      A                      A
 Frequencies --   1061.9248              1085.3732              1115.2849
 Red. masses --      1.4206                 2.4369                 1.6649
 Frc consts  --      0.9439                 1.6914                 1.2201
 IR Inten    --     10.6610                 2.6046                 3.7065

                     28                     29                     30
                      A                      A                      A
 Frequencies --   1130.4499              1165.9819              1181.4098
 Red. masses --      1.7985                 1.6545                 1.8606
 Frc consts  --      1.3542                 1.3253                 1.5300
 IR Inten    --      3.2083                 1.9379                 0.6726

                     31                     32                     33
                      A                      A                      A
 Frequencies --   1187.5414              1219.0471              1285.2878
 Red. masses --      1.7943                 1.5558                 1.3866
 Frc consts  --      1.4909                 1.3622                 1.3496
 IR Inten    --      1.3880                 2.0759                 1.2726

                     34                     35                     36
                      A                      A                      A
 Frequencies --   1300.7605              1320.9411              1334.3495
 Red. masses --      1.3611                 1.1878                 1.4340
 Frc consts  --      1.3568                 1.2212                 1.5043
 IR Inten    --      2.8355                 3.9220                 0.2080

                     37                     38                     39
                      A                      A                      A
 Frequencies --   1361.2473              1366.0862              1376.9473
 Red. masses --      1.3820                 1.2746                 1.6762
 Frc consts  --      1.5088                 1.4014                 1.8724
 IR Inten    --      0.3571                 3.7612                 2.0093

                     40                     41                     42
                      A                      A                      A
 Frequencies --   1406.0183              1415.5951              1477.4146
 Red. masses --      1.2507                 1.2160                 1.0855
 Frc consts  --      1.4567                 1.4357                 1.3960
 IR Inten    --      2.3863                 3.2311                 1.5941

                     43                     44                     45
                      A                      A                      A
 Frequencies --   1492.1733              1493.9387              1507.7546
 Red. masses --      1.0463                 1.0506                 1.0434
 Frc consts  --      1.3726                 1.3815                 1.3975
 IR Inten    --      6.1447                 1.6454                 8.8003

                     46                     47                     48
                      A                      A                      A
 Frequencies --   1512.6118              1830.4805              2998.8756
 Red. masses --      1.0489                 9.4404                 1.0823
 Frc consts  --      1.4139                18.6368                 5.7348
 IR Inten    --      0.3107                53.9029                10.9946

                     49                     50                     51
                      A                      A                      A
 Frequencies --   3015.5098              3023.3605              3029.8204
 Red. masses --      1.0738                 1.0759                 1.0361
 Frc consts  --      5.7528                 5.7942                 5.6037
 IR Inten    --      2.0463                59.0880                20.3783

                     52                     53                     54
                      A                      A                      A
 Frequencies --   3035.0762              3077.1632              3094.4873
 Red. masses --      1.0381                 1.0971                 1.1010
 Frc consts  --      5.6339                 6.1206                 6.2117
 IR Inten    --     28.1102                19.9886                15.3996

                     55                     56                     57
                      A                      A                      A
 Frequencies --   3095.6252              3102.2472              3123.8972
 Red. masses --      1.1007                 1.1009                 1.0991
 Frc consts  --      6.2147                 6.2425                 6.3195
 IR Inten    --     40.4055                38.3710                22.8077

                     58                     59                     60
                      A                      A                      A
 Frequencies --   3141.3781              3186.7958              3456.2768
 Red. masses --      1.0884                 1.0923                 1.0756
 Frc consts  --      6.3281                 6.5356                 7.5703
 IR Inten    --     17.9853                16.6640                 1.2477

 - Thermochemistry -
 -------------------
 Temperature   298.150 Kelvin.  Pressure   1.00000 Atm.
 Atom     1 has atomic number  6 and mass  12.00000

 Molecular mass:   123.10480 amu.
 Principal axes and moments of inertia in atomic units:
                           1         2         3
     Eigenvalues --   735.594771163.707651675.83150
           X            0.99991   0.01194  -0.00631
           Y           -0.01203   0.99980  -0.01592
           Z            0.00612   0.01599   0.99985
 This molecule is an asymmetric top.
 Rotational symmetry number  1.
 Warning -- assumption of classical behavior for rotation
           may cause significant error
 Rotational temperatures (Kelvin)      0.11775     0.07443     0.05168
 Rotational constants (GHZ):           2.45344     1.55085     1.07692
 Zero-point vibrational energy     511642.3 (Joules/Mol)
                                  122.28545 (Kcal/Mol)
 Warning -- explicit consideration of  12 degrees of freedom as
           vibrations may cause significant error
 Vibrational temperatures:     73.12   313.30   366.16   398.91   404.50
          (Kelvin)            451.85   485.01   545.18   547.05   675.70
                              683.66   817.32   924.74  1038.87  1081.74
                             1116.48  1241.33  1264.81  1306.17  1367.82
                             1401.94  1459.96  1461.46  1479.49  1527.87
                             1561.61  1604.65  1626.47  1677.59  1699.79
                             1708.61  1753.94  1849.24  1871.50  1900.54
                             1919.83  1958.53  1965.49  1981.12  2022.95
                             2036.73  2125.67  2146.90  2149.44  2169.32
                             2176.31  2633.65  4314.71  4338.65  4349.94
                             4359.24  4366.80  4427.35  4452.28  4453.91
                             4463.44  4494.59  4519.74  4585.09  4972.81

 Zero-point correction=                           0.194874 (Hartree/Particle)
 Thermal correction to Energy=                    0.203617
 Thermal correction to Enthalpy=                  0.204561
 Thermal correction to Gibbs Free Energy=         0.161797
 Sum of electronic and zero-point Energies=           -367.165032
 Sum of electronic and thermal Energies=              -367.156290
 Sum of electronic and thermal Enthalpies=            -367.155345
 Sum of electronic and thermal Free Energies=         -367.198109

                     E (Thermal)             CV                S
                      KCal/Mol        Cal/Mol-Kelvin    Cal/Mol-Kelvin
 Total                  127.771             35.082             90.004
 Electronic               0.000              0.000              0.000
 Translational            0.889              2.981             40.338
 Rotational               0.889              2.981             28.752
 Vibrational            125.994             29.120             20.915
 Vibration     1          0.595              1.977              4.785
 Vibration     2          0.646              1.814              1.978
 Vibration     3          0.665              1.755              1.699
 Vibration     4          0.678              1.716              1.551
 Vibration     5          0.681              1.709              1.527
 Vibration     6          0.702              1.647              1.341
 Vibration     7          0.718              1.601              1.226
 Vibration     8          0.749              1.515              1.043
 Vibration     9          0.750              1.512              1.038
 Vibration    10          0.827              1.317              0.739
 Vibration    11          0.832              1.305              0.723
 Vibration    12          0.924              1.100              0.508

                           ! Non-Optimized Parameters !
 Normal termination of Gaussian 16 at Wed Aug  3 08:20:13 2022.
