 Gaussian 16, Revision A.03,
 Gaussian 16:  ES64L-G16RevA.03 25-Dec-2016

 -----------------------------
 # opt freq b3lyp/6-31g(2df,p)
 -----------------------------

 -------------------
 Title Card Required
 -------------------
 Symbolic Z-matrix:
 Charge =  0 Multiplicity = 1

 SCF Done:  E(RB3LYP) =  -383.425702617     A.U. after   13 cycles
 SCF Done:  E(RB3LYP) =  -383.442932635     A.U. after   12 cycles
 SCF Done:  E(RB3LYP) =  -383.445875388     A.U. after   11 cycles
 SCF Done:  E(RB3LYP) =  -383.446072308     A.U. after   10 cycles
 SCF Done:  E(RB3LYP) =  -383.446095495     A.U. after    9 cycles
 SCF Done:  E(RB3LYP) =  -383.446099848     A.U. after    7 cycles
 SCF Done:  E(RB3LYP) =  -383.446102530     A.U. after    8 cycles
 SCF Done:  E(RB3LYP) =  -383.446103096     A.U. after    7 cycles
 SCF Done:  E(RB3LYP) =  -383.446103307     A.U. after    6 cycles
 Optimization completed.
    -- Stationary point found.
 Normal termination of Gaussian 16 at Thu Aug  4 08:39:07 2022.

 ----------------------------------------------------------------------
 #N Geom=AllCheck Guess=TCheck SCRF=Check GenChk RB3LYP/6-31G(2df,p) Fr
 eq
 ----------------------------------------------------------------------

 Structure from the checkpoint file:  "CC1C2CCC1pNpC2dN.chk"
 -------------------
 Title Card Required
 -------------------
 Charge =  0 Multiplicity = 1

                         Standard orientation:
 ---------------------------------------------------------------------
 Center     Atomic      Atomic             Coordinates (Angstroms)
 Number     Number       Type             X           Y           Z
 ---------------------------------------------------------------------
      1          6           0        1.929061   -1.185351   -0.481044
      2          6           0        0.473494   -0.823865   -0.731091
      3          6           0       -0.549424   -1.179352    0.401808
      4          6           0       -1.878733   -0.700776   -0.229623
      5          6           0       -1.416745    0.686133   -0.799525
      6          6           0        0.061525    0.671450   -0.360608
      7          7           0        0.822669    1.856365   -0.602045
      8          6           0       -0.072466    0.107458    1.059875
      9          7           0        0.235772    0.441977    2.234783
     10          1           0        2.095853   -2.259480   -0.610629
     11          1           0        2.243986   -0.922042    0.534395
     12          1           0        2.588587   -0.664928   -1.185887
     13          1           0        0.156811   -1.135646   -1.733231
     14          1           0       -0.534246   -2.135535    0.920648
     15          1           0       -2.676988   -0.601898    0.509857
     16          1           0       -2.222390   -1.380886   -1.013888
     17          1           0       -1.957995    1.529790   -0.363539
     18          1           0       -1.512339    0.746846   -1.889046
     19          1           0        0.724761    2.175539   -1.560438
     20          1           0        1.811414    1.701949   -0.430845
     21          1           0        0.593200    1.403716    2.234679
 ---------------------------------------------------------------------

 SCF Done:  E(RB3LYP) =  -383.446103307     A.U. after    1 cycles

 The electronic state is 1-A.
 Alpha  occ. eigenvalues --  -14.32240 -14.30065 -10.22082 -10.21790 -10.19291
 Alpha  occ. eigenvalues --  -10.18968 -10.18813 -10.18794 -10.17902  -0.93125
 Alpha  occ. eigenvalues --   -0.87684  -0.84699  -0.75176  -0.68866  -0.67819
 Alpha  occ. eigenvalues --   -0.59501  -0.56429  -0.51816  -0.49930  -0.49079
 Alpha  occ. eigenvalues --   -0.45917  -0.45556  -0.42851  -0.39678  -0.38629
 Alpha  occ. eigenvalues --   -0.36971  -0.35598  -0.35071  -0.33890  -0.33050
 Alpha  occ. eigenvalues --   -0.31051  -0.29124  -0.25184  -0.22788
 Alpha virt. eigenvalues --    0.02052   0.06825   0.10043   0.11810   0.11917
 Alpha virt. eigenvalues --    0.13636   0.14848   0.15227   0.15670   0.16398
 Alpha virt. eigenvalues --    0.16780   0.18216   0.18780   0.19527   0.20777

 Mulliken charges:
               1
     1  C   -0.440306
     2  C   -0.029766
     3  C   -0.084350
     4  C   -0.230637
     5  C   -0.251412
     6  C    0.256526
     7  N   -0.617694
     8  C    0.360919
     9  N   -0.565603
    10  H    0.120536
    11  H    0.132915
    12  H    0.107459
    13  H    0.060812
    14  H    0.077031
    15  H    0.111461
    16  H    0.100477
    17  H    0.112381
    18  H    0.092635
    19  H    0.230567
    20  H    0.233981
    21  H    0.222068
 Sum of Mulliken charges =   0.00000

 Dipole moment (field-independent basis, Debye):
    X=              0.4619    Y=              0.0332    Z=             -3.1315  Tot=              3.1655
 Quadrupole moment (field-independent basis, Debye-Ang):
   XX=            -51.9072   YY=            -54.3999   ZZ=            -60.0227
   XY=              1.7228   XZ=             -0.7342   YZ=             -0.6837

  Exact polarizability:  83.298   2.330  82.052   2.644   2.269  84.810
 Approx polarizability: 114.368   5.004 120.187   5.876   5.827 134.206

                      1                      2                      3
                      A                      A                      A
 Frequencies --    147.4503               204.2635               214.0176
 Red. masses --      4.5215                 2.4894                 1.1775
 Frc consts  --      0.0579                 0.0612                 0.0318
 IR Inten    --      0.7324                 0.5861                 1.0494

                      4                      5                      6
                      A                      A                      A
 Frequencies --    218.6128               256.4322               272.7924
 Red. masses --      1.9292                 1.9963                 1.2503
 Frc consts  --      0.0543                 0.0773                 0.0548
 IR Inten    --      1.1282                 5.0733                29.6942

                      7                      8                      9
                      A                      A                      A
 Frequencies --    275.7787               382.2154               482.3444
 Red. masses --      2.3429                 2.8129                 3.0756
 Frc consts  --      0.1050                 0.2421                 0.4216
 IR Inten    --      1.0791                 3.4882                 2.6359

                     10                     11                     12
                      A                      A                      A
 Frequencies --    502.6162               601.5785               667.2746
 Red. masses --      2.7755                 4.4979                 4.7453
 Frc consts  --      0.4131                 0.9590                 1.2449
 IR Inten    --     11.8595                 5.1755                 3.2771

                     13                     14                     15
                      A                      A                      A
 Frequencies --    691.0678               757.8181               773.4693
 Red. masses --      3.8963                 2.2725                 2.6020
 Frc consts  --      1.0963                 0.7689                 0.9171
 IR Inten    --     12.8519                28.8250                 1.1323

                     16                     17                     18
                      A                      A                      A
 Frequencies --    811.6953               838.8086               882.4138
 Red. masses --      2.5496                 1.3500                 1.4813
 Frc consts  --      0.9897                 0.5597                 0.6796
 IR Inten    --     33.2271                70.1009                45.5401

                     19                     20                     21
                      A                      A                      A
 Frequencies --    901.5552               931.2133               960.7470
 Red. masses --      2.0957                 1.5175                 1.8820
 Frc consts  --      1.0036                 0.7753                 1.0235
 IR Inten    --     10.4731                34.6402                 5.4021

                     22                     23                     24
                      A                      A                      A
 Frequencies --    976.9653              1009.0983              1022.4983
 Red. masses --      2.8083                 1.9679                 1.3792
 Frc consts  --      1.5793                 1.1807                 0.8496
 IR Inten    --      2.6531                12.7562                 8.1741

                     25                     26                     27
                      A                      A                      A
 Frequencies --   1058.2122              1083.4131              1109.6796
 Red. masses --      1.3368                 1.5056                 2.0099
 Frc consts  --      0.8820                 1.0412                 1.4582
 IR Inten    --      3.2650                 0.8358                 1.5143

                     28                     29                     30
                      A                      A                      A
 Frequencies --   1148.9014              1176.0907              1199.3643
 Red. masses --      1.6273                 1.6068                 1.5866
 Frc consts  --      1.2656                 1.3095                 1.3447
 IR Inten    --      1.6904                 6.0842                 9.0440

                     31                     32                     33
                      A                      A                      A
 Frequencies --   1226.4045              1253.2359              1262.1536
 Red. masses --      1.3686                 1.3827                 1.7069
 Frc consts  --      1.2128                 1.2795                 1.6020
 IR Inten    --      1.5412                 3.0041                 7.2975

                     34                     35                     36
                      A                      A                      A
 Frequencies --   1281.9289              1309.0259              1327.7386
 Red. masses --      1.4242                 2.0950                 1.5955
 Frc consts  --      1.3790                 2.1151                 1.6572
 IR Inten    --     43.1565                16.7364                12.5956

                     37                     38                     39
                      A                      A                      A
 Frequencies --   1372.0802              1383.3346              1414.8142
 Red. masses --      1.7785                 2.1711                 1.2885
 Frc consts  --      1.9727                 2.4479                 1.5196
 IR Inten    --     17.2932                15.4216                 2.6941

                     40                     41                     42
                      A                      A                      A
 Frequencies --   1493.3445              1498.8229              1501.0525
 Red. masses --      1.0826                 1.0502                 1.0467
 Frc consts  --      1.4225                 1.3900                 1.3896
 IR Inten    --      0.2282                 2.7620                 4.1492

                     43                     44                     45
                      A                      A                      A
 Frequencies --   1512.1932              1652.9641              1802.6008
 Red. masses --      1.1097                 1.1077                 9.6293
 Frc consts  --      1.4951                 1.7832                18.4350
 IR Inten    --      0.8645                25.6389               124.1425

                     46                     47                     48
                      A                      A                      A
 Frequencies --   3023.9297              3034.3527              3040.8905
 Red. masses --      1.0386                 1.0826                 1.0627
 Frc consts  --      5.5954                 5.8726                 5.7900
 IR Inten    --     31.2466                20.9881                42.1435

                     49                     50                     51
                      A                      A                      A
 Frequencies --   3060.2731              3086.3805              3091.0016
 Red. masses --      1.0599                 1.0989                 1.1034
 Frc consts  --      5.8483                 6.1675                 6.2112
 IR Inten    --     46.8550                21.6067                 4.0049

                     52                     53                     54
                      A                      A                      A
 Frequencies --   3101.7024              3110.8623              3143.1662
 Red. masses --      1.1011                 1.1056                 1.0909
 Frc consts  --      6.2414                 6.3038                 6.3501
 IR Inten    --     19.4571                40.3447                23.2314

                     55                     56                     57
                      A                      A                      A
 Frequencies --   3399.6529              3497.7861              3578.3306
 Red. masses --      1.0733                 1.0482                 1.0935
 Frc consts  --      7.3084                 7.5558                 8.2494
 IR Inten    --      1.1678                 0.2074                 1.7400

 - Thermochemistry -
 -------------------
 Temperature   298.150 Kelvin.  Pressure   1.00000 Atm.
 Atom     1 has atomic number  6 and mass  12.00000

 Molecular mass:   124.10005 amu.
 Principal axes and moments of inertia in atomic units:
                           1         2         3
     Eigenvalues --   945.931201053.259771085.15779
           X            0.99871  -0.05083  -0.00177
           Y            0.05080   0.99861  -0.01401
           Z            0.00248   0.01390   0.99990
 This molecule is an asymmetric top.
 Rotational symmetry number  1.
 Warning -- assumption of classical behavior for rotation
           may cause significant error
 Rotational temperatures (Kelvin)      0.09156     0.08223     0.07982
 Rotational constants (GHZ):           1.90790     1.71348     1.66311
 Zero-point vibrational energy     484597.7 (Joules/Mol)
                                  115.82163 (Kcal/Mol)
 Warning -- explicit consideration of  11 degrees of freedom as
           vibrations may cause significant error
 Vibrational temperatures:    212.15   293.89   307.92   314.54   368.95
          (Kelvin)            392.49   396.78   549.92   693.99   723.15
                              865.54   960.06   994.29  1090.33  1112.85
                             1167.85  1206.86  1269.60  1297.14  1339.81
                             1382.30  1405.64  1451.87  1471.15  1522.53
                             1558.79  1596.58  1653.01  1692.13  1725.62
                             1764.52  1803.13  1815.96  1844.41  1883.40
                             1910.32  1974.12  1990.31  2035.60  2148.59
                             2156.47  2159.68  2175.71  2378.25  2593.54
                             4350.76  4365.76  4375.16  4403.05  4440.61
                             4447.26  4462.66  4475.84  4522.32  4891.34
                             5032.53  5148.42

 Zero-point correction=                           0.184574 (Hartree/Particle)
 Thermal correction to Energy=                    0.193142
 Thermal correction to Enthalpy=                  0.194086
 Thermal correction to Gibbs Free Energy=         0.152172
 Sum of electronic and zero-point Energies=           -383.261530
 Sum of electronic and thermal Energies=              -383.252962
 Sum of electronic and thermal Enthalpies=            -383.252017
 Sum of electronic and thermal Free Energies=         -383.293932

                     E (Thermal)             CV                S
                      KCal/Mol        Cal/Mol-Kelvin    Cal/Mol-Kelvin
 Total                  121.198             34.215             88.216
 Electronic               0.000              0.000              0.000
 Translational            0.889              2.981             40.362
 Rotational               0.889              2.981             28.471
 Vibrational            119.421             28.253             19.383
 Vibration     1          0.617              1.905              2.705
 Vibration     2          0.640              1.834              2.094
 Vibration     3          0.644              1.820              2.009
 Vibration     4          0.646              1.813              1.971
 Vibration     5          0.666              1.752              1.686
 Vibration     6          0.676              1.723              1.578
 Vibration     7          0.677              1.718              1.560
 Vibration     8          0.752              1.508              1.030
 Vibration     9          0.839              1.289              0.704
 Vibration    10          0.858              1.244              0.652
 Vibration    11          0.960              1.028              0.447

 Optimization completed.
    -- Stationary point found.
 Normal termination of Gaussian 16 at Thu Aug  4 09:15:43 2022.
