 Gaussian 16, Revision A.03,
 Gaussian 16:  ES64L-G16RevA.03 25-Dec-2016

 -----------------------------
 # opt freq b3lyp/6-31g(2df,p)
 -----------------------------

 -------------------
 Title Card Required
 -------------------
 Symbolic Z-matrix:
 Charge =  0 Multiplicity = 1

 SCF Done:  E(RB3LYP) =  -441.591627607     A.U. after   13 cycles
 SCF Done:  E(RB3LYP) =  -441.594539304     A.U. after   11 cycles
 SCF Done:  E(RB3LYP) =  -441.594835628     A.U. after   10 cycles
 SCF Done:  E(RB3LYP) =  -441.595048349     A.U. after   11 cycles
 SCF Done:  E(RB3LYP) =  -441.594653287     A.U. after   14 cycles
 SCF Done:  E(RB3LYP) =  -441.595722091     A.U. after   13 cycles
 SCF Done:  E(RB3LYP) =  -441.596000697     A.U. after   10 cycles
 SCF Done:  E(RB3LYP) =  -441.595996875     A.U. after   12 cycles
 SCF Done:  E(RB3LYP) =  -441.596098084     A.U. after   11 cycles
 SCF Done:  E(RB3LYP) =  -441.596107151     A.U. after    8 cycles
 SCF Done:  E(RB3LYP) =  -441.596107835     A.U. after    8 cycles
 SCF Done:  E(RB3LYP) =  -441.596107961     A.U. after    7 cycles
 Optimization completed.
    -- Stationary point found.
 Normal termination of Gaussian 16 at Thu Aug  4 13:52:29 2022.

 ----------------------------------------------------------------------
 #N Geom=AllCheck Guess=TCheck SCRF=Check GenChk RB3LYP/6-31G(2df,p) Fr
 eq
 ----------------------------------------------------------------------

 Structure from the checkpoint file:  "CC1CNCCpOOpC1.chk"
 -------------------
 Title Card Required
 -------------------
 Charge =  0 Multiplicity = 1

                         Standard orientation:
 ---------------------------------------------------------------------
 Center     Atomic      Atomic             Coordinates (Angstroms)
 Number     Number       Type             X           Y           Z
 ---------------------------------------------------------------------
      1          6           0        1.757292   -1.615246   -0.774321
      2          6           0        1.371500   -0.859021    0.505998
      3          6           0        1.959464    0.569670    0.538337
      4          7           0        1.310183    1.521607   -0.363956
      5          6           0       -0.134935    1.591671   -0.164278
      6          6           0       -0.820552    0.216079   -0.245266
      7          8           0       -2.186176    0.459499    0.077573
      8          8           0       -2.936748   -0.744530   -0.221033
      9          6           0       -0.155974   -0.775500    0.716019
     10          1           0        2.844366   -1.728900   -0.845651
     11          1           0        1.421373   -1.098629   -1.679744
     12          1           0        1.314740   -2.616441   -0.790221
     13          1           0        1.796306   -1.411997    1.354359
     14          1           0        3.029501    0.547856    0.303119
     15          1           0        1.866057    0.969751    1.557369
     16          1           0        1.513484    1.282134   -1.328987
     17          1           0       -0.572144    2.273176   -0.899498
     18          1           0       -0.327339    2.018890    0.829137
     19          1           0       -0.770991   -0.154088   -1.278320
     20          1           0       -3.185127   -1.024738    0.670844
     21          1           0       -0.616191   -1.762651    0.605316
     22          1           0       -0.362689   -0.431278    1.738714
 ---------------------------------------------------------------------

 SCF Done:  E(RB3LYP) =  -441.596107961     A.U. after    1 cycles

 The electronic state is 1-A.
 Alpha  occ. eigenvalues --  -19.18589 -19.18540 -14.31544 -10.22685 -10.20535
 Alpha  occ. eigenvalues --  -10.20323 -10.18887 -10.17883 -10.17752  -1.10767
 Alpha  occ. eigenvalues --   -0.92061  -0.89613  -0.79400  -0.73887  -0.68845
 Alpha  occ. eigenvalues --   -0.63774  -0.60392  -0.55399  -0.52577  -0.49241
 Alpha  occ. eigenvalues --   -0.47133  -0.45094  -0.44616  -0.43942  -0.42294
 Alpha  occ. eigenvalues --   -0.40135  -0.38418  -0.37187  -0.36171  -0.34775
 Alpha  occ. eigenvalues --   -0.34286  -0.32819  -0.32364  -0.29410  -0.25349
 Alpha  occ. eigenvalues --   -0.21849
 Alpha virt. eigenvalues --    0.03260   0.06753   0.08872   0.09202   0.12717
 Alpha virt. eigenvalues --    0.13764   0.14175   0.14765   0.15903   0.17208
 Alpha virt. eigenvalues --    0.17803   0.17995   0.18537   0.19666   0.20856

 Mulliken charges:
               1
     1  C   -0.393768
     2  C    0.015359
     3  C   -0.166300
     4  N   -0.282883
     5  C   -0.195911
     6  C    0.178383
     7  O   -0.202939
     8  O   -0.332813
     9  C   -0.237178
    10  H    0.112788
    11  H    0.110422
    12  H    0.116918
    13  H    0.069431
    14  H    0.095582
    15  H    0.099551
    16  H    0.217556
    17  H    0.111311
    18  H    0.110758
    19  H    0.077485
    20  H    0.309874
    21  H    0.094931
    22  H    0.091443
 Sum of Mulliken charges =  -0.00000

 Dipole moment (field-independent basis, Debye):
    X=              1.0389    Y=             -1.5228    Z=              0.7849  Tot=              2.0036
 Quadrupole moment (field-independent basis, Debye-Ang):
   XX=            -57.8796   YY=            -57.6127   ZZ=            -52.6206
   XY=              0.4382   XZ=             -4.5664   YZ=             -2.1936

  Exact polarizability:  90.113   1.904  78.362  -0.969  -0.295  70.452
 Approx polarizability: 118.854   5.348 112.600  -1.083   0.410 109.352

                      1                      2                      3
                      A                      A                      A
 Frequencies --     94.1442               124.6666               157.9382
 Red. masses --      3.7390                 4.7418                 2.5092
 Frc consts  --      0.0195                 0.0434                 0.0369
 IR Inten    --      1.5749                 3.6981                 0.4565

                      4                      5                      6
                      A                      A                      A
 Frequencies --    208.8582               224.5797               246.4793
 Red. masses --      1.0495                 1.2665                 2.6402
 Frc consts  --      0.0270                 0.0376                 0.0945
 IR Inten    --      0.5464                65.2950                53.4004

                      7                      8                      9
                      A                      A                      A
 Frequencies --    280.1232               341.8811               366.0347
 Red. masses --      2.5306                 2.5871                 3.1346
 Frc consts  --      0.1170                 0.1782                 0.2474
 IR Inten    --      9.2931                 1.9515                 2.1231

                     10                     11                     12
                      A                      A                      A
 Frequencies --    410.4252               457.6602               491.9810
 Red. masses --      2.0899                 2.5421                 3.1536
 Frc consts  --      0.2074                 0.3137                 0.4497
 IR Inten    --      2.7906                 3.6582                 1.3851

                     13                     14                     15
                      A                      A                      A
 Frequencies --    528.5761               664.5850               744.3736
 Red. masses --      4.2379                 1.9292                 1.9719
 Frc consts  --      0.6976                 0.5020                 0.6438
 IR Inten    --      3.6872                14.2973                74.8119

                     16                     17                     18
                      A                      A                      A
 Frequencies --    809.8866               867.7127               881.7807
 Red. masses --      2.5140                 2.1924                 1.4764
 Frc consts  --      0.9715                 0.9726                 0.6764
 IR Inten    --     42.9900                 8.5586                10.0874

                     19                     20                     21
                      A                      A                      A
 Frequencies --    919.5485               939.4921               946.7266
 Red. masses --      4.7642                 1.9553                 2.6700
 Frc consts  --      2.3735                 1.0168                 1.4100
 IR Inten    --     18.5400                 7.9820                 8.3268

                     22                     23                     24
                      A                      A                      A
 Frequencies --    978.0504              1004.8872              1020.9673
 Red. masses --      1.7339                 2.2220                 1.7888
 Frc consts  --      0.9773                 1.3220                 1.0986
 IR Inten    --      0.7561                 7.1885                 1.6930

                     25                     26                     27
                      A                      A                      A
 Frequencies --   1080.0728              1098.8169              1126.2602
 Red. masses --      2.1850                 1.8736                 1.8996
 Frc consts  --      1.5018                 1.3328                 1.4197
 IR Inten    --      4.1937                11.0641                33.4818

                     28                     29                     30
                      A                      A                      A
 Frequencies --   1145.8215              1188.5665              1191.5908
 Red. masses --      2.3389                 2.2555                 1.5911
 Frc consts  --      1.8092                 1.8773                 1.3310
 IR Inten    --      1.6796                 3.7355                 5.9164

                     31                     32                     33
                      A                      A                      A
 Frequencies --   1281.0105              1284.3001              1318.3054
 Red. masses --      1.2797                 1.6584                 1.2413
 Frc consts  --      1.2373                 1.6116                 1.2711
 IR Inten    --      0.1702                 0.5159                13.5229

                     34                     35                     36
                      A                      A                      A
 Frequencies --   1340.6060              1348.9846              1366.4198
 Red. masses --      1.2714                 1.4193                 1.2607
 Frc consts  --      1.3462                 1.5218                 1.3868
 IR Inten    --      0.8927                 0.1415                14.4384

                     37                     38                     39
                      A                      A                      A
 Frequencies --   1371.7375              1385.6591              1390.8618
 Red. masses --      1.3686                 1.2494                 1.3299
 Frc consts  --      1.5173                 1.4134                 1.5158
 IR Inten    --     21.5155                 8.2905                 9.4458

                     40                     41                     42
                      A                      A                      A
 Frequencies --   1406.8689              1415.7733              1476.4716
 Red. masses --      1.3758                 1.2698                 1.0770
 Frc consts  --      1.6044                 1.4996                 1.3834
 IR Inten    --      5.5832                 7.1389                 1.0884

                     43                     44                     45
                      A                      A                      A
 Frequencies --   1482.6377              1491.5267              1494.5012
 Red. masses --      1.0982                 1.1226                 1.1229
 Frc consts  --      1.4224                 1.4714                 1.4777
 IR Inten    --      1.4450                 1.7245                 9.5091

                     46                     47                     48
                      A                      A                      A
 Frequencies --   1503.5303              1505.3107              3003.5301
 Red. masses --      1.0585                 1.0734                 1.0748
 Frc consts  --      1.4098                 1.4331                 5.7130
 IR Inten    --      3.8906                 6.4835                 7.5245

                     49                     50                     51
                      A                      A                      A
 Frequencies --   3007.8544              3013.6538              3020.4788
 Red. masses --      1.0733                 1.0701                 1.0690
 Frc consts  --      5.7209                 5.7263                 5.7460
 IR Inten    --     11.3352                19.7938                42.1770

                     52                     53                     54
                      A                      A                      A
 Frequencies --   3027.9718              3030.9537              3064.4384
 Red. masses --      1.0685                 1.0384                 1.1004
 Frc consts  --      5.7721                 5.6206                 6.0882
 IR Inten    --     83.1824                19.4808                33.0567

                     55                     56                     57
                      A                      A                      A
 Frequencies --   3074.8941              3090.2187              3095.1193
 Red. masses --      1.0984                 1.0993                 1.1004
 Frc consts  --      6.1189                 6.1853                 6.2111
 IR Inten    --     28.0567                21.0916                47.3264

                     58                     59                     60
                      A                      A                      A
 Frequencies --   3099.2188              3519.7433              3760.9053
 Red. masses --      1.1012                 1.0736                 1.0686
 Frc consts  --      6.2316                 7.8366                 8.9054
 IR Inten    --     29.0236                 0.1884                31.4563

 - Thermochemistry -
 -------------------
 Temperature   298.150 Kelvin.  Pressure   1.00000 Atm.
 Atom     1 has atomic number  6 and mass  12.00000

 Molecular mass:   131.09463 amu.
 Principal axes and moments of inertia in atomic units:
                           1         2         3
     Eigenvalues --   705.379571554.916271967.32598
           X            0.99977  -0.01896  -0.00986
           Y            0.01903   0.99980   0.00686
           Z            0.00973  -0.00705   0.99993
 This molecule is an asymmetric top.
 Rotational symmetry number  1.
 Warning -- assumption of classical behavior for rotation
           may cause significant error
 Rotational temperatures (Kelvin)      0.12279     0.05570     0.04403
 Rotational constants (GHZ):           2.55854     1.16067     0.91736
 Zero-point vibrational energy     509704.7 (Joules/Mol)
                                  121.82235 (Kcal/Mol)
 Warning -- explicit consideration of  13 degrees of freedom as
           vibrations may cause significant error
 Vibrational temperatures:    135.45   179.37   227.24   300.50   323.12
          (Kelvin)            354.63   403.03   491.89   526.64   590.51
                              658.47   707.85   760.50   956.19  1070.99
                             1165.25  1248.45  1268.69  1323.03  1351.72
                             1362.13  1407.20  1445.81  1468.94  1553.98
                             1580.95  1620.44  1648.58  1710.08  1714.43
                             1843.09  1847.82  1896.75  1928.83  1940.89
                             1965.97  1973.62  1993.65  2001.14  2024.17
                             2036.98  2124.31  2133.19  2145.97  2150.25
                             2163.24  2165.81  4321.41  4327.63  4335.98
                             4345.80  4356.58  4360.87  4409.04  4424.09
                             4446.14  4453.19  4459.08  5064.13  5411.10

 Zero-point correction=                           0.194136 (Hartree/Particle)
 Thermal correction to Energy=                    0.203676
 Thermal correction to Enthalpy=                  0.204620
 Thermal correction to Gibbs Free Energy=         0.160059
 Sum of electronic and zero-point Energies=           -441.401972
 Sum of electronic and thermal Energies=              -441.392432
 Sum of electronic and thermal Enthalpies=            -441.391488
 Sum of electronic and thermal Free Energies=         -441.436049

                     E (Thermal)             CV                S
                      KCal/Mol        Cal/Mol-Kelvin    Cal/Mol-Kelvin
 Total                  127.808             36.401             93.787
 Electronic               0.000              0.000              0.000
 Translational            0.889              2.981             40.525
 Rotational               0.889              2.981             29.158
 Vibrational            126.031             30.440             24.104
 Vibration     1          0.603              1.953              3.572
 Vibration     2          0.610              1.928              3.027
 Vibration     3          0.621              1.894              2.574
 Vibration     4          0.642              1.827              2.054
 Vibration     5          0.649              1.804              1.922
 Vibration     6          0.661              1.769              1.756
 Vibration     7          0.680              1.710              1.533
 Vibration     8          0.721              1.592              1.203
 Vibration     9          0.739              1.542              1.096
 Vibration    10          0.775              1.448              0.925
 Vibration    11          0.816              1.344              0.773
 Vibration    12          0.848              1.268              0.678
 Vibration    13          0.884              1.187              0.590

                           ! Non-Optimized Parameters !
 Normal termination of Gaussian 16 at Thu Aug  4 14:28:27 2022.
