 Gaussian 16, Revision A.03,
 Gaussian 16:  ES64L-G16RevA.03 25-Dec-2016

 -----------------------------
 # opt freq b3lyp/6-31g(2df,p)
 -----------------------------

 -------------------
 Title Card Required
 -------------------
 Symbolic Z-matrix:
 Charge =  0 Multiplicity = 1

 SCF Done:  E(RB3LYP) =  -365.219175157     A.U. after   13 cycles
 SCF Done:  E(RB3LYP) =  -365.223337965     A.U. after   11 cycles
 SCF Done:  E(RB3LYP) =  -365.224512438     A.U. after   10 cycles
 SCF Done:  E(RB3LYP) =  -365.226256021     A.U. after   12 cycles
 SCF Done:  E(RB3LYP) =  -365.228357451     A.U. after   11 cycles
 SCF Done:  E(RB3LYP) =  -365.231552141     A.U. after   11 cycles
 SCF Done:  E(RB3LYP) =  -365.235622460     A.U. after   11 cycles
 SCF Done:  E(RB3LYP) =  -365.237166212     A.U. after   11 cycles
 SCF Done:  E(RB3LYP) =  -365.237688257     A.U. after    9 cycles
 SCF Done:  E(RB3LYP) =  -365.238790465     A.U. after   10 cycles
 SCF Done:  E(RB3LYP) =  -365.242191746     A.U. after   11 cycles
 SCF Done:  E(RB3LYP) =  -365.242830203     A.U. after   10 cycles
 SCF Done:  E(RB3LYP) =  -365.243180034     A.U. after   10 cycles
 SCF Done:  E(RB3LYP) =  -365.243494876     A.U. after   11 cycles
 SCF Done:  E(RB3LYP) =  -365.243659540     A.U. after   10 cycles
 SCF Done:  E(RB3LYP) =  -365.243737190     A.U. after   10 cycles
 SCF Done:  E(RB3LYP) =  -365.243770119     A.U. after    9 cycles
 SCF Done:  E(RB3LYP) =  -365.243770713     A.U. after    7 cycles
 SCF Done:  E(RB3LYP) =  -365.243770788     A.U. after    7 cycles
 Optimization completed.
    -- Stationary point found.
 Normal termination of Gaussian 16 at Sun Jul  3 21:59:32 2022.

 ----------------------------------------------------------------------
 #N Geom=AllCheck Guess=TCheck SCRF=Check GenChk RB3LYP/6-31G(2df,p) Fr
 eq
 ----------------------------------------------------------------------

 Structure from the checkpoint file:  "CC1CCCpNpdCO1.chk"
 -------------------
 Title Card Required
 -------------------
 Charge =  0 Multiplicity = 1

                         Standard orientation:
 ---------------------------------------------------------------------
 Center     Atomic      Atomic             Coordinates (Angstroms)
 Number     Number       Type             X           Y           Z
 ---------------------------------------------------------------------
      1          6           0        2.811943   -0.126010   -0.030829
      2          6           0        1.328417    0.000987   -0.337842
      3          6           0        0.670761    1.230006    0.294120
      4          6           0       -0.816356    1.286533   -0.081684
      5          6           0       -1.428961   -0.085632   -0.004365
      6          7           0       -2.835242   -0.139573   -0.168712
      7          6           0       -0.666510   -1.175893    0.136406
      8          8           0        0.705327   -1.196949    0.134734
      9          1           0        3.363632    0.719806   -0.451895
     10          1           0        3.211685   -1.049362   -0.458500
     11          1           0        2.980153   -0.148486    1.050447
     12          1           0        1.176062    0.047801   -1.429322
     13          1           0        1.189318    2.137859   -0.030907
     14          1           0        0.784761    1.160419    1.382623
     15          1           0       -0.953733    1.700438   -1.089582
     16          1           0       -1.349555    1.970348    0.594557
     17          1           0       -3.315686    0.485095    0.472263
     18          1           0       -3.200999   -1.076176   -0.036322
     19          1           0       -1.077324   -2.175083    0.244920
 ---------------------------------------------------------------------

 SCF Done:  E(RB3LYP) =  -365.243770788     A.U. after    1 cycles

 The electronic state is 1-A.
 Alpha  occ. eigenvalues --  -19.14404 -14.31998 -10.23034 -10.20344 -10.19473
 Alpha  occ. eigenvalues --  -10.18399 -10.18028 -10.17234  -1.03892  -0.89337
 Alpha  occ. eigenvalues --   -0.79340  -0.75891  -0.68436  -0.63743  -0.60623
 Alpha  occ. eigenvalues --   -0.52842  -0.49934  -0.49236  -0.46407  -0.44139
 Alpha  occ. eigenvalues --   -0.42495  -0.40329  -0.39034  -0.37716  -0.37069
 Alpha  occ. eigenvalues --   -0.36642  -0.33166  -0.31718  -0.29397  -0.28686
 Alpha  occ. eigenvalues --   -0.17589
 Alpha virt. eigenvalues --    0.05699   0.08682   0.09477   0.12329   0.13107
 Alpha virt. eigenvalues --    0.13583   0.15289   0.16638   0.17546   0.17975
 Alpha virt. eigenvalues --    0.18858   0.19293   0.20886   0.22150   0.23928

 Mulliken charges:
               1
     1  C   -0.402981
     2  C    0.154624
     3  C   -0.214900
     4  C   -0.293078
     5  C    0.211506
     6  N   -0.577216
     7  C   -0.019193
     8  O   -0.251091
     9  H    0.112944
    10  H    0.124638
    11  H    0.121662
    12  H    0.071866
    13  H    0.096959
    14  H    0.106138
    15  H    0.114803
    16  H    0.094001
    17  H    0.231383
    18  H    0.233018
    19  H    0.084919
 Sum of Mulliken charges =  -0.00000

 Dipole moment (field-independent basis, Debye):
    X=             -0.4946    Y=              0.9958    Z=              0.6598  Tot=              1.2929
 Quadrupole moment (field-independent basis, Debye-Ang):
   XX=            -44.6701   YY=            -47.7102   ZZ=            -50.0375
   XY=              2.8587   XZ=             -4.3765   YZ=              0.5064

  Exact polarizability:  93.693  -3.439  75.200  -1.076  -0.741  54.118
 Approx polarizability: 121.150 -14.065 116.920   0.750  -3.716  84.799

                      1                      2                      3
                      A                      A                      A
 Frequencies --     98.1024               201.7825               222.7983
 Red. masses --      3.4646                 1.7910                 1.0842
 Frc consts  --      0.0196                 0.0430                 0.0317
 IR Inten    --      2.6933                 0.7571                 0.1756

                      4                      5                      6
                      A                      A                      A
 Frequencies --    264.1469               297.8513               334.0783
 Red. masses --      1.4532                 1.7776                 2.9953
 Frc consts  --      0.0597                 0.0929                 0.1970
 IR Inten    --     22.2186                10.5643                10.7567

                      7                      8                      9
                      A                      A                      A
 Frequencies --    383.7905               418.9105               446.1760
 Red. masses --      2.8464                 4.1140                 2.2288
 Frc consts  --      0.2470                 0.4254                 0.2614
 IR Inten    --     13.4132                 0.7494                 8.8638

                     10                     11                     12
                      A                      A                      A
 Frequencies --    481.2779               533.5077               702.0796
 Red. masses --      2.3789                 3.7295                 4.2441
 Frc consts  --      0.3247                 0.6254                 1.2326
 IR Inten    --      6.0493                 7.3034                 1.2931

                     13                     14                     15
                      A                      A                      A
 Frequencies --    783.4921               799.8203               828.5757
 Red. masses --      3.3129                 1.3476                 1.7346
 Frc consts  --      1.1982                 0.5079                 0.7016
 IR Inten    --      8.1324               150.5253                39.8333

                     16                     17                     18
                      A                      A                      A
 Frequencies --    852.3798               900.1665               939.3857
 Red. masses --      1.4283                 2.2070                 2.0125
 Frc consts  --      0.6114                 1.0537                 1.0464
 IR Inten    --     61.4930                21.1314                 1.4764

                     19                     20                     21
                      A                      A                      A
 Frequencies --    962.8405              1026.0655              1086.7393
 Red. masses --      1.4607                 2.0674                 2.2624
 Frc consts  --      0.7978                 1.2824                 1.5742
 IR Inten    --      4.7409                 1.5258                 6.7058

                     22                     23                     24
                      A                      A                      A
 Frequencies --   1116.0788              1130.0172              1160.2827
 Red. masses --      1.5452                 1.8899                 1.9698
 Frc consts  --      1.1340                 1.4219                 1.5624
 IR Inten    --     20.4971                75.1256                 8.8664

                     25                     26                     27
                      A                      A                      A
 Frequencies --   1202.9832              1226.7735              1242.3687
 Red. masses --      2.0247                 1.7489                 1.4388
 Frc consts  --      1.7264                 1.5507                 1.3084
 IR Inten    --     96.0935                72.5832                35.2305

                     28                     29                     30
                      A                      A                      A
 Frequencies --   1284.0136              1329.8712              1355.1562
 Red. masses --      1.9135                 1.2924                 1.3705
 Frc consts  --      1.8587                 1.3467                 1.4828
 IR Inten    --      1.2039                 3.0495                 5.4555

                     31                     32                     33
                      A                      A                      A
 Frequencies --   1378.3451              1398.4722              1411.9125
 Red. masses --      1.3009                 1.4367                 1.3870
 Frc consts  --      1.4562                 1.6555                 1.6291
 IR Inten    --      5.7415                 5.8782                11.9822

                     34                     35                     36
                      A                      A                      A
 Frequencies --   1419.4938              1474.2410              1485.1381
 Red. masses --      2.0143                 1.0824                 1.0598
 Frc consts  --      2.3913                 1.3860                 1.3772
 IR Inten    --      2.5629                 0.4903                 3.1737

                     37                     38                     39
                      A                      A                      A
 Frequencies --   1488.1883              1500.0481              1643.2918
 Red. masses --      1.0969                 1.0517                 1.1160
 Frc consts  --      1.4313                 1.3943                 1.7756
 IR Inten    --      1.7034                 2.5168                39.0732

                     40                     41                     42
                      A                      A                      A
 Frequencies --   1748.7107              2960.8890              3001.3425
 Red. masses --      6.4131                 1.0820                 1.0620
 Frc consts  --     11.5547                 5.5889                 5.6363
 IR Inten    --      3.1614                36.9989                52.0639

                     43                     44                     45
                      A                      A                      A
 Frequencies --   3024.8614              3037.7154              3042.7139
 Red. masses --      1.0898                 1.0602                 1.0434
 Frc consts  --      5.8748                 5.7638                 5.6914
 IR Inten    --      9.5898                23.3009                35.6175

                     46                     47                     48
                      A                      A                      A
 Frequencies --   3083.1717              3114.8134              3120.7909
 Red. masses --      1.1031                 1.1016                 1.1019
 Frc consts  --      6.1783                 6.2973                 6.3228
 IR Inten    --     28.2331                31.1417                19.2790

                     49                     50                     51
                      A                      A                      A
 Frequencies --   3173.7025              3484.3456              3582.1952
 Red. masses --      1.0915                 1.0493                 1.0927
 Frc consts  --      6.4776                 7.5055                 8.2611
 IR Inten    --     27.9612                 1.6592                 1.0954

 - Thermochemistry -
 -------------------
 Temperature   298.150 Kelvin.  Pressure   1.00000 Atm.
 Atom     1 has atomic number  6 and mass  12.00000

 Molecular mass:   113.08406 amu.
 Principal axes and moments of inertia in atomic units:
                           1         2         3
     Eigenvalues --   390.349601250.026991563.58395
           X            0.99994   0.00872  -0.00590
           Y           -0.00869   0.99995   0.00586
           Z            0.00595  -0.00581   0.99997
 This molecule is an asymmetric top.
 Rotational symmetry number  1.
 Rotational temperatures (Kelvin)      0.22189     0.06929     0.05539
 Rotational constants (GHZ):           4.62340     1.44376     1.15423
 Zero-point vibrational energy     437748.9 (Joules/Mol)
                                  104.62449 (Kcal/Mol)
 Warning -- explicit consideration of  11 degrees of freedom as
           vibrations may cause significant error
 Vibrational temperatures:    141.15   290.32   320.56   380.05   428.54
          (Kelvin)            480.66   552.19   602.72   641.95   692.45
                              767.60  1010.14  1127.27  1150.76  1192.14
                             1226.38  1295.14  1351.57  1385.31  1476.28
                             1563.58  1605.79  1625.84  1669.39  1730.82
                             1765.05  1787.49  1847.41  1913.39  1949.77
                             1983.13  2012.09  2031.43  2042.33  2121.10
                             2136.78  2141.17  2158.23  2364.33  2516.00
                             4260.06  4318.26  4352.10  4370.59  4377.79
                             4436.00  4481.52  4490.12  4566.25  5013.20
                             5153.98

 Zero-point correction=                           0.166730 (Hartree/Particle)
 Thermal correction to Energy=                    0.174784
 Thermal correction to Enthalpy=                  0.175728
 Thermal correction to Gibbs Free Energy=         0.134793
 Sum of electronic and zero-point Energies=           -365.077041
 Sum of electronic and thermal Energies=              -365.068987
 Sum of electronic and thermal Enthalpies=            -365.068043
 Sum of electronic and thermal Free Energies=         -365.108978

                     E (Thermal)             CV                S
                      KCal/Mol        Cal/Mol-Kelvin    Cal/Mol-Kelvin
 Total                  109.679             31.236             86.156
 Electronic               0.000              0.000              0.000
 Translational            0.889              2.981             40.085
 Rotational               0.889              2.981             28.125
 Vibrational            107.901             25.274             17.947
 Vibration     1          0.604              1.951              3.492
 Vibration     2          0.639              1.837              2.117
 Vibration     3          0.648              1.806              1.936
 Vibration     4          0.671              1.739              1.634
 Vibration     5          0.691              1.678              1.429
 Vibration     6          0.716              1.607              1.240
 Vibration     7          0.753              1.505              1.024
 Vibration     8          0.782              1.429              0.896
 Vibration     9          0.805              1.369              0.807
 Vibration    10          0.838              1.292              0.707
 Vibration    11          0.888              1.176              0.579

                           ! Non-Optimized Parameters !
 Normal termination of Gaussian 16 at Sun Jul  3 22:21:51 2022.
