 Gaussian 16, Revision A.03,
 Gaussian 16:  ES64L-G16RevA.03 25-Dec-2016

 -----------------------------
 # opt freq b3lyp/6-31g(2df,p)
 -----------------------------

 -------------------
 Title Card Required
 -------------------
 Symbolic Z-matrix:
 Charge =  0 Multiplicity = 1

 SCF Done:  E(RB3LYP) =  -417.750662981     A.U. after   19 cycles
 SCF Done:  E(RB3LYP) =  -417.774534262     A.U. after   19 cycles
 SCF Done:  E(RB3LYP) =  -417.793661835     A.U. after   19 cycles
 SCF Done:  E(RB3LYP) =  -417.796907026     A.U. after   17 cycles
 SCF Done:  E(RB3LYP) =  -417.849649353     A.U. after   16 cycles
 SCF Done:  E(RB3LYP) =  -417.834420539     A.U. after   17 cycles
 SCF Done:  E(RB3LYP) =  -417.883209088     A.U. after   15 cycles
 SCF Done:  E(RB3LYP) =  -417.907616393     A.U. after   16 cycles
 SCF Done:  E(RB3LYP) =  -417.935802369     A.U. after   15 cycles
 SCF Done:  E(RB3LYP) =  -417.960461829     A.U. after   16 cycles
 SCF Done:  E(RB3LYP) =  -417.983670444     A.U. after   11 cycles
 SCF Done:  E(RB3LYP) =  -417.983703204     A.U. after   11 cycles
 SCF Done:  E(RB3LYP) =  -417.983720244     A.U. after   10 cycles
 SCF Done:  E(RB3LYP) =  -417.983725888     A.U. after   10 cycles
 SCF Done:  E(RB3LYP) =  -417.983727873     A.U. after    9 cycles
 SCF Done:  E(RB3LYP) =  -417.983729579     A.U. after    8 cycles
 SCF Done:  E(RB3LYP) =  -417.983730790     A.U. after    8 cycles
 SCF Done:  E(RB3LYP) =  -417.983731398     A.U. after    8 cycles
 SCF Done:  E(RB3LYP) =  -417.983732094     A.U. after    9 cycles
 Optimization completed.
    -- Stationary point found.
 Normal termination of Gaussian 16 at Thu Aug  4 14:05:06 2022.

 ----------------------------------------------------------------------
 #N Geom=AllCheck Guess=TCheck SCRF=Check GenChk RB3LYP/6-31G(2df,p) Fr
 eq
 ----------------------------------------------------------------------

 Structure from the checkpoint file:  "CC1CdNNdCCdCO1.chk"
 -------------------
 Title Card Required
 -------------------
 Charge =  0 Multiplicity = 1

                         Standard orientation:
 ---------------------------------------------------------------------
 Center     Atomic      Atomic             Coordinates (Angstroms)
 Number     Number       Type             X           Y           Z
 ---------------------------------------------------------------------
      1          6           0        2.659353   -0.092923   -0.405920
      2          6           0        1.381492   -0.325252    0.374989
      3          6           0        0.327734   -1.131404   -0.318264
      4          7           0       -0.629987   -1.703529    0.321544
      5          7           0       -1.803035   -1.095739   -0.413119
      6          6           0       -1.843029   -0.009891    0.289342
      7          6           0       -1.564244    1.331444   -0.259369
      8          6           0       -0.259854    1.661269   -0.102760
      9          8           0        0.716030    1.003070    0.618445
     10          1           0        3.229887   -1.025653   -0.466403
     11          1           0        3.275144    0.663290    0.086091
     12          1           0        2.439995    0.243773   -1.423836
     13          1           0        1.571912   -0.684072    1.387533
     14          1           0        0.126900   -0.734462   -1.322341
     15          1           0       -1.435536   -0.065443    1.309340
     16          1           0       -2.216508    1.964539   -0.846758
     17          1           0        0.102411    2.608899   -0.498272
 ---------------------------------------------------------------------

 SCF Done:  E(RB3LYP) =  -417.983732094     A.U. after    1 cycles

 The electronic state is 1-A.
 Alpha  occ. eigenvalues --  -19.17390 -14.36566 -14.35533 -10.27367 -10.25724
 Alpha  occ. eigenvalues --  -10.23440 -10.23156 -10.20846 -10.19652  -1.05045
 Alpha  occ. eigenvalues --   -0.99424  -0.85257  -0.78510  -0.76962  -0.68041
 Alpha  occ. eigenvalues --   -0.60945  -0.59369  -0.55343  -0.51173  -0.48765
 Alpha  occ. eigenvalues --   -0.47247  -0.46658  -0.44577  -0.41143  -0.40213
 Alpha  occ. eigenvalues --   -0.39668  -0.38625  -0.35250  -0.33801  -0.29933
 Alpha  occ. eigenvalues --   -0.26457  -0.25339  -0.22696
 Alpha virt. eigenvalues --   -0.07305  -0.03752   0.00685   0.09477   0.10043
 Alpha virt. eigenvalues --    0.10563   0.11940   0.13058   0.15341   0.15598
 Alpha virt. eigenvalues --    0.16646   0.17607   0.20173   0.21386   0.23039

 Mulliken charges:
               1
     1  C   -0.392849
     2  C    0.103768
     3  C    0.017572
     4  N   -0.161163
     5  N   -0.172385
     6  C   -0.005664
     7  C   -0.184974
     8  C    0.081450
     9  O   -0.297059
    10  H    0.132862
    11  H    0.136222
    12  H    0.128911
    13  H    0.124193
    14  H    0.115921
    15  H    0.126316
    16  H    0.129435
    17  H    0.117442
 Sum of Mulliken charges =  -0.00000

 Dipole moment (field-independent basis, Debye):
    X=              2.2113    Y=              2.1514    Z=             -0.6185  Tot=              3.1465
 Quadrupole moment (field-independent basis, Debye-Ang):
   XX=            -50.3522   YY=            -54.9698   ZZ=            -53.1418
   XY=             -5.8600   XZ=             -1.2167   YZ=             -2.0019

  Exact polarizability:  94.178  -1.504  79.618   1.367  -2.967  57.871
 Approx polarizability: 152.140   7.722 137.568   2.386   1.190 100.018

                      1                      2                      3
                      A                      A                      A
 Frequencies --     85.3098               189.6726               210.7760
 Red. masses --      3.9792                 4.9313                 2.6193
 Frc consts  --      0.0171                 0.1045                 0.0686
 IR Inten    --      3.1876                14.0050                 9.8224

                      4                      5                      6
                      A                      A                      A
 Frequencies --    237.8216               284.1486               317.9130
 Red. masses --      1.1949                 3.6157                 4.1728
 Frc consts  --      0.0398                 0.1720                 0.2485
 IR Inten    --      3.0444                 4.0977                 0.2162

                      7                      8                      9
                      A                      A                      A
 Frequencies --    344.6157               420.7568               478.7476
 Red. masses --      3.9338                 3.9238                 3.6016
 Frc consts  --      0.2753                 0.4093                 0.4864
 IR Inten    --      4.8258                43.5713                 4.3816

                     10                     11                     12
                      A                      A                      A
 Frequencies --    523.1170               552.8220               631.8061
 Red. masses --      3.2691                 4.2750                 2.8867
 Frc consts  --      0.5271                 0.7698                 0.6789
 IR Inten    --      5.3914                 9.6034                27.6230

                     13                     14                     15
                      A                      A                      A
 Frequencies --    664.6782               671.5547               721.4012
 Red. masses --      4.5690                 7.0386                 2.9707
 Frc consts  --      1.1893                 1.8703                 0.9109
 IR Inten    --      0.6616                12.1530                 7.4827

                     16                     17                     18
                      A                      A                      A
 Frequencies --    757.6544               904.1022               919.2965
 Red. masses --      2.4596                 1.6758                 1.5524
 Frc consts  --      0.8319                 0.8070                 0.7730
 IR Inten    --     23.3346                 6.5026                 0.3326

                     19                     20                     21
                      A                      A                      A
 Frequencies --    982.5455              1001.7864              1045.9862
 Red. masses --      3.1547                 1.4403                 1.3898
 Frc consts  --      1.7944                 0.8516                 0.8959
 IR Inten    --     93.8727                19.3751                12.4857

                     22                     23                     24
                      A                      A                      A
 Frequencies --   1053.0001              1101.3623              1125.4762
 Red. masses --      1.5227                 3.0449                 2.2874
 Frc consts  --      0.9948                 2.1761                 1.7071
 IR Inten    --     70.9144                12.8101                 4.1106

                     25                     26                     27
                      A                      A                      A
 Frequencies --   1169.4548              1213.5380              1309.3748
 Red. masses --      2.3162                 1.3978                 1.3827
 Frc consts  --      1.8663                 1.2128                 1.3967
 IR Inten    --     11.9420                35.1731                20.0937

                     28                     29                     30
                      A                      A                      A
 Frequencies --   1345.3095              1375.0422              1400.5451
 Red. masses --      1.3061                 1.2815                 1.2650
 Frc consts  --      1.3927                 1.4276                 1.4620
 IR Inten    --     11.1994                 1.6089                 4.0324

                     31                     32                     33
                      A                      A                      A
 Frequencies --   1409.4487              1428.4703              1483.5056
 Red. masses --      1.2783                 1.2257                 1.0514
 Frc consts  --      1.4962                 1.4736                 1.3633
 IR Inten    --      9.8052                 4.9845                 4.8440

                     34                     35                     36
                      A                      A                      A
 Frequencies --   1494.5176              1545.6122              1582.9694
 Red. masses --      1.0488                 6.6512                 5.5714
 Frc consts  --      1.3802                 9.3616                 8.2255
 IR Inten    --      2.7162                21.5412                48.6548

                     37                     38                     39
                      A                      A                      A
 Frequencies --   1612.4796              2985.8099              3018.4481
 Red. masses --      7.1605                 1.0804                 1.0829
 Frc consts  --     10.9694                 5.6749                 5.8131
 IR Inten    --      5.8958                20.2856                 9.6812

                     40                     41                     42
                      A                      A                      A
 Frequencies --   3041.3631              3103.4362              3119.5320
 Red. masses --      1.0359                 1.0938                 1.0953
 Frc consts  --      5.6453                 6.2067                 6.2799
 IR Inten    --     11.4309                 0.3595                21.3724

                     43                     44                     45
                      A                      A                      A
 Frequencies --   3132.0551              3140.9927              3218.7457
 Red. masses --      1.1007                 1.0879                 1.0934
 Frc consts  --      6.3618                 6.3236                 6.6744
 IR Inten    --     17.5532                14.3238                 5.4359

 - Thermochemistry -
 -------------------
 Temperature   298.150 Kelvin.  Pressure   1.00000 Atm.
 Atom     1 has atomic number  6 and mass  12.00000

 Molecular mass:   124.06366 amu.
 Principal axes and moments of inertia in atomic units:
                           1         2         3
     Eigenvalues --   653.725851076.189291548.99308
           X            0.99883  -0.04704  -0.01078
           Y            0.04680   0.99868  -0.02108
           Z            0.01176   0.02055   0.99972
 This molecule is an asymmetric top.
 Rotational symmetry number  1.
 Warning -- assumption of classical behavior for rotation
           may cause significant error
 Rotational temperatures (Kelvin)      0.13249     0.08048     0.05592
 Rotational constants (GHZ):           2.76070     1.67697     1.16511
 Zero-point vibrational energy     349052.4 (Joules/Mol)
                                   83.42552 (Kcal/Mol)
 Warning -- explicit consideration of  11 degrees of freedom as
           vibrations may cause significant error
 Vibrational temperatures:    122.74   272.90   303.26   342.17   408.83
          (Kelvin)            457.41   495.83   605.38   688.81   752.65
                              795.39   909.03   956.32   966.22  1037.94
                             1090.10  1300.80  1322.66  1413.66  1441.35
                             1504.94  1515.03  1584.61  1619.31  1682.58
                             1746.01  1883.90  1935.60  1978.38  2015.07
                             2027.88  2055.25  2134.43  2150.28  2223.79
                             2277.54  2320.00  4295.91  4342.87  4375.84
                             4465.15  4488.31  4506.33  4519.19  4631.06

 Zero-point correction=                           0.132947 (Hartree/Particle)
 Thermal correction to Energy=                    0.141283
 Thermal correction to Enthalpy=                  0.142227
 Thermal correction to Gibbs Free Energy=         0.100387
 Sum of electronic and zero-point Energies=           -417.850785
 Sum of electronic and thermal Energies=              -417.842449
 Sum of electronic and thermal Enthalpies=            -417.841505
 Sum of electronic and thermal Free Energies=         -417.883345

                     E (Thermal)             CV                S
                      KCal/Mol        Cal/Mol-Kelvin    Cal/Mol-Kelvin
 Total                   88.657             31.995             88.060
 Electronic               0.000              0.000              0.000
 Translational            0.889              2.981             40.361
 Rotational               0.889              2.981             28.479
 Vibrational             86.879             26.033             19.220
 Vibration     1          0.601              1.959              3.765
 Vibration     2          0.633              1.854              2.231
 Vibration     3          0.643              1.824              2.037
 Vibration     4          0.656              1.783              1.819
 Vibration     5          0.683              1.703              1.509
 Vibration     6          0.704              1.639              1.321
 Vibration     7          0.723              1.586              1.191
 Vibration     8          0.783              1.425              0.889
 Vibration     9          0.835              1.297              0.713
 Vibration    10          0.878              1.199              0.603
 Vibration    11          0.908              1.134              0.538

                           ! Non-Optimized Parameters !
 Normal termination of Gaussian 16 at Thu Aug  4 14:36:23 2022.
