 Gaussian 16, Revision A.03,
 Gaussian 16:  ES64L-G16RevA.03 25-Dec-2016

 -----------------------------
 # opt freq b3lyp/6-31g(2df,p)
 -----------------------------

 -------------------
 Title Card Required
 -------------------
 Symbolic Z-matrix:
 Charge =  0 Multiplicity = 1

 SCF Done:  E(RB3LYP) =  -311.107006792     A.U. after   12 cycles
 SCF Done:  E(RB3LYP) =  -311.109518349     A.U. after   10 cycles
 SCF Done:  E(RB3LYP) =  -311.109762030     A.U. after    9 cycles
 SCF Done:  E(RB3LYP) =  -311.109805881     A.U. after    9 cycles
 SCF Done:  E(RB3LYP) =  -311.109809282     A.U. after    7 cycles
 SCF Done:  E(RB3LYP) =  -311.109811007     A.U. after    7 cycles
 SCF Done:  E(RB3LYP) =  -311.109812100     A.U. after    7 cycles
 SCF Done:  E(RB3LYP) =  -311.109815503     A.U. after    8 cycles
 SCF Done:  E(RB3LYP) =  -311.109821636     A.U. after    9 cycles
 SCF Done:  E(RB3LYP) =  -311.109824219     A.U. after    9 cycles
 SCF Done:  E(RB3LYP) =  -311.109829533     A.U. after    8 cycles
 SCF Done:  E(RB3LYP) =  -311.109831818     A.U. after    9 cycles
 SCF Done:  E(RB3LYP) =  -311.109832259     A.U. after    7 cycles
 SCF Done:  E(RB3LYP) =  -311.109832383     A.U. after    7 cycles
 SCF Done:  E(RB3LYP) =  -311.109832417     A.U. after    6 cycles
 Optimization completed.
    -- Stationary point found.
 Normal termination of Gaussian 16 at Thu Aug  4 08:57:33 2022.

 ----------------------------------------------------------------------
 #N Geom=AllCheck Guess=TCheck SCRF=Check GenChk RB3LYP/6-31G(2df,p) Fr
 eq
 ----------------------------------------------------------------------

 Structure from the checkpoint file:  "CC1COCpCpC1.chk"
 -------------------
 Title Card Required
 -------------------
 Charge =  0 Multiplicity = 1

                         Standard orientation:
 ---------------------------------------------------------------------
 Center     Atomic      Atomic             Coordinates (Angstroms)
 Number     Number       Type             X           Y           Z
 ---------------------------------------------------------------------
      1          6           0       -2.545734   -0.483124    0.073711
      2          6           0       -1.143964   -0.126075   -0.415716
      3          6           0       -0.637646    1.250053    0.047341
      4          8           0        0.770790    1.182662   -0.056851
      5          6           0        1.163309   -0.104647    0.424153
      6          6           0        2.498011   -0.471574   -0.202697
      7          6           0       -0.015243   -1.060679    0.089227
      8          1           0       -3.290301    0.234285   -0.288720
      9          1           0       -2.590205   -0.486127    1.169076
     10          1           0       -2.848411   -1.476055   -0.273892
     11          1           0       -1.136701   -0.129094   -1.511673
     12          1           0       -0.949645    1.441282    1.090426
     13          1           0       -0.985759    2.082340   -0.570969
     14          1           0        1.280437   -0.048803    1.519424
     15          1           0        2.399370   -0.550980   -1.290084
     16          1           0        2.854019   -1.430787    0.186238
     17          1           0        3.250041    0.290864    0.019581
     18          1           0       -0.330364   -1.615980    0.978361
     19          1           0        0.268801   -1.795962   -0.669090
 ---------------------------------------------------------------------

 SCF Done:  E(RB3LYP) =  -311.109832417     A.U. after    1 cycles

 The electronic state is 1-A.
 Alpha  occ. eigenvalues --  -19.12706 -10.22468 -10.21716 -10.18569 -10.17696
 Alpha  occ. eigenvalues --  -10.17647 -10.17033  -1.02743  -0.79284  -0.76441
 Alpha  occ. eigenvalues --   -0.68452  -0.66158  -0.57415  -0.56535  -0.48340
 Alpha  occ. eigenvalues --   -0.47168  -0.45914  -0.41779  -0.40664  -0.40012
 Alpha  occ. eigenvalues --   -0.38948  -0.36844  -0.36047  -0.33318  -0.32590
 Alpha  occ. eigenvalues --   -0.31316  -0.30150  -0.24476
 Alpha virt. eigenvalues --    0.08574   0.10033   0.11372   0.12908   0.14947
 Alpha virt. eigenvalues --    0.15707   0.16040   0.16524   0.17186   0.18092
 Alpha virt. eigenvalues --    0.18449   0.19638   0.20338   0.20630   0.24058

 Mulliken charges:
               1
     1  C   -0.409259
     2  C    0.043261
     3  C   -0.087765
     4  O   -0.259512
     5  C    0.165080
     6  C   -0.403268
     7  C   -0.265767
     8  H    0.114466
     9  H    0.113930
    10  H    0.117244
    11  H    0.077674
    12  H    0.076906
    13  H    0.103547
    14  H    0.060925
    15  H    0.118124
    16  H    0.112526
    17  H    0.124024
    18  H    0.097000
    19  H    0.100864
 Sum of Mulliken charges =  -0.00000

 Dipole moment (field-independent basis, Debye):
    X=             -0.8239    Y=             -1.0891    Z=              0.1858  Tot=              1.3782
 Quadrupole moment (field-independent basis, Debye-Ang):
   XX=            -44.2285   YY=            -45.7868   ZZ=            -43.8648
   XY=             -2.3855   XZ=              0.7215   YZ=              0.0353

  Exact polarizability:  77.823  -2.844  64.307   0.278  -0.288  59.700
 Approx polarizability:  94.025  -2.489  91.961   0.135  -1.495  90.953

                      1                      2                      3
                      A                      A                      A
 Frequencies --     21.8777               195.2260               230.0821
 Red. masses --      2.3863                 2.3025                 1.2159
 Frc consts  --      0.0007                 0.0517                 0.0379
 IR Inten    --      0.1177                 2.9397                 0.1374

                      4                      5                      6
                      A                      A                      A
 Frequencies --    242.5864               258.8857               363.9895
 Red. masses --      1.1006                 1.8344                 2.3159
 Frc consts  --      0.0382                 0.0724                 0.1808
 IR Inten    --      0.1265                 0.4730                 1.1053

                      7                      8                      9
                      A                      A                      A
 Frequencies --    417.9568               445.3547               577.9267
 Red. masses --      1.9969                 2.2777                 3.1047
 Frc consts  --      0.2055                 0.2662                 0.6110
 IR Inten    --      0.7262                 1.8520                 0.9232

                     10                     11                     12
                      A                      A                      A
 Frequencies --    650.1730               827.0749               846.9139
 Red. masses --      4.7080                 2.9503                 2.4156
 Frc consts  --      1.1726                 1.1891                 1.0208
 IR Inten    --      4.9111                 7.8044                 4.8961

                     13                     14                     15
                      A                      A                      A
 Frequencies --    888.0454               904.7324               932.6820
 Red. masses --      1.3777                 2.0404                 1.7325
 Frc consts  --      0.6401                 0.9840                 0.8879
 IR Inten    --      0.6331                 5.6781                 4.4560

                     16                     17                     18
                      A                      A                      A
 Frequencies --    964.5424              1023.1812              1061.7885
 Red. masses --      1.4250                 1.2467                 2.4525
 Frc consts  --      0.7811                 0.7690                 1.6291
 IR Inten    --      4.6213                 3.2523                16.3836

                     19                     20                     21
                      A                      A                      A
 Frequencies --   1089.0501              1126.8883              1146.8524
 Red. masses --      2.9721                 3.5081                 1.9485
 Frc consts  --      2.0769                 2.6248                 1.5099
 IR Inten    --     30.8127                70.4172                 9.6647

                     22                     23                     24
                      A                      A                      A
 Frequencies --   1161.6605              1173.6250              1235.4603
 Red. masses --      2.1061                 2.1338                 1.4593
 Frc consts  --      1.6745                 1.7316                 1.3123
 IR Inten    --     11.2218                 5.1223                 5.7992

                     25                     26                     27
                      A                      A                      A
 Frequencies --   1263.5338              1293.9362              1327.2774
 Red. masses --      1.2595                 1.3036                 1.2397
 Frc consts  --      1.1847                 1.2859                 1.2867
 IR Inten    --      1.4538                 2.2931                 0.5460

                     28                     29                     30
                      A                      A                      A
 Frequencies --   1347.4165              1360.8686              1386.9021
 Red. masses --      1.2590                 1.3110                 1.3251
 Frc consts  --      1.3467                 1.4305                 1.5018
 IR Inten    --     11.0606                 8.5846                 9.6882

                     31                     32                     33
                      A                      A                      A
 Frequencies --   1403.1687              1411.3739              1414.2768
 Red. masses --      1.4449                 1.3763                 1.2673
 Frc consts  --      1.6761                 1.6153                 1.4935
 IR Inten    --      0.5223                16.8320                 2.0370

                     34                     35                     36
                      A                      A                      A
 Frequencies --   1484.4687              1494.1975              1496.6451
 Red. masses --      1.0490                 1.0682                 1.0510
 Frc consts  --      1.3620                 1.4051                 1.3871
 IR Inten    --      2.0335                 2.7824                 1.8978

                     37                     38                     39
                      A                      A                      A
 Frequencies --   1499.8624              1501.9334              1515.3074
 Red. masses --      1.0526                 1.0625                 1.0973
 Frc consts  --      1.3951                 1.4121                 1.4845
 IR Inten    --      4.8743                 0.1909                 3.3503

                     40                     41                     42
                      A                      A                      A
 Frequencies --   2938.2069              2952.6197              3025.2512
 Red. masses --      1.0721                 1.0826                 1.0367
 Frc consts  --      5.4530                 5.5607                 5.5904
 IR Inten    --     52.8413                72.9220                25.3073

                     43                     44                     45
                      A                      A                      A
 Frequencies --   3033.4853              3036.8736              3048.6555
 Red. masses --      1.0829                 1.0351                 1.0599
 Frc consts  --      5.8711                 5.6245                 5.8038
 IR Inten    --     14.7237                17.3068                26.6267

                     46                     47                     48
                      A                      A                      A
 Frequencies --   3084.5465              3088.3997              3095.6256
 Red. masses --      1.0925                 1.1031                 1.1019
 Frc consts  --      6.1240                 6.1994                 6.2216
 IR Inten    --     16.4621                22.6413                53.6289

                     49                     50                     51
                      A                      A                      A
 Frequencies --   3098.3862              3110.5294              3115.8851
 Red. masses --      1.1007                 1.1017                 1.1018
 Frc consts  --      6.2255                 6.2802                 6.3026
 IR Inten    --     33.8749                30.4842                25.0328

 - Thermochemistry -
 -------------------
 Temperature   298.150 Kelvin.  Pressure   1.00000 Atm.
 Atom     1 has atomic number  6 and mass  12.00000

 Molecular mass:   100.08882 amu.
 Principal axes and moments of inertia in atomic units:
                           1         2         3
     Eigenvalues --   333.31324 965.261001185.87855
           X            0.99985  -0.01666  -0.00471
           Y            0.01669   0.99985   0.00552
           Z            0.00462  -0.00560   0.99997
 This molecule is an asymmetric top.
 Rotational symmetry number  1.
 Rotational temperatures (Kelvin)      0.25986     0.08973     0.07304
 Rotational constants (GHZ):           5.41455     1.86969     1.52186
 Zero-point vibrational energy     452285.3 (Joules/Mol)
                                  108.09877 (Kcal/Mol)
 Warning -- explicit consideration of   9 degrees of freedom as
           vibrations may cause significant error
 Vibrational temperatures:     31.48   280.89   331.04   349.03   372.48
          (Kelvin)            523.70   601.35   640.77   831.51   935.45
                             1189.98  1218.52  1277.70  1301.71  1341.92
                             1387.76  1472.13  1527.68  1566.90  1621.34
                             1650.06  1671.37  1688.58  1777.55  1817.94
                             1861.69  1909.66  1938.63  1957.99  1995.44
                             2018.85  2030.65  2034.83  2135.82  2149.82
                             2153.34  2157.97  2160.95  2180.19  4227.42
                             4248.16  4352.66  4364.51  4369.38  4386.34
                             4437.97  4443.52  4453.91  4457.89  4475.36
                             4483.06

 Zero-point correction=                           0.172266 (Hartree/Particle)
 Thermal correction to Energy=                    0.179894
 Thermal correction to Enthalpy=                  0.180838
 Thermal correction to Gibbs Free Energy=         0.139787
 Sum of electronic and zero-point Energies=           -310.937566
 Sum of electronic and thermal Energies=              -310.929939
 Sum of electronic and thermal Enthalpies=            -310.928994
 Sum of electronic and thermal Free Energies=         -310.970045

                     E (Thermal)             CV                S
                      KCal/Mol        Cal/Mol-Kelvin    Cal/Mol-Kelvin
 Total                  112.885             28.200             86.399
 Electronic               0.000              0.000              0.000
 Translational            0.889              2.981             39.721
 Rotational               0.889              2.981             27.436
 Vibrational            111.108             22.239             19.242
 Vibration     1          0.593              1.985              6.456
 Vibration     2          0.636              1.847              2.178
 Vibration     3          0.652              1.795              1.878
 Vibration     4          0.659              1.775              1.784
 Vibration     5          0.668              1.748              1.669
 Vibration     6          0.738              1.546              1.105
 Vibration     7          0.781              1.431              0.899
 Vibration     8          0.805              1.371              0.810
 Vibration     9          0.934              1.079              0.489

 Optimization completed.
    -- Stationary point found.
 Normal termination of Gaussian 16 at Thu Aug  4 09:16:38 2022.
