 Gaussian 16, Revision A.03,
 Gaussian 16:  ES64L-G16RevA.03 25-Dec-2016

 -----------------------------
 # opt freq b3lyp/6-31g(2df,p)
 -----------------------------

 -------------------
 Title Card Required
 -------------------
 Symbolic Z-matrix:
 Charge =  0 Multiplicity = 1

 SCF Done:  E(RB3LYP) =  -367.295713838     A.U. after   13 cycles
 SCF Done:  E(RB3LYP) =  -367.345135174     A.U. after   12 cycles
 SCF Done:  E(RB3LYP) =  -367.396810362     A.U. after   12 cycles
 SCF Done:  E(RB3LYP) =  -367.419553631     A.U. after   12 cycles
 SCF Done:  E(RB3LYP) =  -367.427363172     A.U. after   12 cycles
 SCF Done:  E(RB3LYP) =  -367.429829941     A.U. after   11 cycles
 SCF Done:  E(RB3LYP) =  -367.430919204     A.U. after   10 cycles
 SCF Done:  E(RB3LYP) =  -367.431885235     A.U. after   11 cycles
 SCF Done:  E(RB3LYP) =  -367.432136822     A.U. after   10 cycles
 SCF Done:  E(RB3LYP) =  -367.432210566     A.U. after   10 cycles
 SCF Done:  E(RB3LYP) =  -367.432234039     A.U. after    9 cycles
 SCF Done:  E(RB3LYP) =  -367.432235037     A.U. after    7 cycles
 SCF Done:  E(RB3LYP) =  -367.432235323     A.U. after    7 cycles
 Optimization completed.
    -- Stationary point found.
 Normal termination of Gaussian 16 at Mon Jul  4 00:00:11 2022.

 ----------------------------------------------------------------------
 #N Geom=AllCheck Guess=TCheck SCRF=Check GenChk RB3LYP/6-31G(2df,p) Fr
 eq
 ----------------------------------------------------------------------

 Structure from the checkpoint file:  "CC1dNCC2CCCC12.chk"
 -------------------
 Title Card Required
 -------------------
 Charge =  0 Multiplicity = 1

                         Standard orientation:
 ---------------------------------------------------------------------
 Center     Atomic      Atomic             Coordinates (Angstroms)
 Number     Number       Type             X           Y           Z
 ---------------------------------------------------------------------
      1          6           0       -2.526926   -1.240276   -0.008107
      2          6           0       -1.479477   -0.173960    0.035655
      3          7           0       -1.755798    1.072447   -0.084714
      4          6           0       -0.495361    1.860653    0.030697
      5          6           0        0.590707    0.835368   -0.300710
      6          6           0        2.054442    0.745870    0.121275
      7          6           0        2.340909   -0.795168   -0.021897
      8          6           0        0.948749   -1.520639   -0.134546
      9          6           0       -0.011109   -0.422307    0.324465
     10          1           0       -3.511086   -0.802572   -0.183935
     11          1           0       -2.545292   -1.801070    0.934710
     12          1           0       -2.307965   -1.967492   -0.799122
     13          1           0       -0.409533    2.240539    1.059756
     14          1           0       -0.539921    2.725439   -0.636686
     15          1           0        0.550020    0.686500   -1.391573
     16          1           0        2.180189    1.063817    1.162618
     17          1           0        2.732629    1.347949   -0.488872
     18          1           0        2.903827   -1.163322    0.840391
     19          1           0        2.953629   -1.001235   -0.903802
     20          1           0        0.910321   -2.431050    0.469099
     21          1           0        0.747625   -1.805633   -1.173025
     22          1           0        0.094536   -0.336254    1.422442
 ---------------------------------------------------------------------

 SCF Done:  E(RB3LYP) =  -367.432235323     A.U. after    1 cycles

 The electronic state is 1-A.
 Alpha  occ. eigenvalues --  -14.30312 -10.21754 -10.19714 -10.18533 -10.18441
 Alpha  occ. eigenvalues --  -10.18352 -10.18207 -10.18077 -10.17957  -0.92649
 Alpha  occ. eigenvalues --   -0.82920  -0.75346  -0.70858  -0.70484  -0.65477
 Alpha  occ. eigenvalues --   -0.57867  -0.56429  -0.51532  -0.47982  -0.46674
 Alpha  occ. eigenvalues --   -0.44677  -0.43370  -0.41424  -0.40281  -0.38324
 Alpha  occ. eigenvalues --   -0.37238  -0.35990  -0.35089  -0.33789  -0.33108
 Alpha  occ. eigenvalues --   -0.31685  -0.30139  -0.26411  -0.23670
 Alpha virt. eigenvalues --    0.01369   0.08320   0.09543   0.10457   0.11837
 Alpha virt. eigenvalues --    0.14145   0.14928   0.15220   0.16114   0.16588
 Alpha virt. eigenvalues --    0.16917   0.18362   0.19117   0.19636   0.19977

 Mulliken charges:
               1
     1  C   -0.488197
     2  C    0.267214
     3  N   -0.242765
     4  C   -0.229074
     5  C    0.082217
     6  C   -0.276613
     7  C   -0.194132
     8  C   -0.275332
     9  C   -0.007449
    10  H    0.141049
    11  H    0.128208
    12  H    0.130056
    13  H    0.102748
    14  H    0.103307
    15  H    0.076364
    16  H    0.097797
    17  H    0.096182
    18  H    0.103090
    19  H    0.103737
    20  H    0.095830
    21  H    0.101334
    22  H    0.084431
 Sum of Mulliken charges =  -0.00000

 Dipole moment (field-independent basis, Debye):
    X=              1.6396    Y=             -1.4028    Z=              0.2938  Tot=              2.1777
 Quadrupole moment (field-independent basis, Debye-Ang):
   XX=            -59.3263   YY=            -55.5157   ZZ=            -54.2351
   XY=              4.3563   XZ=             -0.6361   YZ=              0.0487

  Exact polarizability:  95.376   1.763  95.227   0.547  -0.625  69.840
 Approx polarizability: 122.303  -1.235 142.230   1.450  -2.398 113.439

                      1                      2                      3
                      A                      A                      A
 Frequencies --    111.7616               144.6031               173.8720
 Red. masses --      1.7787                 2.3148                 1.0698
 Frc consts  --      0.0131                 0.0285                 0.0191
 IR Inten    --      0.1331                 0.5742                 0.4815

                      4                      5                      6
                      A                      A                      A
 Frequencies --    218.7483               281.8855               292.4721
 Red. masses --      2.7072                 2.5940                 2.2739
 Frc consts  --      0.0763                 0.1214                 0.1146
 IR Inten    --      0.5617                 1.2229                 4.3007

                      7                      8                      9
                      A                      A                      A
 Frequencies --    431.8444               460.2459               549.3213
 Red. masses --      2.9935                 2.3873                 3.6086
 Frc consts  --      0.3289                 0.2979                 0.6416
 IR Inten    --      0.6255                 1.1384                 0.9419

                     10                     11                     12
                      A                      A                      A
 Frequencies --    559.3315               618.1913               690.0897
 Red. masses --      3.8277                 2.6102                 3.2552
 Frc consts  --      0.7056                 0.5877                 0.9133
 IR Inten    --      1.2732                 0.7011                 4.5579

                     13                     14                     15
                      A                      A                      A
 Frequencies --    765.2099               815.8705               875.0521
 Red. masses --      1.2555                 3.0485                 2.6608
 Frc consts  --      0.4331                 1.1956                 1.2004
 IR Inten    --      0.9617                 0.2162                 0.6761

                     16                     17                     18
                      A                      A                      A
 Frequencies --    891.2166               921.7577               930.5425
 Red. masses --      2.3195                 1.9861                 2.3728
 Frc consts  --      1.0855                 0.9942                 1.2106
 IR Inten    --      4.0334                 8.8311                 5.7195

                     19                     20                     21
                      A                      A                      A
 Frequencies --    959.9437               983.3813              1011.1234
 Red. masses --      2.0210                 1.7567                 2.0156
 Frc consts  --      1.0972                 1.0009                 1.2141
 IR Inten    --      1.8379                 0.9576                 0.4209

                     22                     23                     24
                      A                      A                      A
 Frequencies --   1043.0595              1047.7993              1074.7804
 Red. masses --      1.9100                 1.4721                 2.6034
 Frc consts  --      1.2244                 0.9523                 1.7719
 IR Inten    --      2.0934                 0.3332                 2.7818

                     25                     26                     27
                      A                      A                      A
 Frequencies --   1134.3345              1145.1291              1157.1394
 Red. masses --      2.2954                 2.2452                 1.3770
 Frc consts  --      1.7402                 1.7347                 1.0863
 IR Inten    --      0.3330                 2.4273                 2.7282

                     28                     29                     30
                      A                      A                      A
 Frequencies --   1175.8937              1219.6377              1252.8131
 Red. masses --      1.4161                 1.4103                 1.4692
 Frc consts  --      1.1537                 1.2360                 1.3587
 IR Inten    --      0.7786                 5.0231                 5.0795

                     31                     32                     33
                      A                      A                      A
 Frequencies --   1260.6551              1272.3661              1286.9139
 Red. masses --      1.2559                 1.4033                 1.3786
 Frc consts  --      1.1759                 1.3385                 1.3452
 IR Inten    --      2.0613                 4.2881                 2.8588

                     34                     35                     36
                      A                      A                      A
 Frequencies --   1310.9823              1318.6297              1323.0303
 Red. masses --      1.3459                 1.5631                 1.3826
 Frc consts  --      1.3629                 1.6013                 1.4259
 IR Inten    --      7.2781                20.9518                 2.1690

                     37                     38                     39
                      A                      A                      A
 Frequencies --   1354.4020              1377.8761              1401.1736
 Red. masses --      1.4699                 1.5112                 1.4541
 Frc consts  --      1.5887                 1.6905                 1.6821
 IR Inten    --      1.7676                 1.6744                 5.0329

                     40                     41                     42
                      A                      A                      A
 Frequencies --   1409.1191              1471.3579              1479.8928
 Red. masses --      1.4966                 1.0705                 1.0470
 Frc consts  --      1.7508                 1.3655                 1.3510
 IR Inten    --      9.3287                 8.9692                 7.3781

                     43                     44                     45
                      A                      A                      A
 Frequencies --   1486.5993              1493.6164              1499.9529
 Red. masses --      1.0790                 1.1023                 1.0934
 Frc consts  --      1.4049                 1.4489                 1.4494
 IR Inten    --      0.2261                 0.6327                 3.1437

                     46                     47                     48
                      A                      A                      A
 Frequencies --   1513.1739              1678.1745              2926.5377
 Red. masses --      1.1063                 8.1224                 1.0783
 Frc consts  --      1.4925                13.4776                 5.4415
 IR Inten    --      0.0992                47.7488                15.6104

                     49                     50                     51
                      A                      A                      A
 Frequencies --   2977.7030              3005.0063              3025.8332
 Red. masses --      1.0814                 1.0695                 1.0384
 Frc consts  --      5.6492                 5.6904                 5.6015
 IR Inten    --     16.4310                42.2545                14.2889

                     52                     53                     54
                      A                      A                      A
 Frequencies --   3039.4009              3042.8652              3059.0437
 Red. masses --      1.0633                 1.0626                 1.0627
 Frc consts  --      5.7875                 5.7966                 5.8593
 IR Inten    --     26.1843                43.0695                43.5197

                     55                     56                     57
                      A                      A                      A
 Frequencies --   3075.8433              3081.7267              3085.6270
 Red. masses --      1.0977                 1.1005                 1.0949
 Frc consts  --      6.1189                 6.1581                 6.1421
 IR Inten    --     13.6715                 9.2251                42.5807

                     58                     59                     60
                      A                      A                      A
 Frequencies --   3093.5032              3108.2626              3138.6664
 Red. masses --      1.1008                 1.1053                 1.0996
 Frc consts  --      6.2067                 6.2919                 6.3824
 IR Inten    --     12.4920                67.4927                11.4602

 - Thermochemistry -
 -------------------
 Temperature   298.150 Kelvin.  Pressure   1.00000 Atm.
 Atom     1 has atomic number  6 and mass  12.00000

 Molecular mass:   123.10480 amu.
 Principal axes and moments of inertia in atomic units:
                           1         2         3
     Eigenvalues --   639.103141254.511651788.57041
           X            0.99942   0.03406  -0.00016
           Y           -0.03405   0.99941   0.00474
           Z            0.00033  -0.00473   0.99999
 This molecule is an asymmetric top.
 Rotational symmetry number  1.
 Warning -- assumption of classical behavior for rotation
           may cause significant error
 Rotational temperatures (Kelvin)      0.13552     0.06904     0.04843
 Rotational constants (GHZ):           2.82387     1.43860     1.00904
 Zero-point vibrational energy     517594.2 (Joules/Mol)
                                  123.70797 (Kcal/Mol)
 Warning -- explicit consideration of  11 degrees of freedom as
           vibrations may cause significant error
 Vibrational temperatures:    160.80   208.05   250.16   314.73   405.57
          (Kelvin)            420.80   621.33   662.19   790.35   804.75
                              889.44   992.89  1100.97  1173.86  1259.00
                             1282.26  1326.20  1338.84  1381.14  1414.87
                             1454.78  1500.73  1507.55  1546.37  1632.05
                             1647.59  1664.87  1691.85  1754.79  1802.52
                             1813.80  1830.65  1851.58  1886.21  1897.21
                             1903.55  1948.68  1982.46  2015.98  2027.41
                             2116.96  2129.24  2138.88  2148.98  2158.10
                             2177.12  2414.52  4210.63  4284.25  4323.53
                             4353.50  4373.02  4378.00  4401.28  4425.45
                             4433.92  4439.53  4450.86  4472.10  4515.84

 Zero-point correction=                           0.197141 (Hartree/Particle)
 Thermal correction to Energy=                    0.205349
 Thermal correction to Enthalpy=                  0.206293
 Thermal correction to Gibbs Free Energy=         0.164508
 Sum of electronic and zero-point Energies=           -367.235094
 Sum of electronic and thermal Energies=              -367.226887
 Sum of electronic and thermal Enthalpies=            -367.225943
 Sum of electronic and thermal Free Energies=         -367.267727

                     E (Thermal)             CV                S
                      KCal/Mol        Cal/Mol-Kelvin    Cal/Mol-Kelvin
 Total                  128.858             32.365             87.943
 Electronic               0.000              0.000              0.000
 Translational            0.889              2.981             40.338
 Rotational               0.889              2.981             28.752
 Vibrational            127.081             26.403             18.854
 Vibration     1          0.607              1.940              3.238
 Vibration     2          0.616              1.908              2.742
 Vibration     3          0.627              1.875              2.393
 Vibration     4          0.647              1.813              1.969
 Vibration     5          0.681              1.707              1.522
 Vibration     6          0.688              1.688              1.460
 Vibration     7          0.793              1.401              0.853
 Vibration     8          0.818              1.338              0.765
 Vibration     9          0.905              1.141              0.546
 Vibration    10          0.915              1.119              0.525
 Vibration    11          0.978              0.993              0.419

                           ! Non-Optimized Parameters !
 Normal termination of Gaussian 16 at Mon Jul  4 00:44:48 2022.
