 Gaussian 16, Revision A.03,
 Gaussian 16:  ES64L-G16RevA.03 25-Dec-2016

 -----------------------------
 # opt freq b3lyp/6-31g(2df,p)
 -----------------------------

 -------------------
 Title Card Required
 -------------------
 Symbolic Z-matrix:
 Charge =  0 Multiplicity = 1

 SCF Done:  E(RB3LYP) =  -378.807975704     A.U. after   16 cycles
 SCF Done:  E(RB3LYP) =  -378.823338291     A.U. after   14 cycles
 SCF Done:  E(RB3LYP) =  -378.827376629     A.U. after   14 cycles
 SCF Done:  E(RB3LYP) =  -378.828341495     A.U. after   13 cycles
 SCF Done:  E(RB3LYP) =  -378.828452358     A.U. after   12 cycles
 SCF Done:  E(RB3LYP) =  -378.828454110     A.U. after   11 cycles
 SCF Done:  E(RB3LYP) =  -378.828464942     A.U. after   11 cycles
 SCF Done:  E(RB3LYP) =  -378.828469412     A.U. after    9 cycles
 Optimization completed.
    -- Stationary point found.
 Normal termination of Gaussian 16 at Sun Jul  3 15:39:37 2022.

 ----------------------------------------------------------------------
 #N Geom=AllCheck Guess=TCheck SCRF=Check GenChk RB3LYP/6-31G(2df,p) Fr
 eq
 ----------------------------------------------------------------------

 Structure from the checkpoint file:  "CC1dCpCpCpdOpNdN1.chk"
 -------------------
 Title Card Required
 -------------------
 Charge =  0 Multiplicity = 1

                         Standard orientation:
 ---------------------------------------------------------------------
 Center     Atomic      Atomic             Coordinates (Angstroms)
 Number     Number       Type             X           Y           Z
 ---------------------------------------------------------------------
      1          6           0       -2.474202    0.050413    0.000019
      2          6           0       -1.008606   -0.158920    0.000007
      3          6           0        0.042932    0.660263    0.000002
      4          6           0        0.168615    2.144436   -0.000030
      5          6           0        1.230192   -0.241744    0.000054
      6          8           0        2.396216    0.012868    0.000025
      7          7           0        0.691057   -1.657845   -0.000057
      8          7           0       -0.545960   -1.584086   -0.000010
      9          1           0       -2.736697    1.110155   -0.000239
     10          1           0       -2.925242   -0.426644    0.878236
     11          1           0       -2.925304   -0.427107   -0.877909
     12          1           0       -0.807234    2.635279    0.000243
     13          1           0        0.727489    2.486107   -0.878163
     14          1           0        0.727989    2.486094    0.877786
 ---------------------------------------------------------------------

 SCF Done:  E(RB3LYP) =  -378.828469412     A.U. after    1 cycles

 The electronic state is 1-A.
 Alpha  occ. eigenvalues --  -19.17264 -14.40009 -14.38529 -10.30373 -10.24444
 Alpha  occ. eigenvalues --  -10.21845 -10.21032 -10.20839  -1.09019  -1.04980
 Alpha  occ. eigenvalues --   -0.84116  -0.77476  -0.71250  -0.69366  -0.57271
 Alpha  occ. eigenvalues --   -0.56727  -0.48510  -0.47791  -0.45711  -0.43517
 Alpha  occ. eigenvalues --   -0.43464  -0.42583  -0.41474  -0.40352  -0.38222
 Alpha  occ. eigenvalues --   -0.36387  -0.32112  -0.27515  -0.24198
 Alpha virt. eigenvalues --   -0.12215   0.01744   0.05867   0.07846   0.11721
 Alpha virt. eigenvalues --    0.12051   0.14207   0.15639   0.17668   0.18256
 Alpha virt. eigenvalues --    0.20434   0.21476   0.24436   0.27585   0.31685

 Mulliken charges:
               1
     1  C   -0.485231
     2  C    0.246153
     3  C    0.069116
     4  C   -0.503088
     5  C    0.388861
     6  O   -0.257073
     7  N   -0.189016
     8  N   -0.157369
     9  H    0.137145
    10  H    0.156731
    11  H    0.156731
    12  H    0.132810
    13  H    0.152113
    14  H    0.152115
 Sum of Mulliken charges =  -0.00000

 Dipole moment (field-independent basis, Debye):
    X=             -3.1465    Y=              3.1681    Z=              0.0001  Tot=              4.4651
 Quadrupole moment (field-independent basis, Debye-Ang):
   XX=            -48.3168   YY=            -49.5110   ZZ=            -44.1105
   XY=              0.5050   XZ=             -0.0000   YZ=             -0.0004

  Exact polarizability:  87.551   6.499  70.205  -0.001  -0.000  40.756
 Approx polarizability: 154.415  20.170 106.312  -0.002  -0.001  64.324

                      1                      2                      3
                      A                      A                      A
 Frequencies --     75.3675               122.0777               136.4217
 Red. masses --      1.0756                 2.9003                 1.1375
 Frc consts  --      0.0036                 0.0255                 0.0125
 IR Inten    --      0.7433                 0.0036                 0.2213

                      4                      5                      6
                      A                      A                      A
 Frequencies --    230.6319               264.5885               293.0058
 Red. masses --      2.6561                 3.6606                 3.5761
 Frc consts  --      0.0832                 0.1510                 0.1809
 IR Inten    --      1.1981                 0.0245                 0.2996

                      7                      8                      9
                      A                      A                      A
 Frequencies --    319.3186               498.3320               572.8151
 Red. masses --      6.6904                 6.7008                 3.8505
 Frc consts  --      0.4019                 0.9804                 0.7444
 IR Inten    --      5.4240                 3.0816                 2.2632

                     10                     11                     12
                      A                      A                      A
 Frequencies --    574.2946               635.1090               721.0881
 Red. masses --      5.9137                 6.2855                 5.2458
 Frc consts  --      1.1492                 1.4938                 1.6071
 IR Inten    --      0.6021                 0.4750                 4.2687

                     13                     14                     15
                      A                      A                      A
 Frequencies --    764.5746               830.8621               931.0608
 Red. masses --      7.1568                 3.7175                 2.3405
 Frc consts  --      2.4650                 1.5120                 1.1954
 IR Inten    --     18.5594                25.8895                 1.5604

                     16                     17                     18
                      A                      A                      A
 Frequencies --   1033.1826              1046.8551              1065.9878
 Red. masses --      5.4606                 1.5111                 1.5652
 Frc consts  --      3.4344                 0.9757                 1.0479
 IR Inten    --     33.4810                 1.0260                 0.1831

                     19                     20                     21
                      A                      A                      A
 Frequencies --   1120.7412              1140.4184              1312.8705
 Red. masses --      2.4871                 2.2397                 3.8796
 Frc consts  --      1.8405                 1.7162                 3.9399
 IR Inten    --      2.3255                 4.9869                48.8997

                     22                     23                     24
                      A                      A                      A
 Frequencies --   1413.1306              1418.9939              1465.5773
 Red. masses --      1.3836                 1.2706                 1.0431
 Frc consts  --      1.6279                 1.5073                 1.3201
 IR Inten    --     11.8710                 1.4999                 4.7558

                     25                     26                     27
                      A                      A                      A
 Frequencies --   1473.8189              1475.4582              1483.4575
 Red. masses --      1.0562                 1.0417                 1.0563
 Frc consts  --      1.3518                 1.3361                 1.3696
 IR Inten    --     13.4997                 7.4011                 3.6048

                     28                     29                     30
                      A                      A                      A
 Frequencies --   1596.6040              1763.2799              1877.9367
 Red. masses --     12.9888                 9.4292                12.9980
 Frc consts  --     19.5080                17.2730                27.0077
 IR Inten    --     31.5676                51.3738               198.7991

                     31                     32                     33
                      A                      A                      A
 Frequencies --   3030.9289              3036.6307              3082.3676
 Red. masses --      1.0377                 1.0366                 1.0981
 Frc consts  --      5.6168                 5.6317                 6.1469
 IR Inten    --      4.5200                13.1084                 4.7119

                     34                     35                     36
                      A                      A                      A
 Frequencies --   3089.7795              3123.9451              3132.5238
 Red. masses --      1.0991                 1.1010                 1.1000
 Frc consts  --      6.1820                 6.3306                 6.3594
 IR Inten    --      7.4531                 9.8525                12.2084

 - Thermochemistry -
 -------------------
 Temperature   298.150 Kelvin.  Pressure   1.00000 Atm.
 Atom     1 has atomic number  6 and mass  12.00000

 Molecular mass:   110.04801 amu.
 Principal axes and moments of inertia in atomic units:
                           1         2         3
     Eigenvalues --   566.71038 842.632871387.14673
           X            0.99999   0.00499  -0.00000
           Y           -0.00499   0.99999  -0.00000
           Z            0.00000   0.00000   1.00000
 This molecule is an asymmetric top.
 Rotational symmetry number  1.
 Warning -- assumption of classical behavior for rotation
           may cause significant error
 Rotational temperatures (Kelvin)      0.15284     0.10279     0.06244
 Rotational constants (GHZ):           3.18459     2.14179     1.30105
 Zero-point vibrational energy     276062.4 (Joules/Mol)
                                   65.98051 (Kcal/Mol)
 Warning -- explicit consideration of  10 degrees of freedom as
           vibrations may cause significant error
 Vibrational temperatures:    108.44   175.64   196.28   331.83   380.68
          (Kelvin)            421.57   459.43   716.99   824.15   826.28
                              913.78  1037.48  1100.05  1195.43  1339.59
                             1486.52  1506.19  1533.72  1612.50  1640.81
                             1888.93  2033.18  2041.62  2108.64  2120.50
                             2122.86  2134.36  2297.16  2536.97  2701.93
                             4360.83  4369.03  4434.84  4445.50  4494.66
                             4507.00

 Zero-point correction=                           0.105147 (Hartree/Particle)
 Thermal correction to Energy=                    0.113146
 Thermal correction to Enthalpy=                  0.114090
 Thermal correction to Gibbs Free Energy=         0.072499
 Sum of electronic and zero-point Energies=           -378.723323
 Sum of electronic and thermal Energies=              -378.715324
 Sum of electronic and thermal Enthalpies=            -378.714380
 Sum of electronic and thermal Free Energies=         -378.755971

                     E (Thermal)             CV                S
                      KCal/Mol        Cal/Mol-Kelvin    Cal/Mol-Kelvin
 Total                   71.000             27.843             87.536
 Electronic               0.000              0.000              0.000
 Translational            0.889              2.981             40.003
 Rotational               0.889              2.981             27.984
 Vibrational             69.223             21.881             19.548
 Vibration     1          0.599              1.965              4.008
 Vibration     2          0.610              1.931              3.067
 Vibration     3          0.614              1.917              2.853
 Vibration     4          0.652              1.794              1.874
 Vibration     5          0.671              1.738              1.631
 Vibration     6          0.688              1.687              1.457
 Vibration     7          0.705              1.637              1.314
 Vibration     8          0.854              1.254              0.662
 Vibration     9          0.929              1.090              0.499
 Vibration    10          0.931              1.087              0.496

                           ! Non-Optimized Parameters !
 Normal termination of Gaussian 16 at Sun Jul  3 15:55:17 2022.
