 Gaussian 16, Revision A.03,
 Gaussian 16:  ES64L-G16RevA.03 25-Dec-2016

 -----------------------------
 # opt freq b3lyp/6-31g(2df,p)
 -----------------------------

 -------------------
 Title Card Required
 -------------------
 Symbolic Z-matrix:
 Charge =  0 Multiplicity = 1

 SCF Done:  E(RB3LYP) =  -429.090376477     A.U. after   15 cycles
 SCF Done:  E(RB3LYP) =  -429.097582679     A.U. after   14 cycles
 SCF Done:  E(RB3LYP) =  -429.098591238     A.U. after   13 cycles
 SCF Done:  E(RB3LYP) =  -429.098704982     A.U. after   12 cycles
 SCF Done:  E(RB3LYP) =  -429.098758993     A.U. after   10 cycles
 SCF Done:  E(RB3LYP) =  -429.098769716     A.U. after   10 cycles
 SCF Done:  E(RB3LYP) =  -429.098771170     A.U. after    9 cycles
 SCF Done:  E(RB3LYP) =  -429.098771522     A.U. after    7 cycles
 SCF Done:  E(RB3LYP) =  -429.098771819     A.U. after    7 cycles
 SCF Done:  E(RB3LYP) =  -429.098771942     A.U. after    7 cycles
 SCF Done:  E(RB3LYP) =  -429.098772014     A.U. after    7 cycles
 Optimization completed.
    -- Stationary point found.
 Normal termination of Gaussian 16 at Thu Aug  4 08:51:44 2022.

 ----------------------------------------------------------------------
 #N Geom=AllCheck Guess=TCheck SCRF=Check GenChk RB3LYP/6-31G(2df,p) Fr
 eq
 ----------------------------------------------------------------------

 Structure from the checkpoint file:  "CC1dNCdNCdNNdN1.chk"
 -------------------
 Title Card Required
 -------------------
 Charge =  0 Multiplicity = 1

                         Standard orientation:
 ---------------------------------------------------------------------
 Center     Atomic      Atomic             Coordinates (Angstroms)
 Number     Number       Type             X           Y           Z
 ---------------------------------------------------------------------
      1          6           0        2.483242    0.054258    0.560123
      2          6           0        1.132951    0.263801   -0.042645
      3          7           0        0.479379    1.352411    0.087369
      4          6           0       -0.815850    1.462219   -0.406253
      5          7           0       -1.818413    0.739198   -0.070011
      6          6           0       -1.601572   -0.346919    0.768901
      7          7           0       -0.880749   -1.376155    0.525463
      8          7           0       -0.283269   -1.460059   -0.729427
      9          7           0        0.714827   -0.761557   -0.962789
     10          1           0        2.764463    0.919139    1.160678
     11          1           0        3.222039   -0.110126   -0.230593
     12          1           0        2.475134   -0.845975    1.184175
     13          1           0       -0.988911    2.316744   -1.059727
     14          1           0       -2.147772   -0.336800    1.710480
 ---------------------------------------------------------------------

 SCF Done:  E(RB3LYP) =  -429.098772014     A.U. after    1 cycles

 The electronic state is 1-A.
 Alpha  occ. eigenvalues --  -14.43459 -14.39733 -14.37152 -14.35749 -14.35187
 Alpha  occ. eigenvalues --  -10.29720 -10.28730 -10.27778 -10.21165  -1.09418
 Alpha  occ. eigenvalues --   -0.98979  -0.96064  -0.88297  -0.79544  -0.72697
 Alpha  occ. eigenvalues --   -0.67141  -0.64947  -0.57789  -0.53406  -0.50409
 Alpha  occ. eigenvalues --   -0.47252  -0.46315  -0.43435  -0.42656  -0.42241
 Alpha  occ. eigenvalues --   -0.37992  -0.36115  -0.34392  -0.31688  -0.29122
 Alpha  occ. eigenvalues --   -0.27011  -0.25185
 Alpha virt. eigenvalues --   -0.08012  -0.04196  -0.02021   0.02086   0.10441
 Alpha virt. eigenvalues --    0.12036   0.13330   0.13925   0.15060   0.17007
 Alpha virt. eigenvalues --    0.19770   0.24039   0.25969   0.26416   0.32101

 Mulliken charges:
               1
     1  C   -0.463831
     2  C    0.349545
     3  N   -0.233611
     4  C    0.070145
     5  N   -0.214576
     6  C    0.092513
     7  N   -0.189237
     8  N   -0.041001
     9  N   -0.140272
    10  H    0.154780
    11  H    0.163760
    12  H    0.161881
    13  H    0.144039
    14  H    0.145864
 Sum of Mulliken charges =  -0.00000

 Dipole moment (field-independent basis, Debye):
    X=              1.6353    Y=              1.5900    Z=              1.3746  Tot=              2.6631
 Quadrupole moment (field-independent basis, Debye-Ang):
   XX=            -47.4145   YY=            -54.6170   ZZ=            -50.8248
   XY=             -1.4954   XZ=             -0.5107   YZ=             -3.1943

  Exact polarizability:  84.646  -2.117  71.548  -4.882  -2.825  54.177
 Approx polarizability: 139.008  -2.484 135.013 -15.179  -3.448  92.242

                      1                      2                      3
                      A                      A                      A
 Frequencies --    130.7922               151.9237               222.1506
 Red. masses --      1.6021                 1.6135                 6.2084
 Frc consts  --      0.0161                 0.0219                 0.1805
 IR Inten    --      1.2437                 0.0844                 1.4066

                      4                      5                      6
                      A                      A                      A
 Frequencies --    246.4937               301.3140               355.4517
 Red. masses --      8.9557                 5.1796                 3.5159
 Frc consts  --      0.3206                 0.2771                 0.2617
 IR Inten    --      0.9349                 1.3853                 5.9780

                      7                      8                      9
                      A                      A                      A
 Frequencies --    414.7872               479.5956               562.0872
 Red. masses --      3.4658                 4.3171                 3.6910
 Frc consts  --      0.3513                 0.5850                 0.6871
 IR Inten    --      0.5710                 6.7856                 9.6575

                     10                     11                     12
                      A                      A                      A
 Frequencies --    626.6006               720.7328               758.9506
 Red. masses --      5.7782                 8.7222                 5.4340
 Frc consts  --      1.3367                 2.6695                 1.8441
 IR Inten    --     27.2849                46.6644                28.3804

                     13                     14                     15
                      A                      A                      A
 Frequencies --    793.2622               825.5838               928.6256
 Red. masses --      5.6609                 6.8170                 5.6727
 Frc consts  --      2.0988                 2.7376                 2.8822
 IR Inten    --     20.4154                19.3474                20.9465

                     16                     17                     18
                      A                      A                      A
 Frequencies --    935.5706               982.4650              1001.8940
 Red. masses --      1.9508                 1.8226                 1.5916
 Frc consts  --      1.0060                 1.0365                 0.9413
 IR Inten    --     39.9343                15.7458                 2.3455

                     19                     20                     21
                      A                      A                      A
 Frequencies --   1063.8979              1066.6672              1159.4292
 Red. masses --      3.8255                 1.8699                 3.3296
 Frc consts  --      2.5512                 1.2535                 2.6371
 IR Inten    --     33.4587                 6.3443                50.0000

                     22                     23                     24
                      A                      A                      A
 Frequencies --   1223.5091              1360.5352              1395.7031
 Red. masses --      3.9615                 1.1835                 1.2979
 Frc consts  --      3.4940                 1.2907                 1.4897
 IR Inten    --     40.3413                16.3911                 8.9086

                     25                     26                     27
                      A                      A                      A
 Frequencies --   1402.8658              1466.5329              1469.7137
 Red. masses --      1.3029                 1.0587                 1.0465
 Frc consts  --      1.5108                 1.3416                 1.3319
 IR Inten    --     24.3062                20.1850                 8.7272

                     28                     29                     30
                      A                      A                      A
 Frequencies --   1602.6842              1639.8500              1659.4561
 Red. masses --     13.1775                11.6538                 8.1121
 Frc consts  --     19.9424                18.4640                13.1618
 IR Inten    --     23.7444                94.7289               132.4697

                     31                     32                     33
                      A                      A                      A
 Frequencies --   1709.2325              3046.5997              3107.0608
 Red. masses --      9.5208                 1.0368                 1.0982
 Frc consts  --     16.3880                 5.6699                 6.2465
 IR Inten    --    193.2233                 1.2263                 2.0790

                     34                     35                     36
                      A                      A                      A
 Frequencies --   3145.9517              3155.2393              3161.5483
 Red. masses --      1.0890                 1.0896                 1.1022
 Frc consts  --      6.3501                 6.3912                 6.4910
 IR Inten    --     18.0215                 9.8777                 3.2663

 - Thermochemistry -
 -------------------
 Temperature   298.150 Kelvin.  Pressure   1.00000 Atm.
 Atom     1 has atomic number  6 and mass  12.00000

 Molecular mass:   123.05450 amu.
 Principal axes and moments of inertia in atomic units:
                           1         2         3
     Eigenvalues --   631.78897 966.614781283.87644
           X            0.99978  -0.01373   0.01596
           Y            0.01425   0.99937  -0.03265
           Z           -0.01550   0.03287   0.99934
 This molecule is an asymmetric top.
 Rotational symmetry number  1.
 Warning -- assumption of classical behavior for rotation
           may cause significant error
 Rotational temperatures (Kelvin)      0.13709     0.08961     0.06746
 Rotational constants (GHZ):           2.85656     1.86707     1.40570
 Zero-point vibrational energy     264821.9 (Joules/Mol)
                                   63.29394 (Kcal/Mol)
 Warning -- explicit consideration of   9 degrees of freedom as
           vibrations may cause significant error
 Vibrational temperatures:    188.18   218.58   319.63   354.65   433.52
          (Kelvin)            511.42   596.79   690.03   808.72   901.54
                             1036.97  1091.96  1141.33  1187.83  1336.09
                             1346.08  1413.55  1441.50  1530.71  1534.70
                             1668.16  1760.36  1957.51  2008.11  2018.41
                             2110.01  2114.59  2305.91  2359.38  2387.59
                             2459.20  4383.38  4470.37  4526.32  4539.69
                             4548.76

 Zero-point correction=                           0.100865 (Hartree/Particle)
 Thermal correction to Energy=                    0.108327
 Thermal correction to Enthalpy=                  0.109271
 Thermal correction to Gibbs Free Energy=         0.069089
 Sum of electronic and zero-point Energies=           -428.997907
 Sum of electronic and thermal Energies=              -428.990445
 Sum of electronic and thermal Enthalpies=            -428.989501
 Sum of electronic and thermal Free Energies=         -429.029683

                     E (Thermal)             CV                S
                      KCal/Mol        Cal/Mol-Kelvin    Cal/Mol-Kelvin
 Total                   67.976             27.610             84.570
 Electronic               0.000              0.000              0.000
 Translational            0.889              2.981             40.336
 Rotational               0.889              2.981             28.152
 Vibrational             66.199             21.648             16.082
 Vibration     1          0.612              1.923              2.934
 Vibration     2          0.619              1.901              2.648
 Vibration     3          0.648              1.807              1.941
 Vibration     4          0.661              1.769              1.756
 Vibration     5          0.693              1.671              1.410
 Vibration     6          0.731              1.564              1.142
 Vibration     7          0.778              1.438              0.910
 Vibration     8          0.836              1.295              0.711
 Vibration     9          0.918              1.113              0.520

 Optimization completed.
    -- Stationary point found.
 Normal termination of Gaussian 16 at Thu Aug  4 09:11:52 2022.
