 Gaussian 16, Revision A.03,
 Gaussian 16:  ES64L-G16RevA.03 25-Dec-2016

 -----------------------------
 # opt freq b3lyp/6-31g(2df,p)
 -----------------------------

 -------------------
 Title Card Required
 -------------------
 Symbolic Z-matrix:
 Charge =  0 Multiplicity = 1

 SCF Done:  E(RB3LYP) =  -429.024444329     A.U. after   16 cycles
 SCF Done:  E(RB3LYP) =  -429.035380269     A.U. after   14 cycles
 SCF Done:  E(RB3LYP) =  -429.036582740     A.U. after   13 cycles
 SCF Done:  E(RB3LYP) =  -429.036702479     A.U. after   12 cycles
 SCF Done:  E(RB3LYP) =  -429.036738098     A.U. after   11 cycles
 SCF Done:  E(RB3LYP) =  -429.036748836     A.U. after   10 cycles
 SCF Done:  E(RB3LYP) =  -429.036751416     A.U. after    9 cycles
 SCF Done:  E(RB3LYP) =  -429.036752647     A.U. after    9 cycles
 SCF Done:  E(RB3LYP) =  -429.036752968     A.U. after    8 cycles
 SCF Done:  E(RB3LYP) =  -429.036753032     A.U. after    7 cycles
 Optimization completed.
    -- Stationary point found.
 Normal termination of Gaussian 16 at Thu Aug  4 02:53:08 2022.

 ----------------------------------------------------------------------
 #N Geom=AllCheck Guess=TCheck SCRF=Check GenChk RB3LYP/6-31G(2df,p) Fr
 eq
 ----------------------------------------------------------------------

 Structure from the checkpoint file:  "CC1dCNdNCdNNdN1.chk"
 -------------------
 Title Card Required
 -------------------
 Charge =  0 Multiplicity = 1

                         Standard orientation:
 ---------------------------------------------------------------------
 Center     Atomic      Atomic             Coordinates (Angstroms)
 Number     Number       Type             X           Y           Z
 ---------------------------------------------------------------------
      1          6           0        2.576735    0.037090    0.437374
      2          6           0        1.154142    0.182646   -0.011343
      3          6           0        0.449327    1.325110    0.095491
      4          7           0       -0.818900    1.543698   -0.501276
      5          7           0       -1.783820    0.790496   -0.252580
      6          6           0       -1.647150   -0.245637    0.729672
      7          7           0       -1.003765   -1.329761    0.603430
      8          7           0       -0.333734   -1.531901   -0.610982
      9          7           0        0.700152   -0.887118   -0.840831
     10          1           0        2.925492    0.940678    0.940899
     11          1           0        3.226922   -0.173735   -0.417796
     12          1           0        2.671042   -0.807091    1.129676
     13          1           0        0.923325    2.237707    0.442362
     14          1           0       -2.264631   -0.090712    1.613367
 ---------------------------------------------------------------------

 SCF Done:  E(RB3LYP) =  -429.036753032     A.U. after    1 cycles

 The electronic state is 1-A.
 Alpha  occ. eigenvalues --  -14.43405 -14.41600 -14.41032 -14.40049 -14.38370
 Alpha  occ. eigenvalues --  -10.28187 -10.25767 -10.23742 -10.21134  -1.09685
 Alpha  occ. eigenvalues --   -1.05666  -0.94408  -0.84194  -0.79036  -0.72785
 Alpha  occ. eigenvalues --   -0.67359  -0.65163  -0.57873  -0.53349  -0.50236
 Alpha  occ. eigenvalues --   -0.48365  -0.45304  -0.43659  -0.42320  -0.42041
 Alpha  occ. eigenvalues --   -0.41268  -0.38135  -0.34125  -0.32183  -0.28818
 Alpha  occ. eigenvalues --   -0.25804  -0.24439
 Alpha virt. eigenvalues --   -0.09706  -0.05669  -0.02906   0.01954   0.09364
 Alpha virt. eigenvalues --    0.10355   0.12291   0.14024   0.15759   0.16645
 Alpha virt. eigenvalues --    0.19689   0.20565   0.26044   0.30765   0.32514

 Mulliken charges:
               1
     1  C   -0.468197
     2  C    0.308401
     3  C   -0.084330
     4  N   -0.103568
     5  N   -0.121462
     6  C    0.085750
     7  N   -0.156590
     8  N   -0.051679
     9  N   -0.140531
    10  H    0.137082
    11  H    0.159348
    12  H    0.153270
    13  H    0.128904
    14  H    0.153602
 Sum of Mulliken charges =  -0.00000

 Dipole moment (field-independent basis, Debye):
    X=              2.0152    Y=              1.5768    Z=              2.8163  Tot=              3.8051
 Quadrupole moment (field-independent basis, Debye-Ang):
   XX=            -46.6609   YY=            -55.4780   ZZ=            -52.4625
   XY=              1.7992   XZ=             -1.9375   YZ=              1.5226

  Exact polarizability:  90.671  -2.153  75.217  -4.573   1.115  51.689
 Approx polarizability: 152.812  -9.463 147.263 -13.087   1.824  89.261

                      1                      2                      3
                      A                      A                      A
 Frequencies --    130.3194               167.8262               218.4385
 Red. masses --      2.8240                 1.1420                 7.6182
 Frc consts  --      0.0283                 0.0190                 0.2142
 IR Inten    --      1.8244                 0.4287                 4.1813

                      4                      5                      6
                      A                      A                      A
 Frequencies --    238.6650               284.1492               329.8111
 Red. masses --      4.8487                 8.7654                 3.2974
 Frc consts  --      0.1627                 0.4170                 0.2113
 IR Inten    --      0.8293                 6.1624                 2.3654

                      7                      8                      9
                      A                      A                      A
 Frequencies --    403.4018               479.0229               540.4038
 Red. masses --      3.6870                 5.0911                 4.3720
 Frc consts  --      0.3535                 0.6883                 0.7523
 IR Inten    --      1.9204                27.6223                 3.6687

                     10                     11                     12
                      A                      A                      A
 Frequencies --    610.3136               707.3215               757.5262
 Red. masses --      5.4938                 3.5623                 4.8864
 Frc consts  --      1.2057                 1.0501                 1.6521
 IR Inten    --     12.4905                 1.2098                46.6255

                     13                     14                     15
                      A                      A                      A
 Frequencies --    783.6208               791.7895               866.1941
 Red. masses --      7.1814                 7.0253                 1.6482
 Frc consts  --      2.5982                 2.5950                 0.7286
 IR Inten    --      9.8668                20.0839                22.7023

                     16                     17                     18
                      A                      A                      A
 Frequencies --    897.1594               932.2819               971.7678
 Red. masses --      6.0696                 3.1178                 1.9404
 Frc consts  --      2.8784                 1.5966                 1.0796
 IR Inten    --     22.3671                 4.3463                 2.2209

                     19                     20                     21
                      A                      A                      A
 Frequencies --    998.3647              1061.2247              1066.9215
 Red. masses --      4.3802                 1.8834                 1.7036
 Frc consts  --      2.5723                 1.2497                 1.1426
 IR Inten    --      7.8944                10.8231                 3.0312

                     22                     23                     24
                      A                      A                      A
 Frequencies --   1192.2031              1326.5104              1336.6566
 Red. masses --      3.3633                 1.5033                 1.2041
 Frc consts  --      2.8165                 1.5585                 1.2675
 IR Inten    --      2.4759                 4.3273                 9.5226

                     25                     26                     27
                      A                      A                      A
 Frequencies --   1409.1954              1468.5122              1482.5052
 Red. masses --      1.2441                 1.0452                 1.0781
 Frc consts  --      1.4556                 1.3280                 1.3961
 IR Inten    --      1.1485                 7.3262                11.6528

                     28                     29                     30
                      A                      A                      A
 Frequencies --   1583.1291              1602.9454              1644.4761
 Red. masses --     11.3262                12.6749                 6.7993
 Frc consts  --     16.7251                19.1881                10.8335
 IR Inten    --     51.2607                11.3625                30.6918

                     31                     32                     33
                      A                      A                      A
 Frequencies --   1689.6534              3038.3758              3096.6997
 Red. masses --      9.9830                 1.0365                 1.0989
 Frc consts  --     16.7921                 5.6377                 6.2089
 IR Inten    --     24.7775                 9.6045                 5.6883

                     34                     35                     36
                      A                      A                      A
 Frequencies --   3136.5834              3149.3036              3185.7483
 Red. masses --      1.1017                 1.0898                 1.0895
 Frc consts  --      6.3859                 6.3682                 6.5146
 IR Inten    --      8.2415                 7.1627                 2.5771

 - Thermochemistry -
 -------------------
 Temperature   298.150 Kelvin.  Pressure   1.00000 Atm.
 Atom     1 has atomic number  6 and mass  12.00000

 Molecular mass:   123.05450 amu.
 Principal axes and moments of inertia in atomic units:
                           1         2         3
     Eigenvalues --   635.65749 991.175791352.00648
           X            0.99968   0.02418   0.00705
           Y           -0.02425   0.99966   0.00952
           Z           -0.00682  -0.00969   0.99993
 This molecule is an asymmetric top.
 Rotational symmetry number  1.
 Warning -- assumption of classical behavior for rotation
           may cause significant error
 Rotational temperatures (Kelvin)      0.13626     0.08739     0.06406
 Rotational constants (GHZ):           2.83917     1.82081     1.33486
 Zero-point vibrational energy     260660.4 (Joules/Mol)
                                   62.29934 (Kcal/Mol)
 Warning -- explicit consideration of  10 degrees of freedom as
           vibrations may cause significant error
 Vibrational temperatures:    187.50   241.46   314.28   343.39   408.83
          (Kelvin)            474.52   580.41   689.21   777.52   878.11
                             1017.68  1089.91  1127.46  1139.21  1246.26
                             1290.81  1341.35  1398.16  1436.42  1526.87
                             1535.06  1715.31  1908.55  1923.15  2027.52
                             2112.86  2132.99  2277.77  2306.28  2366.03
                             2431.03  4371.55  4455.46  4512.84  4531.15
                             4583.58

 Zero-point correction=                           0.099280 (Hartree/Particle)
 Thermal correction to Energy=                    0.106891
 Thermal correction to Enthalpy=                  0.107835
 Thermal correction to Gibbs Free Energy=         0.067406
 Sum of electronic and zero-point Energies=           -428.937473
 Sum of electronic and thermal Energies=              -428.929862
 Sum of electronic and thermal Enthalpies=            -428.928918
 Sum of electronic and thermal Free Energies=         -428.969347

                     E (Thermal)             CV                S
                      KCal/Mol        Cal/Mol-Kelvin    Cal/Mol-Kelvin
 Total                   67.075             28.347             85.092
 Electronic               0.000              0.000              0.000
 Translational            0.889              2.981             40.336
 Rotational               0.889              2.981             28.234
 Vibrational             65.298             22.385             16.521
 Vibration     1          0.612              1.923              2.941
 Vibration     2          0.625              1.882              2.460
 Vibration     3          0.646              1.813              1.972
 Vibration     4          0.657              1.781              1.813
 Vibration     5          0.683              1.703              1.509
 Vibration     6          0.713              1.616              1.261
 Vibration     7          0.769              1.463              0.950
 Vibration     8          0.835              1.297              0.713
 Vibration     9          0.895              1.161              0.564
 Vibration    10          0.969              1.010              0.432

 Optimization completed.
    -- Stationary point found.
 Normal termination of Gaussian 16 at Thu Aug  4 03:21:04 2022.
