 Gaussian 16, Revision A.03,
 Gaussian 16:  ES64L-G16RevA.03 25-Dec-2016

 -----------------------------
 # opt freq b3lyp/6-31g(2df,p)
 -----------------------------

 -------------------
 Title Card Required
 -------------------
 Symbolic Z-matrix:
 Charge =  0 Multiplicity = 1

 SCF Done:  E(RB3LYP) =  -303.605327895     A.U. after   15 cycles
 SCF Done:  E(RB3LYP) =  -303.612143643     A.U. after   13 cycles
 SCF Done:  E(RB3LYP) =  -303.613121706     A.U. after   12 cycles
 SCF Done:  E(RB3LYP) =  -303.613218327     A.U. after   11 cycles
 SCF Done:  E(RB3LYP) =  -303.613228659     A.U. after    9 cycles
 SCF Done:  E(RB3LYP) =  -303.613233106     A.U. after    8 cycles
 Optimization completed.
    -- Stationary point found.
 Normal termination of Gaussian 16 at Sun Jul  3 09:00:48 2022.

 ----------------------------------------------------------------------
 #N Geom=AllCheck Guess=TCheck SCRF=Check GenChk RB3LYP/6-31G(2df,p) Fr
 eq
 ----------------------------------------------------------------------

 Structure from the checkpoint file:  "CC1dCCpdNpCdN1.chk"
 -------------------
 Title Card Required
 -------------------
 Charge =  0 Multiplicity = 1

                         Standard orientation:
 ---------------------------------------------------------------------
 Center     Atomic      Atomic             Coordinates (Angstroms)
 Number     Number       Type             X           Y           Z
 ---------------------------------------------------------------------
      1          6           0        2.468828   -0.390522   -0.000020
      2          6           0        1.005423   -0.139966   -0.000036
      3          6           0       -0.030128   -0.999674    0.000066
      4          6           0       -1.249630   -0.178552   -0.000019
      5          7           0       -2.497110   -0.444702   -0.000042
      6          6           0       -0.710155    1.223209    0.000070
      7          7           0        0.569871    1.250674   -0.000044
      8          1           0        2.698471   -1.457927   -0.000656
      9          1           0        2.932226    0.075522    0.877657
     10          1           0        2.932457    0.076700   -0.876930
     11          1           0        0.003409   -2.079088    0.000103
     12          1           0       -2.651833   -1.457789   -0.000035
     13          1           0       -1.330085    2.113806    0.000107
 ---------------------------------------------------------------------

 SCF Done:  E(RB3LYP) =  -303.613233106     A.U. after    1 cycles

 The electronic state is 1-A.
 Alpha  occ. eigenvalues --  -14.33980 -14.33418 -10.24330 -10.23285 -10.22923
 Alpha  occ. eigenvalues --  -10.19326 -10.18659  -0.96323  -0.90685  -0.78109
 Alpha  occ. eigenvalues --   -0.73011  -0.65690  -0.57204  -0.53888  -0.50276
 Alpha  occ. eigenvalues --   -0.46295  -0.43872  -0.40904  -0.40100  -0.39474
 Alpha  occ. eigenvalues --   -0.38690  -0.31692  -0.29783  -0.26250  -0.24674
 Alpha virt. eigenvalues --   -0.09266   0.04768   0.09198   0.09803   0.10911
 Alpha virt. eigenvalues --    0.12949   0.14130   0.17007   0.17676   0.20810
 Alpha virt. eigenvalues --    0.22841   0.25303   0.28073   0.32877   0.39238

 Mulliken charges:
               1
     1  C   -0.481549
     2  C    0.335331
     3  C   -0.301676
     4  C    0.302659
     5  N   -0.481698
     6  C   -0.015192
     7  N   -0.256038
     8  H    0.128280
     9  H    0.147633
    10  H    0.147632
    11  H    0.109218
    12  H    0.232252
    13  H    0.133148
 Sum of Mulliken charges =  -0.00000

 Dipole moment (field-independent basis, Debye):
    X=              1.0034    Y=             -2.1160    Z=              0.0002  Tot=              2.3419
 Quadrupole moment (field-independent basis, Debye-Ang):
   XX=            -42.2685   YY=            -38.2216   ZZ=            -41.2142
   XY=             -0.4466   XZ=             -0.0000   YZ=              0.0001

  Exact polarizability:  95.220   6.261  63.224   0.001   0.000  34.170
 Approx polarizability: 163.535  22.503  99.008  -0.001  -0.000  54.224

                      1                      2                      3
                      A                      A                      A
 Frequencies --    144.1652               175.8791               292.4267
 Red. masses --      2.0834                 1.3959                 2.8663
 Frc consts  --      0.0255                 0.0254                 0.1444
 IR Inten    --      0.0074                 0.7022                 0.4778

                      4                      5                      6
                      A                      A                      A
 Frequencies --    293.5795               439.6743               580.8635
 Red. masses --      4.0898                 3.0818                 2.8539
 Frc consts  --      0.2077                 0.3510                 0.5673
 IR Inten    --      4.6333                11.3146                 3.0560

                      7                      8                      9
                      A                      A                      A
 Frequencies --    590.6871               687.8898               702.1218
 Red. masses --      5.0870                 2.4757                 4.9124
 Frc consts  --      1.0457                 0.6902                 1.4268
 IR Inten    --      0.4939                 3.8917                 0.2812

                     10                     11                     12
                      A                      A                      A
 Frequencies --    768.0836               865.3160               909.7626
 Red. masses --      1.1773                 4.1574                 1.6614
 Frc consts  --      0.4092                 1.8341                 0.8102
 IR Inten    --      0.5775                11.5504                51.8632

                     13                     14                     15
                      A                      A                      A
 Frequencies --    933.6722               974.8730              1010.5764
 Red. masses --      3.7699                 1.3181                 1.5945
 Frc consts  --      1.9363                 0.7381                 0.9594
 IR Inten    --      2.2825                31.8379                 8.2174

                     16                     17                     18
                      A                      A                      A
 Frequencies --   1060.4710              1079.2956              1158.1758
 Red. masses --      1.6396                 2.0812                 2.0287
 Frc consts  --      1.0864                 1.4284                 1.6033
 IR Inten    --      4.8522                 6.7380                 4.0863

                     19                     20                     21
                      A                      A                      A
 Frequencies --   1245.5792              1294.4141              1360.4174
 Red. masses --      1.5075                 1.6967                 2.1984
 Frc consts  --      1.3780                 1.6750                 2.3972
 IR Inten    --     14.5208                25.0446               140.2159

                     22                     23                     24
                      A                      A                      A
 Frequencies --   1411.3724              1465.9774              1474.1530
 Red. masses --      1.3686                 1.0451                 1.0700
 Frc consts  --      1.6062                 1.3233                 1.3700
 IR Inten    --     23.6275                 5.6265                17.5259

                     25                     26                     27
                      A                      A                      A
 Frequencies --   1627.7793              1674.5566              1722.8781
 Red. masses --      8.2540                 7.5237                 9.6713
 Frc consts  --     12.8856                12.4304                16.9139
 IR Inten    --     12.0064                92.5938                28.9510

                     28                     29                     30
                      A                      A                      A
 Frequencies --   3030.3174              3081.0460              3132.5213
 Red. masses --      1.0376                 1.0979                 1.1005
 Frc consts  --      5.6136                 6.1404                 6.3627
 IR Inten    --      7.5425                 7.6970                13.1530

                     31                     32                     33
                      A                      A                      A
 Frequencies --   3197.2199              3242.8163              3422.1277
 Red. masses --      1.0957                 1.0973                 1.0744
 Frc consts  --      6.5990                 6.7983                 7.4135
 IR Inten    --      6.5844                 0.9025                 0.2358

 - Thermochemistry -
 -------------------
 Temperature   298.150 Kelvin.  Pressure   1.00000 Atm.
 Atom     1 has atomic number  6 and mass  12.00000

 Molecular mass:    94.05310 amu.
 Principal axes and moments of inertia in atomic units:
                           1         2         3
     Eigenvalues --   255.88924 845.803671090.61309
           X            0.99988  -0.01549   0.00000
           Y            0.01549   0.99988   0.00000
           Z           -0.00000  -0.00000   1.00000
 This molecule is an asymmetric top.
 Rotational symmetry number  1.
 Rotational temperatures (Kelvin)      0.33848     0.10240     0.07942
 Rotational constants (GHZ):           7.05282     2.13376     1.65480
 Zero-point vibrational energy     269463.0 (Joules/Mol)
                                   64.40319 (Kcal/Mol)
 Warning -- explicit consideration of   7 degrees of freedom as
           vibrations may cause significant error
 Vibrational temperatures:    207.42   253.05   420.74   422.40   632.59
          (Kelvin)            835.73   849.87   989.72  1010.20  1105.10
                             1245.00  1308.95  1343.35  1402.62  1453.99
                             1525.78  1552.87  1666.36  1792.11  1862.37
                             1957.34  2030.65  2109.21  2120.98  2342.01
                             2409.31  2478.84  4359.95  4432.94  4507.00
                             4600.09  4665.69  4923.68

 Zero-point correction=                           0.102633 (Hartree/Particle)
 Thermal correction to Energy=                    0.108875
 Thermal correction to Enthalpy=                  0.109820
 Thermal correction to Gibbs Free Energy=         0.072708
 Sum of electronic and zero-point Energies=           -303.510600
 Sum of electronic and thermal Energies=              -303.504358
 Sum of electronic and thermal Enthalpies=            -303.503414
 Sum of electronic and thermal Free Energies=         -303.540525

                     E (Thermal)             CV                S
                      KCal/Mol        Cal/Mol-Kelvin    Cal/Mol-Kelvin
 Total                   68.320             22.956             78.108
 Electronic               0.000              0.000              0.000
 Translational            0.889              2.981             39.535
 Rotational               0.889              2.981             26.959
 Vibrational             66.543             16.995             11.613
 Vibration     1          0.616              1.909              2.748
 Vibration     2          0.628              1.872              2.372
 Vibration     3          0.688              1.688              1.460
 Vibration     4          0.688              1.686              1.453
 Vibration     5          0.800              1.384              0.828
 Vibration     6          0.938              1.073              0.484
 Vibration     7          0.948              1.052              0.466

 Optimization completed.
    -- Stationary point found.
 Normal termination of Gaussian 16 at Sun Jul  3 09:12:27 2022.
