 Gaussian 16, Revision A.03,
 Gaussian 16:  ES64L-G16RevA.03 25-Dec-2016

 -----------------------------
 # opt freq b3lyp/6-31g(2df,p)
 -----------------------------

 -------------------
 Title Card Required
 -------------------
 Symbolic Z-matrix:
 Charge =  0 Multiplicity = 1

 SCF Done:  E(RB3LYP) =  -388.473853652     A.U. after   13 cycles
 SCF Done:  E(RB3LYP) =  -388.478360386     A.U. after   10 cycles
 SCF Done:  E(RB3LYP) =  -388.478773983     A.U. after   10 cycles
 SCF Done:  E(RB3LYP) =  -388.478804443     A.U. after   10 cycles
 SCF Done:  E(RB3LYP) =  -388.478850334     A.U. after    8 cycles
 SCF Done:  E(RB3LYP) =  -388.478852213     A.U. after    7 cycles
 SCF Done:  E(RB3LYP) =  -388.478852612     A.U. after    7 cycles
 Optimization completed.
    -- Stationary point found.
 Normal termination of Gaussian 16 at Thu Aug  4 16:22:34 2022.

 ----------------------------------------------------------------------
 #N Geom=AllCheck Guess=TCheck SCRF=Check GenChk RB3LYP/6-31G(2df,p) Fr
 eq
 ----------------------------------------------------------------------

 Structure from the checkpoint file:  "CC1dCCC1CCCO.chk"
 -------------------
 Title Card Required
 -------------------
 Charge =  0 Multiplicity = 1

                         Standard orientation:
 ---------------------------------------------------------------------
 Center     Atomic      Atomic             Coordinates (Angstroms)
 Number     Number       Type             X           Y           Z
 ---------------------------------------------------------------------
      1          6           0        2.943184   -1.558363    0.049156
      2          6           0        2.273677   -0.228848    0.024109
      3          6           0        2.610130    0.998006   -0.395037
      4          6           0        1.296418    1.639226    0.008025
      5          6           0        0.890367    0.202714    0.508520
      6          6           0       -0.322506   -0.448105   -0.156490
      7          6           0       -1.659390    0.157057    0.288155
      8          6           0       -2.866035   -0.499755   -0.382756
      9          8           0       -4.100949    0.095472   -0.015393
     10          1           0        3.942210   -1.510851   -0.394549
     11          1           0        2.363047   -2.309524   -0.501546
     12          1           0        3.044652   -1.933240    1.075793
     13          1           0        3.506260    1.403839   -0.852940
     14          1           0        0.679225    2.022956   -0.812611
     15          1           0        1.349572    2.407680    0.787403
     16          1           0        0.778198    0.156009    1.600839
     17          1           0       -0.320806   -1.525041    0.064173
     18          1           0       -0.220741   -0.360055   -1.247088
     19          1           0       -1.682450    1.231723    0.071299
     20          1           0       -1.758959    0.057514    1.379437
     21          1           0       -2.866835   -1.582885   -0.174652
     22          1           0       -2.797768   -0.385258   -1.470521
     23          1           0       -4.203091   -0.008233    0.936011
 ---------------------------------------------------------------------

 SCF Done:  E(RB3LYP) =  -388.478852612     A.U. after    1 cycles

 The electronic state is 1-A.
 Alpha  occ. eigenvalues --  -19.12884 -10.22138 -10.18560 -10.18179 -10.18108
 Alpha  occ. eigenvalues --  -10.18029 -10.17832 -10.17766 -10.17174  -1.00969
 Alpha  occ. eigenvalues --   -0.85638  -0.77858  -0.72838  -0.69020  -0.62016
 Alpha  occ. eigenvalues --   -0.61560  -0.58013  -0.50288  -0.49887  -0.46288
 Alpha  occ. eigenvalues --   -0.45012  -0.44556  -0.43342  -0.41063  -0.40851
 Alpha  occ. eigenvalues --   -0.39355  -0.36389  -0.34984  -0.34534  -0.33791
 Alpha  occ. eigenvalues --   -0.31866  -0.30333  -0.29532  -0.26065  -0.23313
 Alpha virt. eigenvalues --    0.03022   0.07958   0.09322   0.10786   0.12078
 Alpha virt. eigenvalues --    0.13102   0.14175   0.15134   0.15618   0.15934
 Alpha virt. eigenvalues --    0.16620   0.16958   0.18202   0.18757   0.19755

 Mulliken charges:
               1
     1  C   -0.510100
     2  C    0.334226
     3  C   -0.191877
     4  C   -0.266731
     5  C   -0.071684
     6  C   -0.204551
     7  C   -0.196538
     8  C   -0.056375
     9  O   -0.419334
    10  H    0.126604
    11  H    0.128159
    12  H    0.126284
    13  H    0.088281
    14  H    0.099043
    15  H    0.099031
    16  H    0.064790
    17  H    0.091200
    18  H    0.096282
    19  H    0.110324
    20  H    0.082058
    21  H    0.082202
    22  H    0.110113
    23  H    0.278595
 Sum of Mulliken charges =  -0.00000

 Dipole moment (field-independent basis, Debye):
    X=              1.1412    Y=             -0.9287    Z=              1.0968  Tot=              1.8352
 Quadrupole moment (field-independent basis, Debye-Ang):
   XX=            -62.9095   YY=            -55.6095   ZZ=            -54.2647
   XY=              1.1925   XZ=             -5.3206   YZ=             -0.4619

  Exact polarizability: 102.668  -0.499  91.848  -5.041  -2.954  72.290
 Approx polarizability: 123.560   1.685 140.503  -7.563  -9.103 113.995

                      1                      2                      3
                      A                      A                      A
 Frequencies --     61.5853                75.3925                91.9159
 Red. masses --      3.7729                 1.8000                 3.1927
 Frc consts  --      0.0084                 0.0060                 0.0159
 IR Inten    --      0.6355                 3.3261                 0.4171

                      4                      5                      6
                      A                      A                      A
 Frequencies --    146.9558               160.7104               192.4823
 Red. masses --      1.8493                 1.3887                 2.5000
 Frc consts  --      0.0235                 0.0211                 0.0546
 IR Inten    --      1.2841                 0.5959                 1.1001

                      7                      8                      9
                      A                      A                      A
 Frequencies --    204.2153               285.4283               302.8166
 Red. masses --      2.2315                 2.9592                 1.2953
 Frc consts  --      0.0548                 0.1420                 0.0700
 IR Inten    --      0.8372                 4.1978                79.4999

                     10                     11                     12
                      A                      A                      A
 Frequencies --    316.5538               407.0669               468.5066
 Red. masses --      1.9248                 3.3855                 2.5476
 Frc consts  --      0.1136                 0.3305                 0.3295
 IR Inten    --     31.9656                 2.6040                 3.7984

                     13                     14                     15
                      A                      A                      A
 Frequencies --    565.0229               651.9947               752.8543
 Red. masses --      2.6247                 3.4322                 1.1352
 Frc consts  --      0.4937                 0.8596                 0.3791
 IR Inten    --      6.0422                 0.7999                 2.3550

                     16                     17                     18
                      A                      A                      A
 Frequencies --    793.9964               822.2332               882.1332
 Red. masses --      1.6087                 1.4067                 1.3269
 Frc consts  --      0.5975                 0.5603                 0.6084
 IR Inten    --      8.5174                 4.2666                10.6687

                     19                     20                     21
                      A                      A                      A
 Frequencies --    909.8125               944.9622               977.0692
 Red. masses --      3.0473                 1.8550                 1.5294
 Frc consts  --      1.4862                 0.9760                 0.8602
 IR Inten    --      5.6277                 2.1450                 7.4606

                     22                     23                     24
                      A                      A                      A
 Frequencies --    993.4837              1024.2141              1036.7317
 Red. masses --      1.5204                 3.3959                 1.9625
 Frc consts  --      0.8841                 2.0989                 1.2428
 IR Inten    --      7.2638                19.1421                 3.4648

                     25                     26                     27
                      A                      A                      A
 Frequencies --   1065.2503              1080.4791              1082.7337
 Red. masses --      1.9427                 2.9718                 1.6670
 Frc consts  --      1.2988                 2.0441                 1.1514
 IR Inten    --     10.8124                61.5080                26.5069

                     28                     29                     30
                      A                      A                      A
 Frequencies --   1095.4990              1129.4925              1190.2621
 Red. masses --      2.0298                 1.3677                 1.5557
 Frc consts  --      1.4352                 1.0280                 1.2985
 IR Inten    --     10.5493                 7.4601                 1.1386

                     31                     32                     33
                      A                      A                      A
 Frequencies --   1199.4381              1208.1250              1238.1829
 Red. masses --      1.8163                 1.6112                 1.4907
 Frc consts  --      1.5395                 1.3855                 1.3465
 IR Inten    --      2.1456                 2.7541                 1.5921

                     34                     35                     36
                      A                      A                      A
 Frequencies --   1267.5195              1286.0858              1305.1224
 Red. masses --      1.3820                 1.3861                 2.0774
 Frc consts  --      1.3081                 1.3508                 2.0849
 IR Inten    --      5.5700                14.2457                 4.7373

                     37                     38                     39
                      A                      A                      A
 Frequencies --   1323.6295              1350.6161              1380.1891
 Red. masses --      1.1123                 1.3192                 1.4873
 Frc consts  --      1.1482                 1.4178                 1.6693
 IR Inten    --      3.5608                 2.2658                 1.5487

                     40                     41                     42
                      A                      A                      A
 Frequencies --   1399.5159              1408.2771              1423.6900
 Red. masses --      1.3691                 1.2863                 1.2878
 Frc consts  --      1.5799                 1.5030                 1.5379
 IR Inten    --      5.0573                 0.4325                56.8777

                     43                     44                     45
                      A                      A                      A
 Frequencies --   1475.8040              1477.2843              1483.7144
 Red. masses --      1.0905                 1.0536                 1.0687
 Frc consts  --      1.3993                 1.3547                 1.3862
 IR Inten    --      1.2777                 5.9189                 3.0903

                     46                     47                     48
                      A                      A                      A
 Frequencies --   1488.5859              1495.2583              1516.2766
 Red. masses --      1.0795                 1.0903                 1.0951
 Frc consts  --      1.4094                 1.4362                 1.4834
 IR Inten    --      3.2004                 1.3651                 0.3711

                     49                     50                     51
                      A                      A                      A
 Frequencies --   1712.0534              2963.7959              2997.3134
 Red. masses --      6.9714                 1.0710                 1.0646
 Frc consts  --     12.0394                 5.5431                 5.6351
 IR Inten    --      6.9156                52.6658                 6.1082

                     52                     53                     54
                      A                      A                      A
 Frequencies --   3000.8187              3004.3214              3015.6934
 Red. masses --      1.0702                 1.0744                 1.0379
 Frc consts  --      5.6778                 5.7138                 5.5613
 IR Inten    --     14.0553                49.4346                32.6266

                     55                     56                     57
                      A                      A                      A
 Frequencies --   3027.9899              3036.6165              3055.3172
 Red. masses --      1.0572                 1.0963                 1.0889
 Frc consts  --      5.7110                 5.9559                 5.9887
 IR Inten    --     43.7514                26.5476                19.3136

                     58                     59                     60
                      A                      A                      A
 Frequencies --   3062.7485              3069.7797              3074.5221
 Red. masses --      1.0982                 1.1049                 1.1006
 Frc consts  --      6.0697                 6.1348                 6.1296
 IR Inten    --     20.5884                19.5957                82.1306

                     61                     62                     63
                      A                      A                      A
 Frequencies --   3103.1627              3181.2574              3814.4029
 Red. masses --      1.0993                 1.0986                 1.0661
 Frc consts  --      6.2372                 6.5505                 9.1388
 IR Inten    --     20.6096                26.9289                14.7432

 - Thermochemistry -
 -------------------
 Temperature   298.150 Kelvin.  Pressure   1.00000 Atm.
 Atom     1 has atomic number  6 and mass  12.00000

 Molecular mass:   126.10447 amu.
 Principal axes and moments of inertia in atomic units:
                           1         2         3
     Eigenvalues --   468.434502807.350883127.04880
           X            0.99998  -0.00547  -0.00309
           Y            0.00549   0.99998   0.00371
           Z            0.00307  -0.00373   0.99999
 This molecule is an asymmetric top.
 Rotational symmetry number  1.
 Warning -- assumption of classical behavior for rotation
           may cause significant error
 Rotational temperatures (Kelvin)      0.18490     0.03085     0.02770
 Rotational constants (GHZ):           3.85271     0.64286     0.57714
 Zero-point vibrational energy     535681.6 (Joules/Mol)
                                  128.03096 (Kcal/Mol)
 Warning -- explicit consideration of  13 degrees of freedom as
           vibrations may cause significant error
 Vibrational temperatures:     88.61   108.47   132.25   211.44   231.23
          (Kelvin)            276.94   293.82   410.67   435.69   455.45
                              585.68   674.08   812.94   938.07  1083.19
                             1142.38  1183.01  1269.19  1309.02  1359.59
                             1405.78  1429.40  1473.62  1491.63  1532.66
                             1554.57  1557.81  1576.18  1625.09  1712.52
                             1725.72  1738.22  1781.47  1823.68  1850.39
                             1877.78  1904.41  1943.24  1985.78  2013.59
                             2026.20  2048.37  2123.35  2125.48  2134.73
                             2141.74  2151.34  2181.58  2463.26  4264.24
                             4312.47  4317.51  4322.55  4338.91  4356.60
                             4369.01  4395.92  4406.61  4416.73  4423.55
                             4464.76  4577.12  5488.08

 Zero-point correction=                           0.204030 (Hartree/Particle)
 Thermal correction to Energy=                    0.214583
 Thermal correction to Enthalpy=                  0.215527
 Thermal correction to Gibbs Free Energy=         0.167650
 Sum of electronic and zero-point Energies=           -388.274822
 Sum of electronic and thermal Energies=              -388.264269
 Sum of electronic and thermal Enthalpies=            -388.263325
 Sum of electronic and thermal Free Energies=         -388.311203

                     E (Thermal)             CV                S
                      KCal/Mol        Cal/Mol-Kelvin    Cal/Mol-Kelvin
 Total                  134.653             37.981            100.767
 Electronic               0.000              0.000              0.000
 Translational            0.889              2.981             40.409
 Rotational               0.889              2.981             29.798
 Vibrational            132.876             32.019             30.559
 Vibration     1          0.597              1.973              4.406
 Vibration     2          0.599              1.965              4.007
 Vibration     3          0.602              1.955              3.619
 Vibration     4          0.617              1.906              2.711
 Vibration     5          0.622              1.891              2.541
 Vibration     6          0.634              1.850              2.204
 Vibration     7          0.640              1.834              2.095
 Vibration     8          0.683              1.701              1.501
 Vibration     9          0.694              1.668              1.401
 Vibration    10          0.703              1.642              1.328
 Vibration    11          0.772              1.455              0.937
 Vibration    12          0.826              1.320              0.742
 Vibration    13          0.921              1.107              0.514

                           ! Non-Optimized Parameters !
 Normal termination of Gaussian 16 at Thu Aug  4 16:56:54 2022.
