 Gaussian 16, Revision A.03,
 Gaussian 16:  ES64L-G16RevA.03 25-Dec-2016

 -----------------------------
 # opt freq b3lyp/6-31g(2df,p)
 -----------------------------

 -------------------
 Title Card Required
 -------------------
 Symbolic Z-matrix:
 Charge =  0 Multiplicity = 1

 SCF Done:  E(RB3LYP) =  -455.052636957     A.U. after   19 cycles
 SCF Done:  E(RB3LYP) =  -455.123521824     A.U. after   15 cycles
 SCF Done:  E(RB3LYP) =  -455.229186225     A.U. after   14 cycles
 SCF Done:  E(RB3LYP) =  -455.263624464     A.U. after   13 cycles
 SCF Done:  E(RB3LYP) =  -455.283146406     A.U. after   12 cycles
 SCF Done:  E(RB3LYP) =  -455.297146673     A.U. after   12 cycles
 SCF Done:  E(RB3LYP) =  -455.310671985     A.U. after   12 cycles
 SCF Done:  E(RB3LYP) =  -455.314399110     A.U. after   12 cycles
 SCF Done:  E(RB3LYP) =  -455.314942475     A.U. after   11 cycles
 SCF Done:  E(RB3LYP) =  -455.315248239     A.U. after   11 cycles
 SCF Done:  E(RB3LYP) =  -455.316996891     A.U. after   11 cycles
 SCF Done:  E(RB3LYP) =  -455.317020688     A.U. after   10 cycles
 SCF Done:  E(RB3LYP) =  -455.317151269     A.U. after   11 cycles
 SCF Done:  E(RB3LYP) =  -455.317171021     A.U. after   10 cycles
 SCF Done:  E(RB3LYP) =  -455.317189659     A.U. after    9 cycles
 SCF Done:  E(RB3LYP) =  -455.317198362     A.U. after   10 cycles
 SCF Done:  E(RB3LYP) =  -455.317199116     A.U. after    8 cycles
 SCF Done:  E(RB3LYP) =  -455.317199368     A.U. after    8 cycles
 SCF Done:  E(RB3LYP) =  -455.317199409     A.U. after    7 cycles
 Optimization completed.
    -- Stationary point found.
 Normal termination of Gaussian 16 at Sun Jul  3 17:25:58 2022.

 ----------------------------------------------------------------------
 #N Geom=AllCheck Guess=TCheck SCRF=Check GenChk RB3LYP/6-31G(2df,p) Fr
 eq
 ----------------------------------------------------------------------

 Structure from the checkpoint file:  "CC1dNC2pCOpNC12O.chk"
 -------------------
 Title Card Required
 -------------------
 Charge =  0 Multiplicity = 1

                         Standard orientation:
 ---------------------------------------------------------------------
 Center     Atomic      Atomic             Coordinates (Angstroms)
 Number     Number       Type             X           Y           Z
 ---------------------------------------------------------------------
      1          6           0       -2.563980    1.314689    0.181239
      2          6           0       -1.263423    0.596112    0.026006
      3          7           0       -0.051153    1.263515   -0.055318
      4          6           0        0.874577    0.345484   -0.186812
      5          6           0        2.345142    0.558861   -0.339519
      6          8           0        3.108617   -0.356772    0.443562
      7          7           0        0.325036   -0.914148   -0.192233
      8          6           0       -1.028436   -0.754026   -0.050509
      9          8           0       -1.806974   -1.863461   -0.007102
     10          1           0       -2.573941    1.935232    1.084123
     11          1           0       -3.406115    0.616180    0.255145
     12          1           0       -2.763313    1.975974   -0.669432
     13          1           0        2.561676    1.608467   -0.104541
     14          1           0        2.667789    0.377771   -1.372057
     15          1           0        2.895259   -0.189630    1.368132
     16          1           0        0.825183   -1.787218   -0.222036
     17          1           0       -2.720151   -1.587197    0.119417
 ---------------------------------------------------------------------

 SCF Done:  E(RB3LYP) =  -455.317199409     A.U. after    1 cycles

 The electronic state is 1-A.
 Alpha  occ. eigenvalues --  -19.18323 -19.14337 -14.37345 -14.29810 -10.25891
 Alpha  occ. eigenvalues --  -10.23537 -10.22494 -10.18769 -10.18147  -1.07745
 Alpha  occ. eigenvalues --   -1.02502  -0.99537  -0.86233  -0.76592  -0.71417
 Alpha  occ. eigenvalues --   -0.66745  -0.60999  -0.58524  -0.54054  -0.51570
 Alpha  occ. eigenvalues --   -0.48380  -0.46009  -0.43355  -0.42811  -0.40873
 Alpha  occ. eigenvalues --   -0.39973  -0.39210  -0.38087  -0.35782  -0.33843
 Alpha  occ. eigenvalues --   -0.28363  -0.26668  -0.25876  -0.19278
 Alpha virt. eigenvalues --    0.03097   0.05041   0.08017   0.08567   0.10850
 Alpha virt. eigenvalues --    0.14101   0.14125   0.15918   0.17557   0.19579
 Alpha virt. eigenvalues --    0.20055   0.20999   0.23982   0.24789   0.27171

 Mulliken charges:
               1
     1  C   -0.498814
     2  C    0.136946
     3  N   -0.343889
     4  C    0.276256
     5  C   -0.174950
     6  O   -0.420115
     7  N   -0.320104
     8  C    0.304770
     9  O   -0.436524
    10  H    0.136044
    11  H    0.091115
    12  H    0.136922
    13  H    0.122458
    14  H    0.121887
    15  H    0.285758
    16  H    0.274319
    17  H    0.307922
 Sum of Mulliken charges =  -0.00000

 Dipole moment (field-independent basis, Debye):
    X=             -1.3755    Y=             -1.4990    Z=              0.6644  Tot=              2.1402
 Quadrupole moment (field-independent basis, Debye-Ang):
   XX=            -47.3016   YY=            -54.7852   ZZ=            -49.8952
   XY=              1.9384   XZ=              0.4976   YZ=              0.1762

  Exact polarizability:  97.636  -1.586  73.887  -3.120   0.319  47.827
 Approx polarizability: 132.394  -2.297 124.303  -4.834   1.572  73.573

                      1                      2                      3
                      A                      A                      A
 Frequencies --     51.4788                66.0174               129.1635
 Red. masses --      3.6386                 1.0209                 5.1397
 Frc consts  --      0.0057                 0.0026                 0.0505
 IR Inten    --      4.3962                 1.1635                 0.8198

                      4                      5                      6
                      A                      A                      A
 Frequencies --    205.4399               228.0386               244.1157
 Red. masses --      1.1844                 2.5984                 3.2806
 Frc consts  --      0.0295                 0.0796                 0.1152
 IR Inten    --     64.8463                 7.6544                45.2789

                      7                      8                      9
                      A                      A                      A
 Frequencies --    255.9807               325.0979               386.1964
 Red. masses --      3.2373                 2.6272                 1.4590
 Frc consts  --      0.1250                 0.1636                 0.1282
 IR Inten    --      0.4809                14.0215               140.4944

                     10                     11                     12
                      A                      A                      A
 Frequencies --    409.0894               513.9076               527.6175
 Red. masses --      5.1038                 2.3466                 1.5263
 Frc consts  --      0.5032                 0.3651                 0.2503
 IR Inten    --     18.3749                16.8215                65.1226

                     13                     14                     15
                      A                      A                      A
 Frequencies --    639.2666               651.0576               685.0307
 Red. masses --      4.1046                 4.6983                 6.6276
 Frc consts  --      0.9883                 1.1734                 1.8324
 IR Inten    --      8.2802                 8.0198                 0.4288

                     16                     17                     18
                      A                      A                      A
 Frequencies --    726.8385               810.4063               966.9477
 Red. masses --      5.2232                 4.1636                 1.5663
 Frc consts  --      1.6258                 1.6111                 0.8629
 IR Inten    --      4.9182                 3.7492                21.7268

                     19                     20                     21
                      A                      A                      A
 Frequencies --    991.8443              1020.5898              1059.8482
 Red. masses --      1.8578                 6.6802                 1.5099
 Frc consts  --      1.0768                 4.0996                 0.9993
 IR Inten    --     15.5250                17.3844                 2.6827

                     22                     23                     24
                      A                      A                      A
 Frequencies --   1060.9805              1135.9764              1190.1913
 Red. masses --      3.5896                 1.6578                 1.1535
 Frc consts  --      2.3807                 1.2604                 0.9627
 IR Inten    --     53.5154                17.0204                32.4609

                     25                     26                     27
                      A                      A                      A
 Frequencies --   1214.1116              1247.0832              1306.6069
 Red. masses --      3.1602                 1.8366                 3.4647
 Frc consts  --      2.7446                 1.6828                 3.4850
 IR Inten    --     31.6664               103.4130                46.5681

                     28                     29                     30
                      A                      A                      A
 Frequencies --   1356.9474              1413.2261              1421.5146
 Red. masses --      1.3518                 1.2330                 1.2897
 Frc consts  --      1.4665                 1.4509                 1.5355
 IR Inten    --      1.2647                72.1681                12.6356

                     31                     32                     33
                      A                      A                      A
 Frequencies --   1451.6871              1468.0809              1496.9453
 Red. masses --      3.9079                 1.0421                 1.0775
 Frc consts  --      4.8522                 1.3233                 1.4226
 IR Inten    --     49.5529                 3.5818                 0.6664

                     34                     35                     36
                      A                      A                      A
 Frequencies --   1498.9350              1525.0705              1576.6670
 Red. masses --      1.1304                 4.0410                 6.9349
 Frc consts  --      1.4964                 5.5376                10.1571
 IR Inten    --      4.1603                17.8058                14.7947

                     37                     38                     39
                      A                      A                      A
 Frequencies --   1659.1810              3019.9736              3023.5574
 Red. masses --      7.0418                 1.0365                 1.0566
 Frc consts  --     11.4215                 5.5699                 5.6912
 IR Inten    --    194.0518                49.8309                37.0212

                     40                     41                     42
                      A                      A                      A
 Frequencies --   3062.6758              3080.2223              3082.1591
 Red. masses --      1.1066                 1.1001                 1.0998
 Frc consts  --      6.1156                 6.1496                 6.1555
 IR Inten    --     22.1025                24.3150                25.4846

                     43                     44                     45
                      A                      A                      A
 Frequencies --   3664.7026              3803.3838              3837.7268
 Red. masses --      1.0803                 1.0661                 1.0657
 Frc consts  --      8.5483                 9.0867                 9.2479
 IR Inten    --     71.4128                18.0788                67.0174

 - Thermochemistry -
 -------------------
 Temperature   298.150 Kelvin.  Pressure   1.00000 Atm.
 Atom     1 has atomic number  6 and mass  12.00000

 Molecular mass:   128.05858 amu.
 Principal axes and moments of inertia in atomic units:
                           1         2         3
     Eigenvalues --   559.296981650.548062127.78307
           X            0.99985  -0.01675  -0.00519
           Y            0.01676   0.99986   0.00171
           Z            0.00516  -0.00179   0.99999
 This molecule is an asymmetric top.
 Rotational symmetry number  1.
 Warning -- assumption of classical behavior for rotation
           may cause significant error
 Rotational temperatures (Kelvin)      0.15486     0.05248     0.04071
 Rotational constants (GHZ):           3.22680     1.09342     0.84818
 Zero-point vibrational energy     355838.7 (Joules/Mol)
                                   85.04748 (Kcal/Mol)
 Warning -- explicit consideration of  12 degrees of freedom as
           vibrations may cause significant error
 Vibrational temperatures:     74.07    94.98   185.84   295.58   328.10
          (Kelvin)            351.23   368.30   467.74   555.65   588.59
                              739.40   759.12   919.76   936.73   985.61
                             1045.76  1165.99  1391.22  1427.04  1468.40
                             1524.89  1526.51  1634.42  1712.42  1746.84
                             1794.27  1879.92  1952.34  2033.32  2045.24
                             2088.65  2112.24  2153.77  2156.63  2194.24
                             2268.47  2387.19  4345.07  4350.22  4406.51
                             4431.75  4434.54  5272.69  5472.22  5521.63

 Zero-point correction=                           0.135532 (Hartree/Particle)
 Thermal correction to Energy=                    0.145030
 Thermal correction to Enthalpy=                  0.145974
 Thermal correction to Gibbs Free Energy=         0.100498
 Sum of electronic and zero-point Energies=           -455.181668
 Sum of electronic and thermal Energies=              -455.172169
 Sum of electronic and thermal Enthalpies=            -455.171225
 Sum of electronic and thermal Free Energies=         -455.216701

                     E (Thermal)             CV                S
                      KCal/Mol        Cal/Mol-Kelvin    Cal/Mol-Kelvin
 Total                   91.008             33.699             95.712
 Electronic               0.000              0.000              0.000
 Translational            0.889              2.981             40.455
 Rotational               0.889              2.981             29.064
 Vibrational             89.230             27.737             26.193
 Vibration     1          0.596              1.977              4.760
 Vibration     2          0.597              1.970              4.269
 Vibration     3          0.612              1.924              2.958
 Vibration     4          0.640              1.832              2.084
 Vibration     5          0.651              1.798              1.894
 Vibration     6          0.659              1.773              1.773
 Vibration     7          0.666              1.753              1.689
 Vibration     8          0.709              1.625              1.284
 Vibration     9          0.755              1.500              1.015
 Vibration    10          0.773              1.450              0.930
 Vibration    11          0.869              1.219              0.624
 Vibration    12          0.883              1.189              0.593

 Optimization completed.
    -- Stationary point found.
 Normal termination of Gaussian 16 at Sun Jul  3 17:48:13 2022.
