 Gaussian 16, Revision A.03,
 Gaussian 16:  ES64L-G16RevA.03 25-Dec-2016

 -----------------------------
 # opt freq b3lyp/6-31g(2df,p)
 -----------------------------

 -------------------
 Title Card Required
 -------------------
 Symbolic Z-matrix:
 Charge =  0 Multiplicity = 1

 SCF Done:  E(RB3LYP) =  -349.692787664     A.U. after   19 cycles
 SCF Done:  E(RB3LYP) =  -349.476543935     A.U. after   18 cycles
 SCF Done:  E(RB3LYP) =  -349.781912952     A.U. after   15 cycles
 SCF Done:  E(RB3LYP) =  -349.812010810     A.U. after   14 cycles
 SCF Done:  E(RB3LYP) =  -349.839884898     A.U. after   14 cycles
 SCF Done:  E(RB3LYP) =  -349.828319481     A.U. after   16 cycles
 SCF Done:  E(RB3LYP) =  -349.850845375     A.U. after   14 cycles
 SCF Done:  E(RB3LYP) =  -349.876882953     A.U. after   14 cycles
 SCF Done:  E(RB3LYP) =  -349.882814041     A.U. after   14 cycles
 SCF Done:  E(RB3LYP) =  -349.889339259     A.U. after   14 cycles
 SCF Done:  E(RB3LYP) =  -350.100193924     A.U. after    9 cycles
 SCF Done:  E(RB3LYP) =  -350.100202635     A.U. after    8 cycles
 SCF Done:  E(RB3LYP) =  -350.100204128     A.U. after    7 cycles
 SCF Done:  E(RB3LYP) =  -350.100204440     A.U. after    6 cycles
 SCF Done:  E(RB3LYP) =  -350.100204647     A.U. after    6 cycles
 SCF Done:  E(RB3LYP) =  -350.100205007     A.U. after    6 cycles
 SCF Done:  E(RB3LYP) =  -350.100205406     A.U. after    6 cycles
 SCF Done:  E(RB3LYP) =  -350.100205844     A.U. after    6 cycles
 SCF Done:  E(RB3LYP) =  -350.100206109     A.U. after    6 cycles
 Optimization completed.
    -- Stationary point found.
 Normal termination of Gaussian 16 at Sun Jul  3 21:33:33 2022.

 ----------------------------------------------------------------------
 #N Geom=AllCheck Guess=TCheck SCRF=Check GenChk RB3LYP/6-31G(2df,p) Fr
 eq
 ----------------------------------------------------------------------

 Structure from the checkpoint file:  "CC1dCdCCCC2CC12.chk"
 -------------------
 Title Card Required
 -------------------
 Charge =  0 Multiplicity = 1

                         Standard orientation:
 ---------------------------------------------------------------------
 Center     Atomic      Atomic             Coordinates (Angstroms)
 Number     Number       Type             X           Y           Z
 ---------------------------------------------------------------------
      1          6           0       -2.636412    0.630580    0.317351
      2          6           0       -1.249206    0.449831   -0.233971
      3          6           0       -0.321983    1.374248   -0.331921
      4          6           0        0.929928    1.736866   -0.258403
      5          6           0        1.779290    0.855919    0.646758
      6          6           0        1.925962   -0.511231   -0.069591
      7          6           0        0.679523   -1.349066   -0.410031
      8          6           0       -0.353788   -1.792323    0.589871
      9          6           0       -0.779257   -0.928416   -0.592391
     10          1           0       -2.802563    1.658634    0.647547
     11          1           0       -2.811738   -0.045187    1.162967
     12          1           0       -3.394327    0.391361   -0.439981
     13          1           0        1.412081    2.399010   -0.972544
     14          1           0        1.305075    0.733347    1.625508
     15          1           0        2.777157    1.274465    0.819264
     16          1           0        2.585441   -1.155260    0.528176
     17          1           0        2.460648   -0.325870   -1.010250
     18          1           0        0.956162   -2.138997   -1.105594
     19          1           0       -0.355781   -1.304523    1.560068
     20          1           0       -0.653090   -2.835252    0.617113
     21          1           0       -1.323410   -1.450164   -1.378302
 ---------------------------------------------------------------------

 SCF Done:  E(RB3LYP) =  -350.100206109     A.U. after    1 cycles

 The electronic state is 1-A.
 Alpha  occ. eigenvalues --  -10.19368 -10.19133 -10.18941 -10.18574 -10.18451
 Alpha  occ. eigenvalues --  -10.18153 -10.17749 -10.17712 -10.16782  -0.86577
 Alpha  occ. eigenvalues --   -0.79709  -0.77441  -0.70782  -0.65306  -0.62701
 Alpha  occ. eigenvalues --   -0.58561  -0.54440  -0.49426  -0.48108  -0.46291
 Alpha  occ. eigenvalues --   -0.44024  -0.41567  -0.40866  -0.40172  -0.38645
 Alpha  occ. eigenvalues --   -0.36764  -0.35543  -0.35272  -0.33420  -0.29037
 Alpha  occ. eigenvalues --   -0.27510  -0.24315  -0.21333
 Alpha virt. eigenvalues --   -0.00841   0.05434   0.09097   0.11017   0.11794
 Alpha virt. eigenvalues --    0.13076   0.14002   0.15317   0.16383   0.16939
 Alpha virt. eigenvalues --    0.17791   0.18450   0.19172   0.19811   0.20522

 Mulliken charges:
               1
     1  C   -0.470898
     2  C    0.125296
     3  C    0.125772
     4  C   -0.220114
     5  C   -0.244250
     6  C   -0.207543
     7  C    0.004540
     8  C   -0.280450
     9  C   -0.096512
    10  H    0.125499
    11  H    0.125120
    12  H    0.124048
    13  H    0.101302
    14  H    0.109210
    15  H    0.095023
    16  H    0.097817
    17  H    0.099586
    18  H    0.084192
    19  H    0.113595
    20  H    0.106209
    21  H    0.082557
 Sum of Mulliken charges =   0.00000

 Dipole moment (field-independent basis, Debye):
    X=              0.2331    Y=             -0.9341    Z=              0.1443  Tot=              0.9735
 Quadrupole moment (field-independent basis, Debye-Ang):
   XX=            -52.2853   YY=            -55.2293   ZZ=            -54.7503
   XY=              1.1965   XZ=             -0.4631   YZ=              0.4409

  Exact polarizability: 113.933  10.310  93.499  -1.280  -2.507  69.697
 Approx polarizability: 171.005  23.436 141.191  -1.727  -6.957 110.219

                      1                      2                      3
                      A                      A                      A
 Frequencies --    121.4796               169.0652               193.7124
 Red. masses --      2.7703                 1.0539                 2.3841
 Frc consts  --      0.0241                 0.0177                 0.0527
 IR Inten    --      0.5109                 0.2074                 1.0222

                      4                      5                      6
                      A                      A                      A
 Frequencies --    214.4614               269.2608               317.3139
 Red. masses --      2.6719                 2.6082                 3.2932
 Frc consts  --      0.0724                 0.1114                 0.1954
 IR Inten    --      0.1297                 0.8451                 0.7017

                      7                      8                      9
                      A                      A                      A
 Frequencies --    377.8495               419.8174               499.2132
 Red. masses --      1.9786                 4.2486                 3.0042
 Frc consts  --      0.1664                 0.4412                 0.4411
 IR Inten    --      0.8962                 1.0713                 3.7924

                     10                     11                     12
                      A                      A                      A
 Frequencies --    555.5067               599.6083               636.3853
 Red. masses --      3.2978                 2.6765                 3.1102
 Frc consts  --      0.5996                 0.5670                 0.7421
 IR Inten    --     20.2062                 4.2548                 7.4870

                     13                     14                     15
                      A                      A                      A
 Frequencies --    699.5468               722.7552               804.5575
 Red. masses --      3.1592                 2.7770                 1.3519
 Frc consts  --      0.9109                 0.8547                 0.5156
 IR Inten    --      1.1748                 8.4767                26.9908

                     16                     17                     18
                      A                      A                      A
 Frequencies --    840.7404               854.9522               889.3022
 Red. masses --      1.5475                 2.1466                 1.9036
 Frc consts  --      0.6445                 0.9245                 0.8870
 IR Inten    --      7.6109                 1.0054                 3.3670

                     19                     20                     21
                      A                      A                      A
 Frequencies --    919.0776               950.5348              1001.7437
 Red. masses --      2.8902                 1.8776                 1.7428
 Frc consts  --      1.4384                 0.9995                 1.0304
 IR Inten    --      1.5470                10.1922                 4.0086

                     22                     23                     24
                      A                      A                      A
 Frequencies --   1009.5501              1035.3445              1056.6961
 Red. masses --      2.1784                 1.9417                 1.5816
 Frc consts  --      1.3081                 1.2263                 1.0405
 IR Inten    --      3.0102                 1.8212                 5.8415

                     25                     26                     27
                      A                      A                      A
 Frequencies --   1063.8996              1093.9756              1132.3453
 Red. masses --      1.3959                 1.7559                 1.2514
 Frc consts  --      0.9309                 1.2381                 0.9454
 IR Inten    --      1.2188                 8.9148                 2.3474

                     28                     29                     30
                      A                      A                      A
 Frequencies --   1142.9424              1188.9848              1198.6376
 Red. masses --      1.2387                 1.4408                 2.1870
 Frc consts  --      0.9534                 1.2001                 1.8513
 IR Inten    --      2.0956                 2.5982                 9.7678

                     31                     32                     33
                      A                      A                      A
 Frequencies --   1228.7274              1250.5628              1253.6295
 Red. masses --      1.3467                 1.3378                 1.5349
 Frc consts  --      1.1979                 1.2327                 1.4212
 IR Inten    --      2.1043                 6.1897                 0.1909

                     34                     35                     36
                      A                      A                      A
 Frequencies --   1337.5927              1358.2780              1376.7377
 Red. masses --      1.2528                 1.8874                 1.5455
 Frc consts  --      1.3206                 2.0516                 1.7260
 IR Inten    --      4.4248                 2.8937                 1.6374

                     37                     38                     39
                      A                      A                      A
 Frequencies --   1405.4841              1413.2954              1440.1208
 Red. masses --      1.2398                 1.4100                 2.1953
 Frc consts  --      1.4429                 1.6594                 2.6826
 IR Inten    --      1.1700                 3.1262                10.7014

                     40                     41                     42
                      A                      A                      A
 Frequencies --   1478.2500              1479.2288              1480.9979
 Red. masses --      1.1153                 1.1102                 1.0707
 Frc consts  --      1.4359                 1.4313                 1.3837
 IR Inten    --      4.3804                 4.9934                 2.1696

                     43                     44                     45
                      A                      A                      A
 Frequencies --   1490.8365              1503.5698              2010.2480
 Red. masses --      1.2014                 1.2840                10.6065
 Frc consts  --      1.5732                 1.7103                25.2534
 IR Inten    --      3.7322                 0.5487                 4.2331

                     46                     47                     48
                      A                      A                      A
 Frequencies --   3007.3820              3017.3836              3035.2043
 Red. masses --      1.0598                 1.0386                 1.0751
 Frc consts  --      5.6472                 5.5715                 5.8353
 IR Inten    --     39.6365                38.5050                25.3447

                     49                     50                     51
                      A                      A                      A
 Frequencies --   3044.2796              3066.3351              3085.1118
 Red. masses --      1.0860                 1.0978                 1.1028
 Frc consts  --      5.9299                 6.0813                 6.1842
 IR Inten    --     55.3653                18.4648                23.9930

                     52                     53                     54
                      A                      A                      A
 Frequencies --   3103.6003              3118.8058              3120.4688
 Red. masses --      1.0861                 1.0641                 1.0993
 Frc consts  --      6.1637                 6.0982                 6.3070
 IR Inten    --     23.8205                23.6826                17.2770

                     55                     56                     57
                      A                      A                      A
 Frequencies --   3122.9136              3153.7033              3203.9364
 Red. masses --      1.0774                 1.0905                 1.1160
 Frc consts  --      6.1907                 6.3902                 6.7494
 IR Inten    --     24.5670                22.7594                15.2789

 - Thermochemistry -
 -------------------
 Temperature   298.150 Kelvin.  Pressure   1.00000 Atm.
 Atom     1 has atomic number  6 and mass  12.00000

 Molecular mass:   120.09390 amu.
 Principal axes and moments of inertia in atomic units:
                           1         2         3
     Eigenvalues --   751.891651066.542531582.88343
           X            0.99996   0.00501  -0.00799
           Y           -0.00495   0.99996   0.00686
           Z            0.00802  -0.00682   0.99994
 This molecule is an asymmetric top.
 Rotational symmetry number  1.
 Warning -- assumption of classical behavior for rotation
           may cause significant error
 Rotational temperatures (Kelvin)      0.11519     0.08121     0.05472
 Rotational constants (GHZ):           2.40027     1.69214     1.14016
 Zero-point vibrational energy     481891.4 (Joules/Mol)
                                  115.17480 (Kcal/Mol)
 Warning -- explicit consideration of  11 degrees of freedom as
           vibrations may cause significant error
 Vibrational temperatures:    174.78   243.25   278.71   308.56   387.41
          (Kelvin)            456.54   543.64   604.02   718.26   799.25
                              862.70   915.62  1006.49  1039.88  1157.58
                             1209.64  1230.09  1279.51  1322.35  1367.61
                             1441.29  1452.52  1489.63  1520.35  1530.71
                             1573.99  1629.19  1644.44  1710.68  1724.57
                             1767.86  1799.28  1803.69  1924.50  1954.26
                             1980.82  2022.18  2033.42  2072.01  2126.87
                             2128.28  2130.83  2144.98  2163.30  2892.30
                             4326.95  4341.34  4366.98  4380.04  4411.77
                             4438.79  4465.39  4487.27  4489.66  4493.18
                             4537.48  4609.75

 Zero-point correction=                           0.183543 (Hartree/Particle)
 Thermal correction to Energy=                    0.191940
 Thermal correction to Enthalpy=                  0.192884
 Thermal correction to Gibbs Free Energy=         0.151080
 Sum of electronic and zero-point Energies=           -349.916663
 Sum of electronic and thermal Energies=              -349.908266
 Sum of electronic and thermal Enthalpies=            -349.907322
 Sum of electronic and thermal Free Energies=         -349.949126

                     E (Thermal)             CV                S
                      KCal/Mol        Cal/Mol-Kelvin    Cal/Mol-Kelvin
 Total                  120.444             33.476             87.985
 Electronic               0.000              0.000              0.000
 Translational            0.889              2.981             40.264
 Rotational               0.889              2.981             28.631
 Vibrational            118.667             27.515             19.090
 Vibration     1          0.609              1.931              3.077
 Vibration     2          0.625              1.881              2.446
 Vibration     3          0.635              1.849              2.192
 Vibration     4          0.644              1.819              2.005
 Vibration     5          0.674              1.730              1.601
 Vibration     6          0.704              1.641              1.324
 Vibration     7          0.748              1.517              1.048
 Vibration     8          0.782              1.427              0.893
 Vibration     9          0.855              1.252              0.660
 Vibration    10          0.911              1.128              0.533
 Vibration    11          0.958              1.033              0.450

 Optimization completed.
    -- Stationary point found.
 Normal termination of Gaussian 16 at Sun Jul  3 22:07:04 2022.
