 Gaussian 16, Revision A.03,
 Gaussian 16:  ES64L-G16RevA.03 25-Dec-2016

 -----------------------------
 # opt freq b3lyp/6-31g(2df,p)
 -----------------------------

 -------------------
 Title Card Required
 -------------------
 Symbolic Z-matrix:
 Charge =  0 Multiplicity = 1

 SCF Done:  E(RB3LYP) =  -390.943299595     A.U. after   17 cycles
 SCF Done:  E(RB3LYP) =  -390.953769994     A.U. after   14 cycles
 SCF Done:  E(RB3LYP) =  -390.955229234     A.U. after   13 cycles
 SCF Done:  E(RB3LYP) =  -390.955319699     A.U. after   10 cycles
 SCF Done:  E(RB3LYP) =  -390.955347713     A.U. after   10 cycles
 SCF Done:  E(RB3LYP) =  -390.955354628     A.U. after    9 cycles
 SCF Done:  E(RB3LYP) =  -390.955361149     A.U. after   10 cycles
 SCF Done:  E(RB3LYP) =  -390.955400118     A.U. after   13 cycles
 SCF Done:  E(RB3LYP) =  -390.920624805     A.U. after   15 cycles
 SCF Done:  E(RB3LYP) =  -390.955627689     A.U. after   13 cycles
 SCF Done:  E(RB3LYP) =  -390.970689826     A.U. after   15 cycles
 SCF Done:  E(RB3LYP) =  -390.973703106     A.U. after   14 cycles
 SCF Done:  E(RB3LYP) =  -390.974633384     A.U. after   14 cycles
 SCF Done:  E(RB3LYP) =  -390.974966751     A.U. after   14 cycles
 SCF Done:  E(RB3LYP) =  -390.975088332     A.U. after   12 cycles
 SCF Done:  E(RB3LYP) =  -390.975151065     A.U. after   12 cycles
 SCF Done:  E(RB3LYP) =  -390.975175493     A.U. after   10 cycles
 SCF Done:  E(RB3LYP) =  -390.975181513     A.U. after   10 cycles
 SCF Done:  E(RB3LYP) =  -390.975182755     A.U. after    8 cycles
 Optimization completed.
    -- Stationary point found.
 Normal termination of Gaussian 16 at Sun Jul  3 10:26:08 2022.

 ----------------------------------------------------------------------
 #N Geom=AllCheck Guess=TCheck SCRF=Check GenChk RB3LYP/6-31G(2df,p) Fr
 eq
 ----------------------------------------------------------------------

 Structure from the checkpoint file:  "CC1dNNdCNdNN1.chk"
 -------------------
 Title Card Required
 -------------------
 Charge =  0 Multiplicity = 1

                         Standard orientation:
 ---------------------------------------------------------------------
 Center     Atomic      Atomic             Coordinates (Angstroms)
 Number     Number       Type             X           Y           Z
 ---------------------------------------------------------------------
      1          6           0        2.449241   -0.041475    0.244017
      2          6           0        0.997298   -0.191652   -0.093391
      3          7           0        0.378100   -1.278559    0.183615
      4          7           0       -0.929517   -1.442132   -0.206529
      5          6           0       -1.769319   -0.481631   -0.086876
      6          7           0       -1.581001    0.794798    0.490461
      7          7           0       -0.596431    1.490522    0.235265
      8          7           0        0.341710    0.909516   -0.722732
      9          1           0        2.831032   -0.973293    0.660136
     10          1           0        2.595561    0.769086    0.966654
     11          1           0        3.026561    0.209829   -0.654208
     12          1           0       -2.811710   -0.692328   -0.310163
     13          1           0        1.005210    1.656243   -0.905487
 ---------------------------------------------------------------------

 SCF Done:  E(RB3LYP) =  -390.975182755     A.U. after    2 cycles

 The electronic state is 1-A.
 Alpha  occ. eigenvalues --  -14.44197 -14.40044 -14.38996 -14.37509 -14.36377
 Alpha  occ. eigenvalues --  -10.28365 -10.26445 -10.21146  -1.09704  -1.00953
 Alpha  occ. eigenvalues --   -0.94432  -0.83771  -0.77423  -0.71536  -0.62023
 Alpha  occ. eigenvalues --   -0.60450  -0.55562  -0.49665  -0.49144  -0.45564
 Alpha  occ. eigenvalues --   -0.44013  -0.42813  -0.39588  -0.38109  -0.35477
 Alpha  occ. eigenvalues --   -0.31908  -0.29315  -0.26786  -0.23695
 Alpha virt. eigenvalues --   -0.08667  -0.02186   0.02775   0.06875   0.11523
 Alpha virt. eigenvalues --    0.12509   0.13364   0.14618   0.16081   0.19215
 Alpha virt. eigenvalues --    0.20765   0.24924   0.30070   0.31152   0.36945

 Mulliken charges:
               1
     1  C   -0.477203
     2  C    0.387955
     3  N   -0.213606
     4  N   -0.152073
     5  C    0.095359
     6  N   -0.096216
     7  N   -0.080659
     8  N   -0.320228
     9  H    0.164875
    10  H    0.151559
    11  H    0.143254
    12  H    0.144593
    13  H    0.252392
 Sum of Mulliken charges =  -0.00000

 Dipole moment (field-independent basis, Debye):
    X=              2.1545    Y=              1.8321    Z=             -0.8030  Tot=              2.9399
 Quadrupole moment (field-independent basis, Debye-Ang):
   XX=            -37.9080   YY=            -51.6135   ZZ=            -46.6581
   XY=              3.4568   XZ=              0.6345   YZ=             -2.1799

  Exact polarizability:  85.817   3.175  63.996  -1.846  -0.472  40.389
 Approx polarizability: 136.385   4.515 125.502  -9.134  -1.717  68.392

                      1                      2                      3
                      A                      A                      A
 Frequencies --    152.7002               183.5414               246.7677
 Red. masses --      3.2930                 1.1083                 4.8142
 Frc consts  --      0.0452                 0.0220                 0.1727
 IR Inten    --      1.5197                 0.3329                13.0238

                      4                      5                      6
                      A                      A                      A
 Frequencies --    330.4665               360.9253               412.4278
 Red. masses --      5.8413                 3.4757                 7.2691
 Frc consts  --      0.3759                 0.2668                 0.7285
 IR Inten    --      8.6937                 6.0865                 4.7443

                      7                      8                      9
                      A                      A                      A
 Frequencies --    441.3107               570.7470               652.1116
 Red. masses --      5.7329                 3.3036                 5.1321
 Frc consts  --      0.6578                 0.6340                 1.2859
 IR Inten    --      2.7276                 3.1216                 9.1821

                     10                     11                     12
                      A                      A                      A
 Frequencies --    718.2028               766.5307               842.1682
 Red. masses --      4.5370                 8.6088                 3.1367
 Frc consts  --      1.3788                 2.9802                 1.3107
 IR Inten    --     47.8577                27.8030                27.8942

                     13                     14                     15
                      A                      A                      A
 Frequencies --    908.3576               932.9851               946.1259
 Red. masses --      3.6877                 2.1229                 3.0672
 Frc consts  --      1.7928                 1.0887                 1.6177
 IR Inten    --     26.5200                36.6261                21.3237

                     16                     17                     18
                      A                      A                      A
 Frequencies --    997.1195              1047.9546              1072.0102
 Red. masses --      2.1648                 1.9166                 2.1713
 Frc consts  --      1.2681                 1.2401                 1.4702
 IR Inten    --     26.9011                25.7303                32.3057

                     19                     20                     21
                      A                      A                      A
 Frequencies --   1104.4655              1225.8509              1379.0275
 Red. masses --      2.2078                 4.0035                 1.3062
 Frc consts  --      1.5868                 3.5446                 1.4636
 IR Inten    --     24.1453                55.9381                 4.6446

                     22                     23                     24
                      A                      A                      A
 Frequencies --   1405.3951              1413.4210              1471.0461
 Red. masses --      1.3154                 1.3058                 1.0597
 Frc consts  --      1.5308                 1.5370                 1.3511
 IR Inten    --     10.4180                59.3403                 7.9234

                     25                     26                     27
                      A                      A                      A
 Frequencies --   1480.9476              1598.7156              1656.4132
 Red. masses --      1.0452                 9.0957                 4.6610
 Frc consts  --      1.3506                13.6972                 7.5347
 IR Inten    --      6.5388                 2.6403                 8.4751

                     28                     29                     30
                      A                      A                      A
 Frequencies --   1682.0096              3031.6953              3087.7487
 Red. masses --      8.8901                 1.0399                 1.0985
 Frc consts  --     14.8188                 5.6312                 6.1706
 IR Inten    --     74.1456                 8.5667                 7.1336

                     31                     32                     33
                      A                      A                      A
 Frequencies --   3160.7841              3175.8407              3529.7206
 Red. masses --      1.0987                 1.0895                 1.0756
 Frc consts  --      6.4673                 6.4745                 7.8958
 IR Inten    --      2.4631                 7.3307                11.0443

 - Thermochemistry -
 -------------------
 Temperature   298.150 Kelvin.  Pressure   1.00000 Atm.
 Atom     1 has atomic number  6 and mass  12.00000

 Molecular mass:   111.05450 amu.
 Principal axes and moments of inertia in atomic units:
                           1         2         3
     Eigenvalues --   455.84590 807.701901148.36570
           X            0.99928   0.03606   0.01178
           Y           -0.03590   0.99927  -0.01332
           Z           -0.01225   0.01288   0.99984
 This molecule is an asymmetric top.
 Rotational symmetry number  1.
 Warning -- assumption of classical behavior for rotation
           may cause significant error
 Rotational temperatures (Kelvin)      0.19001     0.10724     0.07542
 Rotational constants (GHZ):           3.95910     2.23441     1.57157
 Zero-point vibrational energy     251129.3 (Joules/Mol)
                                   60.02133 (Kcal/Mol)
 Warning -- explicit consideration of   8 degrees of freedom as
           vibrations may cause significant error
 Vibrational temperatures:    219.70   264.08   355.04   475.47   519.29
          (Kelvin)            593.39   634.95   821.18   938.24  1033.33
                             1102.87  1211.69  1306.92  1342.36  1361.26
                             1434.63  1507.77  1542.38  1589.08  1763.73
                             1984.11  2022.05  2033.60  2116.51  2130.75
                             2300.20  2383.21  2420.04  4361.93  4442.58
                             4547.66  4569.33  5078.48

 Zero-point correction=                           0.095650 (Hartree/Particle)
 Thermal correction to Energy=                    0.102394
 Thermal correction to Enthalpy=                  0.103338
 Thermal correction to Gibbs Free Energy=         0.064971
 Sum of electronic and zero-point Energies=           -390.879533
 Sum of electronic and thermal Energies=              -390.872788
 Sum of electronic and thermal Enthalpies=            -390.871844
 Sum of electronic and thermal Free Energies=         -390.910211

                     E (Thermal)             CV                S
                      KCal/Mol        Cal/Mol-Kelvin    Cal/Mol-Kelvin
 Total                   64.253             25.066             80.750
 Electronic               0.000              0.000              0.000
 Translational            0.889              2.981             40.031
 Rotational               0.889              2.981             27.538
 Vibrational             62.476             19.105             13.182
 Vibration     1          0.619              1.900              2.638
 Vibration     2          0.631              1.862              2.292
 Vibration     3          0.661              1.768              1.754
 Vibration     4          0.713              1.615              1.258
 Vibration     5          0.735              1.553              1.118
 Vibration     6          0.776              1.443              0.918
 Vibration     7          0.801              1.380              0.822
 Vibration     8          0.927              1.095              0.503

 Optimization completed.
    -- Stationary point found.
 Normal termination of Gaussian 16 at Sun Jul  3 10:42:59 2022.
