 Gaussian 16, Revision A.03,
 Gaussian 16:  ES64L-G16RevA.03 25-Dec-2016

 -----------------------------
 # opt freq b3lyp/6-31g(2df,p)
 -----------------------------

 -------------------
 Title Card Required
 -------------------
 Symbolic Z-matrix:
 Charge =  0 Multiplicity = 1

 SCF Done:  E(RB3LYP) =  -432.888085217     A.U. after   14 cycles
 SCF Done:  E(RB3LYP) =  -432.898259078     A.U. after   13 cycles
 SCF Done:  E(RB3LYP) =  -432.900454227     A.U. after   13 cycles
 SCF Done:  E(RB3LYP) =  -432.901188111     A.U. after   12 cycles
 SCF Done:  E(RB3LYP) =  -432.901462471     A.U. after   12 cycles
 SCF Done:  E(RB3LYP) =  -432.901559582     A.U. after   10 cycles
 SCF Done:  E(RB3LYP) =  -432.901589934     A.U. after    9 cycles
 SCF Done:  E(RB3LYP) =  -432.901597109     A.U. after    9 cycles
 SCF Done:  E(RB3LYP) =  -432.901598847     A.U. after    8 cycles
 SCF Done:  E(RB3LYP) =  -432.901599595     A.U. after    8 cycles
 SCF Done:  E(RB3LYP) =  -432.901599679     A.U. after    7 cycles
 SCF Done:  E(RB3LYP) =  -432.901599743     A.U. after    6 cycles
 Optimization completed.
    -- Stationary point found.
 Normal termination of Gaussian 16 at Sun Jul  3 23:39:03 2022.

 ----------------------------------------------------------------------
 #N Geom=AllCheck Guess=TCheck SCRF=Check GenChk RB3LYP/6-31G(2df,p) Fr
 eq
 ----------------------------------------------------------------------

 Structure from the checkpoint file:  "CC1dNNdC2ONdCC12.chk"
 -------------------
 Title Card Required
 -------------------
 Charge =  0 Multiplicity = 1

                         Standard orientation:
 ---------------------------------------------------------------------
 Center     Atomic      Atomic             Coordinates (Angstroms)
 Number     Number       Type             X           Y           Z
 ---------------------------------------------------------------------
      1          6           0       -2.629801   -0.900522   -0.065181
      2          6           0       -1.389728   -0.075129   -0.025873
      3          7           0       -1.395497    1.209788   -0.158510
      4          7           0       -0.053066    1.742556   -0.114260
      5          6           0        0.687351    0.753654    0.205934
      6          8           0        2.022798    0.584950    0.060149
      7          7           0        2.206442   -0.805634   -0.246361
      8          6           0        1.078952   -1.414720   -0.143637
      9          6           0       -0.008816   -0.543134    0.401455
     10          1           0       -3.489266   -0.259439   -0.267784
     11          1           0       -2.792699   -1.421031    0.885790
     12          1           0       -2.565689   -1.668300   -0.845079
     13          1           0        1.058154   -2.481748   -0.326477
     14          1           0       -0.125786   -0.796949    1.470085
 ---------------------------------------------------------------------

 SCF Done:  E(RB3LYP) =  -432.901599743     A.U. after    1 cycles

 The electronic state is 1-A.
 Alpha  occ. eigenvalues --  -19.23211 -14.41982 -14.36384 -14.35511 -10.28923
 Alpha  occ. eigenvalues --  -10.26878 -10.25549 -10.24518 -10.21107  -1.14674
 Alpha  occ. eigenvalues --   -1.01952  -0.91201  -0.83834  -0.80584  -0.73578
 Alpha  occ. eigenvalues --   -0.64919  -0.60452  -0.58644  -0.53076  -0.50614
 Alpha  occ. eigenvalues --   -0.49512  -0.45653  -0.44197  -0.42635  -0.41824
 Alpha  occ. eigenvalues --   -0.39217  -0.37652  -0.34848  -0.31956  -0.29847
 Alpha  occ. eigenvalues --   -0.27641  -0.25734
 Alpha virt. eigenvalues --   -0.06256  -0.03641   0.01840   0.05941   0.08310
 Alpha virt. eigenvalues --    0.10491   0.12426   0.13625   0.14254   0.14929
 Alpha virt. eigenvalues --    0.17739   0.20314   0.24926   0.26247   0.29440

 Mulliken charges:
               1
     1  C   -0.488413
     2  C    0.309238
     3  N   -0.214573
     4  N   -0.267736
     5  C    0.467343
     6  O   -0.239058
     7  N   -0.048056
     8  C   -0.019924
     9  C   -0.268863
    10  H    0.163024
    11  H    0.138269
    12  H    0.140568
    13  H    0.156907
    14  H    0.171275
 Sum of Mulliken charges =  -0.00000

 Dipole moment (field-independent basis, Debye):
    X=             -1.9033    Y=             -5.0195    Z=              1.3387  Tot=              5.5327
 Quadrupole moment (field-independent basis, Debye-Ang):
   XX=            -55.6760   YY=            -53.4012   ZZ=            -48.8378
   XY=              3.6805   XZ=              0.2821   YZ=              0.7660

  Exact polarizability:  85.307   0.668  75.439  -0.182  -1.221  43.583
 Approx polarizability: 134.984   2.827 138.888   1.159  -5.084  72.132

                      1                      2                      3
                      A                      A                      A
 Frequencies --    154.2419               175.5810               203.6258
 Red. masses --      1.5128                 2.0483                 4.0550
 Frc consts  --      0.0212                 0.0372                 0.0991
 IR Inten    --      0.7901                 1.0153                 4.7234

                      4                      5                      6
                      A                      A                      A
 Frequencies --    270.1361               365.8092               464.5020
 Red. masses --      3.4596                 5.0717                 4.0644
 Frc consts  --      0.1487                 0.3999                 0.5167
 IR Inten    --      4.8608                 3.1031                 3.9818

                      7                      8                      9
                      A                      A                      A
 Frequencies --    524.7888               573.3334               590.5326
 Red. masses --      7.0129                 5.1597                 5.6290
 Frc consts  --      1.1379                 0.9993                 1.1566
 IR Inten    --      2.3913                 2.3737                17.2684

                     10                     11                     12
                      A                      A                      A
 Frequencies --    689.4629               773.8080               782.6915
 Red. masses --      9.6438                 4.1523                 3.1160
 Frc consts  --      2.7010                 1.4649                 1.1247
 IR Inten    --      2.4541                 5.1487                 3.3623

                     13                     14                     15
                      A                      A                      A
 Frequencies --    815.6491               872.7579               893.7882
 Red. masses --      9.9353                 2.0588                 3.0387
 Frc consts  --      3.8944                 0.9240                 1.4302
 IR Inten    --     49.1592                 7.5693                 8.1766

                     16                     17                     18
                      A                      A                      A
 Frequencies --    947.0657               969.9516              1028.7931
 Red. masses --      3.5778                 3.4630                 1.8364
 Frc consts  --      1.8907                 1.9195                 1.1452
 IR Inten    --     12.9112                 9.7382                 4.7686

                     19                     20                     21
                      A                      A                      A
 Frequencies --   1054.0321              1078.9009              1153.9760
 Red. masses --      1.5559                 2.0146                 1.7725
 Frc consts  --      1.0185                 1.3817                 1.3907
 IR Inten    --      0.3411                 1.7721                 9.0028

                     22                     23                     24
                      A                      A                      A
 Frequencies --   1204.9375              1252.0328              1299.1477
 Red. masses --      1.6508                 2.1881                 4.3910
 Frc consts  --      1.4121                 2.0209                 4.3665
 IR Inten    --     20.1760                 9.7994                22.0668

                     25                     26                     27
                      A                      A                      A
 Frequencies --   1350.9472              1412.4629              1470.5116
 Red. masses --      4.7620                 1.3552                 1.1029
 Frc consts  --      5.1205                 1.5929                 1.4052
 IR Inten    --     47.4146                 4.9244                 9.4196

                     28                     29                     30
                      A                      A                      A
 Frequencies --   1478.1729              1598.1256              1615.5815
 Red. masses --      1.0493                 7.2669                 8.0251
 Frc consts  --      1.3508                10.9350                12.3413
 IR Inten    --      8.8954                12.6366                 4.8231

                     31                     32                     33
                      A                      A                      A
 Frequencies --   1669.4273              2975.8741              3030.8749
 Red. masses --     11.6079                 1.0786                 1.0385
 Frc consts  --     19.0607                 5.6280                 5.6205
 IR Inten    --    140.4287                 0.7036                13.0897

                     34                     35                     36
                      A                      A                      A
 Frequencies --   3081.7837              3144.0383              3224.1587
 Red. masses --      1.0991                 1.0989                 1.0942
 Frc consts  --      6.1503                 6.4001                 6.7017
 IR Inten    --     10.5385                 3.3999                 1.2156

 - Thermochemistry -
 -------------------
 Temperature   298.150 Kelvin.  Pressure   1.00000 Atm.
 Atom     1 has atomic number  6 and mass  12.00000

 Molecular mass:   123.04326 amu.
 Principal axes and moments of inertia in atomic units:
                           1         2         3
     Eigenvalues --   503.285651151.553471597.32258
           X            0.99925   0.03866   0.00010
           Y           -0.03866   0.99925  -0.00149
           Z           -0.00016   0.00149   1.00000
 This molecule is an asymmetric top.
 Rotational symmetry number  1.
 Warning -- assumption of classical behavior for rotation
           may cause significant error
 Rotational temperatures (Kelvin)      0.17210     0.07521     0.05422
 Rotational constants (GHZ):           3.58592     1.56722     1.12985
 Zero-point vibrational energy     264323.9 (Joules/Mol)
                                   63.17493 (Kcal/Mol)
 Warning -- explicit consideration of   9 degrees of freedom as
           vibrations may cause significant error
 Vibrational temperatures:    221.92   252.62   292.97   388.67   526.32
          (Kelvin)            668.31   755.05   824.90   849.64   991.98
                             1113.34  1126.12  1173.54  1255.70  1285.96
                             1362.62  1395.54  1480.20  1516.52  1552.30
                             1660.31  1733.64  1801.40  1869.18  1943.71
                             2032.22  2115.74  2126.76  2299.35  2324.46
                             2401.93  4281.62  4360.75  4434.00  4523.57
                             4638.85

 Zero-point correction=                           0.100676 (Hartree/Particle)
 Thermal correction to Energy=                    0.107650
 Thermal correction to Enthalpy=                  0.108595
 Thermal correction to Gibbs Free Energy=         0.069299
 Sum of electronic and zero-point Energies=           -432.800924
 Sum of electronic and thermal Energies=              -432.793949
 Sum of electronic and thermal Enthalpies=            -432.793005
 Sum of electronic and thermal Free Energies=         -432.832301

                     E (Thermal)             CV                S
                      KCal/Mol        Cal/Mol-Kelvin    Cal/Mol-Kelvin
 Total                   67.552             26.511             82.705
 Electronic               0.000              0.000              0.000
 Translational            0.889              2.981             40.336
 Rotational               0.889              2.981             28.317
 Vibrational             65.774             20.549             14.052
 Vibration     1          0.620              1.898              2.619
 Vibration     2          0.628              1.872              2.375
 Vibration     3          0.639              1.835              2.100
 Vibration     4          0.674              1.728              1.595
 Vibration     5          0.739              1.543              1.097
 Vibration     6          0.822              1.329              0.753
 Vibration     7          0.880              1.195              0.599
 Vibration     8          0.930              1.089              0.498
 Vibration     9          0.948              1.052              0.466

 Optimization completed.
    -- Stationary point found.
 Normal termination of Gaussian 16 at Mon Jul  4 00:00:15 2022.
