 Gaussian 16, Revision A.03,
 Gaussian 16:  ES64L-G16RevA.03 25-Dec-2016

 -----------------------------
 # opt freq b3lyp/6-31g(2df,p)
 -----------------------------

 -------------------
 Title Card Required
 -------------------
 Symbolic Z-matrix:
 Charge =  0 Multiplicity = 1

 SCF Done:  E(RB3LYP) =  -439.176007716     A.U. after   14 cycles
 SCF Done:  E(RB3LYP) =  -439.204568256     A.U. after   12 cycles
 SCF Done:  E(RB3LYP) =  -439.218363247     A.U. after   11 cycles
 SCF Done:  E(RB3LYP) =  -439.221477013     A.U. after   11 cycles
 SCF Done:  E(RB3LYP) =  -439.222388331     A.U. after   11 cycles
 SCF Done:  E(RB3LYP) =  -439.222623030     A.U. after   10 cycles
 SCF Done:  E(RB3LYP) =  -439.222689037     A.U. after   10 cycles
 SCF Done:  E(RB3LYP) =  -439.222723146     A.U. after    9 cycles
 SCF Done:  E(RB3LYP) =  -439.222774438     A.U. after   10 cycles
 SCF Done:  E(RB3LYP) =  -439.222839486     A.U. after   10 cycles
 SCF Done:  E(RB3LYP) =  -439.222893078     A.U. after   10 cycles
 SCF Done:  E(RB3LYP) =  -439.222914243     A.U. after    9 cycles
 SCF Done:  E(RB3LYP) =  -439.222918741     A.U. after    9 cycles
 SCF Done:  E(RB3LYP) =  -439.222920407     A.U. after    9 cycles
 SCF Done:  E(RB3LYP) =  -439.222922810     A.U. after    8 cycles
 SCF Done:  E(RB3LYP) =  -439.222922869     A.U. after    6 cycles
 Optimization completed.
    -- Stationary point found.
 Normal termination of Gaussian 16 at Thu Aug  4 01:23:04 2022.

 ----------------------------------------------------------------------
 #N Geom=AllCheck Guess=TCheck SCRF=Check GenChk RB3LYP/6-31G(2df,p) Fr
 eq
 ----------------------------------------------------------------------

 Structure from the checkpoint file:  "CC1dCpOpCNC2OC12.chk"
 -------------------
 Title Card Required
 -------------------
 Charge =  0 Multiplicity = 1

                         Standard orientation:
 ---------------------------------------------------------------------
 Center     Atomic      Atomic             Coordinates (Angstroms)
 Number     Number       Type             X           Y           Z
 ---------------------------------------------------------------------
      1          6           0       -1.947088   -1.538735   -0.187499
      2          6           0       -0.747951   -0.630511   -0.105101
      3          6           0       -0.815401    0.701936    0.032238
      4          8           0       -1.956595    1.436797    0.153875
      5          6           0        0.397295    1.585124    0.139434
      6          7           0        1.560379    1.007500   -0.540509
      7          6           0        1.769151   -0.378504   -0.343610
      8          8           0        1.528420   -0.981167    0.944471
      9          6           0        0.606403   -1.241155   -0.158286
     10          1           0       -2.858409   -1.015471   -0.500896
     11          1           0       -2.163227   -2.034099    0.768252
     12          1           0       -1.782531   -2.331750   -0.925798
     13          1           0       -2.713174    0.842325    0.200819
     14          1           0        0.585895    1.776989    1.208426
     15          1           0        0.160078    2.550209   -0.321572
     16          1           0        2.395338    1.539410   -0.326135
     17          1           0        2.659017   -0.744876   -0.852392
     18          1           0        0.645296   -2.269209   -0.516952
 ---------------------------------------------------------------------

 SCF Done:  E(RB3LYP) =  -439.222922869     A.U. after    1 cycles

 The electronic state is 1-A.
 Alpha  occ. eigenvalues --  -19.17174 -19.12966 -14.32614 -10.25048 -10.23870
 Alpha  occ. eigenvalues --  -10.22701 -10.21522 -10.19129 -10.17636  -1.06084
 Alpha  occ. eigenvalues --   -1.05110  -0.90489  -0.79755  -0.73345  -0.68350
 Alpha  occ. eigenvalues --   -0.62942  -0.61599  -0.56424  -0.52029  -0.49581
 Alpha  occ. eigenvalues --   -0.46379  -0.45280  -0.43553  -0.42156  -0.41650
 Alpha  occ. eigenvalues --   -0.39113  -0.37955  -0.37041  -0.36563  -0.34897
 Alpha  occ. eigenvalues --   -0.31785  -0.26277  -0.23469  -0.20494
 Alpha virt. eigenvalues --    0.02177   0.06087   0.09212   0.12100   0.13133
 Alpha virt. eigenvalues --    0.13947   0.14141   0.15236   0.16225   0.17664
 Alpha virt. eigenvalues --    0.18488   0.19785   0.22603   0.23598   0.24998

 Mulliken charges:
               1
     1  C   -0.525103
     2  C    0.168780
     3  C    0.296817
     4  O   -0.425784
     5  C   -0.247834
     6  N   -0.337665
     7  C    0.091326
     8  O   -0.289831
     9  C   -0.059197
    10  H    0.106892
    11  H    0.137409
    12  H    0.132817
    13  H    0.296654
    14  H    0.120810
    15  H    0.121426
    16  H    0.230166
    17  H    0.097753
    18  H    0.084563
 Sum of Mulliken charges =  -0.00000

 Dipole moment (field-independent basis, Debye):
    X=             -0.9458    Y=             -0.0134    Z=             -0.7799  Tot=              1.2259
 Quadrupole moment (field-independent basis, Debye-Ang):
   XX=            -45.1654   YY=            -51.3094   ZZ=            -56.4637
   XY=              5.0467   XZ=             -2.4298   YZ=              3.1833

  Exact polarizability:  83.174   2.391  87.111  -1.818   2.911  50.928
 Approx polarizability: 112.461  -2.609 136.246  -0.341   2.002  84.315

                      1                      2                      3
                      A                      A                      A
 Frequencies --     94.6643               120.2532               151.3765
 Red. masses --      1.0727                 3.3378                 3.3962
 Frc consts  --      0.0057                 0.0284                 0.0459
 IR Inten    --      0.2291                 1.6967                 0.6253

                      4                      5                      6
                      A                      A                      A
 Frequencies --    233.8906               311.0012               374.3226
 Red. masses --      3.1399                 2.5104                 3.6133
 Frc consts  --      0.1012                 0.1431                 0.2983
 IR Inten    --      3.7866                 3.1159                22.5547

                      7                      8                      9
                      A                      A                      A
 Frequencies --    401.7652               430.7861               438.3935
 Red. masses --      1.4151                 3.0527                 3.6358
 Frc consts  --      0.1346                 0.3338                 0.4117
 IR Inten    --     57.6625                12.1653                28.1775

                     10                     11                     12
                      A                      A                      A
 Frequencies --    519.8902               562.6266               598.5240
 Red. masses --      4.5503                 4.2743                 3.0865
 Frc consts  --      0.7246                 0.7972                 0.6514
 IR Inten    --      1.1087                11.8430                 3.8468

                     13                     14                     15
                      A                      A                      A
 Frequencies --    664.1041               726.8541               746.3178
 Red. masses --      2.9044                 4.1999                 3.4397
 Frc consts  --      0.7547                 1.3073                 1.1288
 IR Inten    --     43.1567                35.1012                81.9686

                     16                     17                     18
                      A                      A                      A
 Frequencies --    837.4680               872.6843               947.8221
 Red. masses --      2.6940                 3.5399                 2.3933
 Frc consts  --      1.1132                 1.5884                 1.2668
 IR Inten    --     39.9566                 5.2564                27.3078

                     19                     20                     21
                      A                      A                      A
 Frequencies --    990.1672              1014.9816              1051.6998
 Red. masses --      2.3963                 1.7646                 1.5345
 Frc consts  --      1.3842                 1.0711                 1.0000
 IR Inten    --     24.0415                24.2602                 2.3307

                     22                     23                     24
                      A                      A                      A
 Frequencies --   1059.1130              1083.9325              1128.0870
 Red. masses --      1.5505                 1.8830                 1.3970
 Frc consts  --      1.0247                 1.3035                 1.0475
 IR Inten    --      9.4922                53.9155                 2.4431

                     25                     26                     27
                      A                      A                      A
 Frequencies --   1186.1882              1221.5581              1239.2967
 Red. masses --      2.4594                 2.2120                 2.1968
 Frc consts  --      2.0388                 1.9447                 1.9879
 IR Inten    --     10.7923               122.7579                 1.1410

                     28                     29                     30
                      A                      A                      A
 Frequencies --   1258.2279              1300.5666              1318.1256
 Red. masses --      1.3159                 1.3040                 1.3293
 Frc consts  --      1.2274                 1.2995                 1.3607
 IR Inten    --     48.0629                 2.5044                 0.9044

                     31                     32                     33
                      A                      A                      A
 Frequencies --   1370.4333              1393.9441              1422.3940
 Red. masses --      2.0635                 1.6418                 1.3170
 Frc consts  --      2.2833                 1.8796                 1.5699
 IR Inten    --     20.2064                13.6747                 8.7574

                     34                     35                     36
                      A                      A                      A
 Frequencies --   1481.0542              1489.2714              1499.3494
 Red. masses --      1.1625                 1.4360                 1.0817
 Frc consts  --      1.5024                 1.8765                 1.4327
 IR Inten    --     11.9797                18.1213                 2.9125

                     37                     38                     39
                      A                      A                      A
 Frequencies --   1504.4594              1513.5436              1740.5778
 Red. masses --      1.2491                 1.8741                 7.4965
 Frc consts  --      1.6658                 2.5295                13.3813
 IR Inten    --     24.4228                 8.3425               115.4503

                     40                     41                     42
                      A                      A                      A
 Frequencies --   2965.9570              3009.3764              3058.3513
 Red. masses --      1.0717                 1.0378                 1.0882
 Frc consts  --      5.5548                 5.5377                 5.9971
 IR Inten    --     46.8292                35.9104                23.1083

                     43                     44                     45
                      A                      A                      A
 Frequencies --   3061.8779              3077.8297              3109.9165
 Red. masses --      1.0992                 1.0984                 1.0870
 Frc consts  --      6.0714                 6.1304                 6.1940
 IR Inten    --     26.3073                19.5710                27.8330

                     46                     47                     48
                      A                      A                      A
 Frequencies --   3130.7078              3547.9709              3812.8073
 Red. masses --      1.0908                 1.0745                 1.0648
 Frc consts  --      6.2993                 7.9691                 9.1205
 IR Inten    --     42.3834                 2.5843                31.0116

 - Thermochemistry -
 -------------------
 Temperature   298.150 Kelvin.  Pressure   1.00000 Atm.
 Atom     1 has atomic number  6 and mass  12.00000

 Molecular mass:   127.06333 amu.
 Principal axes and moments of inertia in atomic units:
                           1         2         3
     Eigenvalues --   734.773611074.091511626.21790
           X            0.99337   0.11479  -0.00616
           Y           -0.11461   0.99311   0.02454
           Z            0.00894  -0.02368   0.99968
 This molecule is an asymmetric top.
 Rotational symmetry number  1.
 Warning -- assumption of classical behavior for rotation
           may cause significant error
 Rotational temperatures (Kelvin)      0.11788     0.08064     0.05326
 Rotational constants (GHZ):           2.45619     1.68025     1.10978
 Zero-point vibrational energy     389232.0 (Joules/Mol)
                                   93.02868 (Kcal/Mol)
 Warning -- explicit consideration of  12 degrees of freedom as
           vibrations may cause significant error
 Vibrational temperatures:    136.20   173.02   217.80   336.52   447.46
          (Kelvin)            538.57   578.05   619.81   630.75   748.01
                              809.49   861.14   955.50  1045.78  1073.78
                             1204.93  1255.60  1363.70  1424.63  1460.33
                             1513.16  1523.83  1559.54  1623.07  1706.66
                             1757.55  1783.07  1810.31  1871.23  1896.49
                             1971.75  2005.57  2046.51  2130.91  2142.73
                             2157.23  2164.58  2177.65  2504.30  4267.35
                             4329.82  4400.29  4405.36  4428.31  4474.48
                             4504.39  5104.74  5485.78

 Zero-point correction=                           0.148251 (Hartree/Particle)
 Thermal correction to Energy=                    0.156643
 Thermal correction to Enthalpy=                  0.157587
 Thermal correction to Gibbs Free Energy=         0.115305
 Sum of electronic and zero-point Energies=           -439.074672
 Sum of electronic and thermal Energies=              -439.066280
 Sum of electronic and thermal Enthalpies=            -439.065336
 Sum of electronic and thermal Free Energies=         -439.107617

                     E (Thermal)             CV                S
                      KCal/Mol        Cal/Mol-Kelvin    Cal/Mol-Kelvin
 Total                   98.295             32.030             88.990
 Electronic               0.000              0.000              0.000
 Translational            0.889              2.981             40.432
 Rotational               0.889              2.981             28.642
 Vibrational             96.518             26.068             19.916
 Vibration     1          0.603              1.953              3.561
 Vibration     2          0.609              1.932              3.096
 Vibration     3          0.619              1.901              2.655
 Vibration     4          0.654              1.789              1.849
 Vibration     5          0.700              1.653              1.357
 Vibration     6          0.745              1.525              1.062
 Vibration     7          0.767              1.466              0.956
 Vibration     8          0.792              1.403              0.856
 Vibration     9          0.799              1.386              0.832
 Vibration    10          0.875              1.206              0.610
 Vibration    11          0.918              1.112              0.519
 Vibration    12          0.957              1.035              0.452

 Optimization completed.
    -- Stationary point found.
 Normal termination of Gaussian 16 at Thu Aug  4 01:59:34 2022.
