 Gaussian 16, Revision A.03,
 Gaussian 16:  ES64L-G16RevA.03 25-Dec-2016

 -----------------------------
 # opt freq b3lyp/6-31g(2df,p)
 -----------------------------

 -------------------
 Title Card Required
 -------------------
 Symbolic Z-matrix:
 Charge =  0 Multiplicity = 1

 SCF Done:  E(RB3LYP) =  -434.202394397     A.U. after   14 cycles
 SCF Done:  E(RB3LYP) =  -434.211239240     A.U. after   13 cycles
 SCF Done:  E(RB3LYP) =  -434.217689966     A.U. after   14 cycles
 SCF Done:  E(RB3LYP) =  -434.220169329     A.U. after   13 cycles
 SCF Done:  E(RB3LYP) =  -434.220527900     A.U. after   11 cycles
 SCF Done:  E(RB3LYP) =  -434.220593564     A.U. after   11 cycles
 SCF Done:  E(RB3LYP) =  -434.220658051     A.U. after   10 cycles
 SCF Done:  E(RB3LYP) =  -434.220668633     A.U. after    9 cycles
 SCF Done:  E(RB3LYP) =  -434.220671242     A.U. after    9 cycles
 SCF Done:  E(RB3LYP) =  -434.220671732     A.U. after    7 cycles
 Optimization completed.
    -- Stationary point found.
 Normal termination of Gaussian 16 at Thu Aug  4 05:13:30 2022.

 ----------------------------------------------------------------------
 #N Geom=AllCheck Guess=TCheck SCRF=Check GenChk RB3LYP/6-31G(2df,p) Fr
 eq
 ----------------------------------------------------------------------

 Structure from the checkpoint file:  "CC1dNNdCNCpdOpC1.chk"
 -------------------
 Title Card Required
 -------------------
 Charge =  0 Multiplicity = 1

                         Standard orientation:
 ---------------------------------------------------------------------
 Center     Atomic      Atomic             Coordinates (Angstroms)
 Number     Number       Type             X           Y           Z
 ---------------------------------------------------------------------
      1          6           0       -2.434633   -0.810035   -0.373196
      2          6           0       -1.248593   -0.026640    0.105178
      3          7           0       -1.132036    1.199024   -0.248257
      4          7           0       -0.068509    1.964121    0.150888
      5          6           0        1.138168    1.548160    0.010837
      6          7           0        1.569455    0.281483   -0.371114
      7          6           0        1.025253   -0.929642    0.055115
      8          8           0        1.501731   -1.991285   -0.265003
      9          6           0       -0.203262   -0.739449    0.936754
     10          1           0       -3.062166   -0.191260   -1.015253
     11          1           0       -3.029541   -1.169983    0.475043
     12          1           0       -2.106608   -1.697265   -0.928143
     13          1           0        1.931832    2.268677    0.194508
     14          1           0        2.476299    0.194221   -0.811519
     15          1           0        0.070753   -0.122204    1.800873
     16          1           0       -0.538378   -1.718666    1.275771
 ---------------------------------------------------------------------

 SCF Done:  E(RB3LYP) =  -434.220671732     A.U. after    1 cycles

 The electronic state is 1-A.
 Alpha  occ. eigenvalues --  -19.13054 -14.38725 -14.35940 -14.35744 -10.30730
 Alpha  occ. eigenvalues --  -10.26994 -10.24571 -10.21407 -10.19446  -1.06286
 Alpha  occ. eigenvalues --   -1.01525  -0.94409  -0.85750  -0.76822  -0.73704
 Alpha  occ. eigenvalues --   -0.66559  -0.60574  -0.57632  -0.53003  -0.50205
 Alpha  occ. eigenvalues --   -0.48103  -0.45362  -0.43982  -0.43037  -0.42170
 Alpha  occ. eigenvalues --   -0.41170  -0.39378  -0.37692  -0.33026  -0.30137
 Alpha  occ. eigenvalues --   -0.27638  -0.25649  -0.24374
 Alpha virt. eigenvalues --   -0.02735  -0.00875   0.04090   0.07319   0.10098
 Alpha virt. eigenvalues --    0.12473   0.13359   0.14143   0.15609   0.16233
 Alpha virt. eigenvalues --    0.18967   0.20215   0.22175   0.24148   0.27939

 Mulliken charges:
               1
     1  C   -0.462417
     2  C    0.326897
     3  N   -0.196799
     4  N   -0.191867
     5  C    0.073884
     6  N   -0.310139
     7  C    0.398054
     8  O   -0.337911
     9  C   -0.411908
    10  H    0.149025
    11  H    0.135998
    12  H    0.144486
    13  H    0.133268
    14  H    0.262938
    15  H    0.149383
    16  H    0.137109
 Sum of Mulliken charges =  -0.00000

 Dipole moment (field-independent basis, Debye):
    X=              0.9166    Y=             -0.3220    Z=              0.7996  Tot=              1.2583
 Quadrupole moment (field-independent basis, Debye-Ang):
   XX=            -45.9553   YY=            -61.9406   ZZ=            -50.2490
   XY=             11.0205   XZ=             -1.2751   YZ=             -1.5080

  Exact polarizability:  87.710   5.175  85.538  -1.558  -0.673  49.512
 Approx polarizability: 134.131  -4.495 153.204  -3.947  -1.151  78.463

                      1                      2                      3
                      A                      A                      A
 Frequencies --    110.1565               145.1691               197.6088
 Red. masses --      5.4809                 3.6359                 1.0919
 Frc consts  --      0.0392                 0.0451                 0.0251
 IR Inten    --      3.5179                 5.8590                 0.3829

                      4                      5                      6
                      A                      A                      A
 Frequencies --    281.1252               336.8665               377.3542
 Red. masses --      3.4064                 3.6530                 4.7704
 Frc consts  --      0.1586                 0.2442                 0.4002
 IR Inten    --      1.4255                 4.6317                 7.7790

                      7                      8                      9
                      A                      A                      A
 Frequencies --    392.4956               471.7191               498.4132
 Red. masses --      2.8839                 4.4609                 2.8653
 Frc consts  --      0.2618                 0.5848                 0.4194
 IR Inten    --      3.8456                 5.0629                17.3549

                     10                     11                     12
                      A                      A                      A
 Frequencies --    596.8322               625.5300               642.2930
 Red. masses --      1.8745                 3.4904                 3.6702
 Frc consts  --      0.3934                 0.8047                 0.8921
 IR Inten    --     29.3844                38.8976                 4.4228

                     13                     14                     15
                      A                      A                      A
 Frequencies --    692.2648               819.0342               863.0672
 Red. masses --      3.1959                 3.3331                 3.0729
 Frc consts  --      0.9024                 1.3173                 1.3486
 IR Inten    --     30.3214                 2.9153                 7.6176

                     16                     17                     18
                      A                      A                      A
 Frequencies --    891.4843               936.9558               944.7719
 Red. masses --      2.4231                 2.9218                 2.4925
 Frc consts  --      1.1346                 1.5113                 1.3108
 IR Inten    --     12.5289                 8.8398                13.9685

                     19                     20                     21
                      A                      A                      A
 Frequencies --    959.6817              1054.9003              1065.0313
 Red. masses --      2.1823                 1.5969                 1.9960
 Frc consts  --      1.1842                 1.0470                 1.3339
 IR Inten    --     11.0284                 1.8868                 0.7917

                     22                     23                     24
                      A                      A                      A
 Frequencies --   1096.7137              1171.1079              1240.5575
 Red. masses --      2.2970                 1.5486                 2.2750
 Frc consts  --      1.6278                 1.2514                 2.0628
 IR Inten    --     23.7903                44.1076                43.5804

                     25                     26                     27
                      A                      A                      A
 Frequencies --   1268.3738              1316.5334              1404.2611
 Red. masses --      2.2952                 2.0524                 1.2942
 Frc consts  --      2.1756                 2.0959                 1.5037
 IR Inten    --     39.5686                39.6586                 4.4341

                     28                     29                     30
                      A                      A                      A
 Frequencies --   1413.6926              1453.4591              1462.5145
 Red. masses --      1.3677                 1.8272                 1.1055
 Frc consts  --      1.6105                 2.2742                 1.3931
 IR Inten    --      3.4210                54.6628                22.0124

                     31                     32                     33
                      A                      A                      A
 Frequencies --   1473.9490              1479.6663              1639.3808
 Red. masses --      1.0679                 1.0490                 6.8334
 Frc consts  --      1.3670                 1.3532                10.8205
 IR Inten    --      1.9653                 7.2621                74.1976

                     34                     35                     36
                      A                      A                      A
 Frequencies --   1675.5394              1822.8315              3027.5092
 Red. masses --      8.2421                 9.6172                 1.0388
 Frc consts  --     13.6332                18.8276                 5.6100
 IR Inten    --     27.7010               374.6168                11.7458

                     37                     38                     39
                      A                      A                      A
 Frequencies --   3042.6456              3078.7463              3148.2883
 Red. masses --      1.0657                 1.0986                 1.0980
 Frc consts  --      5.8130                 6.1354                 6.4121
 IR Inten    --      3.1873                10.0694                 3.2688

                     40                     41                     42
                      A                      A                      A
 Frequencies --   3151.0422              3158.7912              3585.7474
 Red. masses --      1.0991                 1.0897                 1.0762
 Frc consts  --      6.4296                 6.4062                 8.1526
 IR Inten    --      7.2579                13.0218                39.1070

 - Thermochemistry -
 -------------------
 Temperature   298.150 Kelvin.  Pressure   1.00000 Atm.
 Atom     1 has atomic number  6 and mass  12.00000

 Molecular mass:   125.05891 amu.
 Principal axes and moments of inertia in atomic units:
                           1         2         3
     Eigenvalues --   801.95368 961.292251589.47582
           X            0.94803   0.31812   0.00613
           Y           -0.31810   0.94805  -0.00467
           Z           -0.00729   0.00247   0.99997
 This molecule is an asymmetric top.
 Rotational symmetry number  1.
 Warning -- assumption of classical behavior for rotation
           may cause significant error
 Rotational temperatures (Kelvin)      0.10800     0.09010     0.05449
 Rotational constants (GHZ):           2.25043     1.87741     1.13543
 Zero-point vibrational energy     329057.4 (Joules/Mol)
                                   78.64661 (Kcal/Mol)
 Warning -- explicit consideration of  10 degrees of freedom as
           vibrations may cause significant error
 Vibrational temperatures:    158.49   208.87   284.31   404.48   484.68
          (Kelvin)            542.93   564.71   678.70   717.11   858.71
                              900.00   924.12   996.01  1178.41  1241.76
                             1282.65  1348.07  1359.32  1380.77  1517.77
                             1532.34  1577.93  1684.96  1784.89  1824.91
                             1894.20  2020.42  2033.99  2091.20  2104.23
                             2120.68  2128.91  2358.70  2410.73  2622.65
                             4355.91  4377.69  4429.63  4529.68  4533.65
                             4544.80  5159.09

 Zero-point correction=                           0.125331 (Hartree/Particle)
 Thermal correction to Energy=                    0.133107
 Thermal correction to Enthalpy=                  0.134052
 Thermal correction to Gibbs Free Energy=         0.093103
 Sum of electronic and zero-point Energies=           -434.095340
 Sum of electronic and thermal Energies=              -434.087564
 Sum of electronic and thermal Enthalpies=            -434.086620
 Sum of electronic and thermal Free Energies=         -434.127569

                     E (Thermal)             CV                S
                      KCal/Mol        Cal/Mol-Kelvin    Cal/Mol-Kelvin
 Total                   83.526             29.615             86.183
 Electronic               0.000              0.000              0.000
 Translational            0.889              2.981             40.385
 Rotational               0.889              2.981             28.595
 Vibrational             81.749             23.653             17.203
 Vibration     1          0.606              1.941              3.266
 Vibration     2          0.617              1.908              2.735
 Vibration     3          0.637              1.843              2.155
 Vibration     4          0.681              1.709              1.527
 Vibration     5          0.718              1.602              1.227
 Vibration     6          0.748              1.518              1.050
 Vibration     7          0.760              1.486              0.991
 Vibration     8          0.829              1.313              0.733
 Vibration     9          0.854              1.254              0.662
 Vibration    10          0.955              1.039              0.455

 Optimization completed.
    -- Stationary point found.
 Normal termination of Gaussian 16 at Thu Aug  4 05:37:00 2022.
