 Gaussian 16, Revision A.03,
 Gaussian 16:  ES64L-G16RevA.03 25-Dec-2016

 -----------------------------
 # opt freq b3lyp/6-31g(2df,p)
 -----------------------------

 -------------------
 Title Card Required
 -------------------
 Symbolic Z-matrix:
 Charge =  0 Multiplicity = 1

 SCF Done:  E(RB3LYP) =  -431.841165383     A.U. after   16 cycles
 SCF Done:  E(RB3LYP) =  -431.852509522     A.U. after   14 cycles
 SCF Done:  E(RB3LYP) =  -431.853679429     A.U. after   13 cycles
 SCF Done:  E(RB3LYP) =  -431.854176462     A.U. after   12 cycles
 SCF Done:  E(RB3LYP) =  -431.855374527     A.U. after   14 cycles
 SCF Done:  E(RB3LYP) =  -431.857022106     A.U. after   12 cycles
 SCF Done:  E(RB3LYP) =  -431.860624891     A.U. after   14 cycles
 SCF Done:  E(RB3LYP) =  -431.867750264     A.U. after   15 cycles
 SCF Done:  E(RB3LYP) =  -431.871290375     A.U. after   14 cycles
 SCF Done:  E(RB3LYP) =  -431.874195099     A.U. after   13 cycles
 SCF Done:  E(RB3LYP) =  -431.879409695     A.U. after   13 cycles
 SCF Done:  E(RB3LYP) =  -431.879554552     A.U. after   11 cycles
 SCF Done:  E(RB3LYP) =  -431.879632259     A.U. after   12 cycles
 SCF Done:  E(RB3LYP) =  -431.879664947     A.U. after   10 cycles
 SCF Done:  E(RB3LYP) =  -431.879673705     A.U. after    9 cycles
 SCF Done:  E(RB3LYP) =  -431.879675403     A.U. after    8 cycles
 SCF Done:  E(RB3LYP) =  -431.879676165     A.U. after    8 cycles
 SCF Done:  E(RB3LYP) =  -431.879676338     A.U. after    8 cycles
 SCF Done:  E(RB3LYP) =  -431.879676416     A.U. after    8 cycles
 Optimization completed.
    -- Stationary point found.
 Normal termination of Gaussian 16 at Sun Jul  3 10:20:52 2022.

 ----------------------------------------------------------------------
 #N Geom=AllCheck Guess=TCheck SCRF=Check GenChk RB3LYP/6-31G(2df,p) Fr
 eq
 ----------------------------------------------------------------------

 Structure from the checkpoint file:  "CC1dNONpOpCdN1.chk"
 -------------------
 Title Card Required
 -------------------
 Charge =  0 Multiplicity = 1

                         Standard orientation:
 ---------------------------------------------------------------------
 Center     Atomic      Atomic             Coordinates (Angstroms)
 Number     Number       Type             X           Y           Z
 ---------------------------------------------------------------------
      1          6           0        2.567701   -0.027201    0.470309
      2          6           0        1.161598   -0.041332   -0.039633
      3          7           0        0.581797   -1.174104   -0.219549
      4          8           0       -0.742912   -1.061079   -0.711486
      5          7           0       -1.496976    0.055538   -0.289492
      6          8           0       -1.852509   -0.079282    1.087636
      7          6           0       -0.686305    1.223853   -0.366292
      8          7           0        0.584318    1.206865   -0.311304
      9          1           0        2.933912   -1.046009    0.599854
     10          1           0        2.617881    0.501433    1.427943
     11          1           0        3.209141    0.513052   -0.232927
     12          1           0       -2.697954   -0.545479    1.042863
     13          1           0       -1.241551    2.149875   -0.490821
 ---------------------------------------------------------------------

 SCF Done:  E(RB3LYP) =  -431.879676416     A.U. after    1 cycles

 The electronic state is 1-A.
 Alpha  occ. eigenvalues --  -19.22287 -19.19729 -14.45435 -14.38096 -14.35685
 Alpha  occ. eigenvalues --  -10.28367 -10.26400 -10.19499  -1.15630  -1.05861
 Alpha  occ. eigenvalues --   -0.96646  -0.90311  -0.78557  -0.74482  -0.66153
 Alpha  occ. eigenvalues --   -0.59092  -0.56185  -0.52623  -0.47916  -0.45735
 Alpha  occ. eigenvalues --   -0.44198  -0.41809  -0.40315  -0.38522  -0.37667
 Alpha  occ. eigenvalues --   -0.35383  -0.33360  -0.28970  -0.27638  -0.25105
 Alpha virt. eigenvalues --   -0.06597   0.02377   0.06684   0.08314   0.11042
 Alpha virt. eigenvalues --    0.11866   0.13235   0.15755   0.17182   0.18189
 Alpha virt. eigenvalues --    0.20387   0.24457   0.26272   0.32384   0.39940

 Mulliken charges:
               1
     1  C   -0.457491
     2  C    0.401473
     3  N   -0.145038
     4  O   -0.225559
     5  N    0.014308
     6  O   -0.377687
     7  C    0.132780
     8  N   -0.248975
     9  H    0.149166
    10  H    0.145695
    11  H    0.147609
    12  H    0.314339
    13  H    0.149379
 Sum of Mulliken charges =   0.00000

 Dipole moment (field-independent basis, Debye):
    X=             -0.8007    Y=              1.3301    Z=              0.8305  Tot=              1.7607
 Quadrupole moment (field-independent basis, Debye-Ang):
   XX=            -35.7199   YY=            -47.6941   ZZ=            -45.9654
   XY=             -0.4893   XZ=             -0.8158   YZ=             -1.8563

  Exact polarizability:  79.420  -0.604  57.060   0.002  -0.895  41.798
 Approx polarizability: 119.928   1.693 102.458   0.046   3.251  68.143

                      1                      2                      3
                      A                      A                      A
 Frequencies --     77.2858               169.7099               216.0228
 Red. masses --      4.2899                 1.0820                 4.6986
 Frc consts  --      0.0151                 0.0184                 0.1292
 IR Inten    --      2.2039                 0.0775                 2.3101

                      4                      5                      6
                      A                      A                      A
 Frequencies --    301.2984               339.3679               411.0825
 Red. masses --      4.4544                 3.0155                 2.1951
 Frc consts  --      0.2383                 0.2046                 0.2186
 IR Inten    --      4.0240                 4.5810                31.5531

                      7                      8                      9
                      A                      A                      A
 Frequencies --    415.9750               474.9164               575.8212
 Red. masses --      1.4039                 8.2492                 5.2857
 Frc consts  --      0.1431                 1.0962                 1.0326
 IR Inten    --     52.1196                 5.3857                15.6048

                     10                     11                     12
                      A                      A                      A
 Frequencies --    651.9210               700.9609               736.0060
 Red. masses --      8.7779                 4.5627                 9.2110
 Frc consts  --      2.1980                 1.3209                 2.9398
 IR Inten    --     31.7846                 6.6827                13.2065

                     13                     14                     15
                      A                      A                      A
 Frequencies --    809.9080               835.4351               883.3538
 Red. masses --      9.7411                 6.3603                 4.7388
 Frc consts  --      3.7647                 2.6155                 2.1786
 IR Inten    --     16.5020                49.2495                39.3044

                     16                     17                     18
                      A                      A                      A
 Frequencies --    944.0325               966.2854              1066.8929
 Red. masses --      1.9827                 3.0402                 1.6297
 Frc consts  --      1.0411                 1.6725                 1.0930
 IR Inten    --     22.7084                27.4574                 4.2343

                     19                     20                     21
                      A                      A                      A
 Frequencies --   1073.1389              1133.9863              1291.0679
 Red. masses --      2.1829                 4.9898                 3.0858
 Frc consts  --      1.4812                 3.7805                 3.0305
 IR Inten    --     12.8951                18.4512                27.3247

                     22                     23                     24
                      A                      A                      A
 Frequencies --   1380.8667              1405.3450              1414.9566
 Red. masses --      1.2711                 1.2380                 1.4831
 Frc consts  --      1.4280                 1.4406                 1.7495
 IR Inten    --     27.9399                41.4463                30.5278

                     25                     26                     27
                      A                      A                      A
 Frequencies --   1468.4435              1474.3215              1610.7499
 Red. masses --      1.0752                 1.0563                 7.8760
 Frc consts  --      1.3660                 1.3527                12.0396
 IR Inten    --      9.9318                 7.8485                 8.9225

                     28                     29                     30
                      A                      A                      A
 Frequencies --   1685.3580              3045.6467              3105.1963
 Red. masses --      8.8865                 1.0369                 1.0995
 Frc consts  --     14.8718                 5.6668                 6.2464
 IR Inten    --     89.3594                 7.5672                 7.1632

                     31                     32                     33
                      A                      A                      A
 Frequencies --   3155.8384              3173.2244              3772.3844
 Red. masses --      1.1013                 1.0932                 1.0677
 Frc consts  --      6.4623                 6.4855                 8.9523
 IR Inten    --      4.5912                 9.1526                77.2207

 - Thermochemistry -
 -------------------
 Temperature   298.150 Kelvin.  Pressure   1.00000 Atm.
 Atom     1 has atomic number  6 and mass  12.00000

 Molecular mass:   115.03818 amu.
 Principal axes and moments of inertia in atomic units:
                           1         2         3
     Eigenvalues --   430.81557 994.377481152.52639
           X            0.99989  -0.00717   0.01316
           Y            0.00764   0.99930  -0.03666
           Z           -0.01288   0.03676   0.99924
 This molecule is an asymmetric top.
 Rotational symmetry number  1.
 Rotational temperatures (Kelvin)      0.20105     0.08710     0.07515
 Rotational constants (GHZ):           4.18913     1.81495     1.56590
 Zero-point vibrational energy     243839.6 (Joules/Mol)
                                   58.27907 (Kcal/Mol)
 Warning -- explicit consideration of   9 degrees of freedom as
           vibrations may cause significant error
 Vibrational temperatures:    111.20   244.17   310.81   433.50   488.27
          (Kelvin)            591.46   598.50   683.30   828.48   937.97
                             1008.53  1058.95  1165.28  1202.00  1270.95
                             1358.25  1390.27  1535.02  1544.01  1631.55
                             1857.56  1986.76  2021.98  2035.81  2112.76
                             2121.22  2317.51  2424.85  4382.01  4467.68
                             4540.55  4565.56  5427.62

 Zero-point correction=                           0.092874 (Hartree/Particle)
 Thermal correction to Energy=                    0.100195
 Thermal correction to Enthalpy=                  0.101139
 Thermal correction to Gibbs Free Energy=         0.061277
 Sum of electronic and zero-point Energies=           -431.786803
 Sum of electronic and thermal Energies=              -431.779481
 Sum of electronic and thermal Enthalpies=            -431.778537
 Sum of electronic and thermal Free Energies=         -431.818399

                     E (Thermal)             CV                S
                      KCal/Mol        Cal/Mol-Kelvin    Cal/Mol-Kelvin
 Total                   62.873             26.875             83.897
 Electronic               0.000              0.000              0.000
 Translational            0.889              2.981             40.136
 Rotational               0.889              2.981             27.692
 Vibrational             61.096             20.914             16.069
 Vibration     1          0.599              1.964              3.959
 Vibration     2          0.625              1.880              2.439
 Vibration     3          0.645              1.817              1.992
 Vibration     4          0.693              1.671              1.410
 Vibration     5          0.719              1.597              1.215
 Vibration     6          0.775              1.446              0.923
 Vibration     7          0.779              1.436              0.906
 Vibration     8          0.832              1.306              0.724
 Vibration     9          0.932              1.084              0.493

 Optimization completed.
    -- Stationary point found.
 Normal termination of Gaussian 16 at Sun Jul  3 10:37:30 2022.
