 Gaussian 16, Revision A.03,
 Gaussian 16:  ES64L-G16RevA.03 25-Dec-2016

 -----------------------------
 # opt freq b3lyp/6-31g(2df,p)
 -----------------------------

 -------------------
 Title Card Required
 -------------------
 Symbolic Z-matrix:
 Charge =  0 Multiplicity = 1

 SCF Done:  E(RB3LYP) =  -382.099667754     A.U. after   17 cycles
 SCF Done:  E(RB3LYP) =  -382.131701979     A.U. after   16 cycles
 SCF Done:  E(RB3LYP) =  -382.162628245     A.U. after   15 cycles
 SCF Done:  E(RB3LYP) =  -382.176395168     A.U. after   13 cycles
 SCF Done:  E(RB3LYP) =  -382.188354338     A.U. after   13 cycles
 SCF Done:  E(RB3LYP) =  -382.190639648     A.U. after   13 cycles
 SCF Done:  E(RB3LYP) =  -382.191923190     A.U. after   13 cycles
 SCF Done:  E(RB3LYP) =  -382.192833323     A.U. after   12 cycles
 SCF Done:  E(RB3LYP) =  -382.193372437     A.U. after   12 cycles
 SCF Done:  E(RB3LYP) =  -382.193567791     A.U. after   12 cycles
 SCF Done:  E(RB3LYP) =  -382.193644487     A.U. after   11 cycles
 SCF Done:  E(RB3LYP) =  -382.193682140     A.U. after   11 cycles
 SCF Done:  E(RB3LYP) =  -382.193689112     A.U. after    9 cycles
 SCF Done:  E(RB3LYP) =  -382.193691418     A.U. after    8 cycles
 SCF Done:  E(RB3LYP) =  -382.193691730     A.U. after    7 cycles
 Optimization completed.
    -- Stationary point found.
 Normal termination of Gaussian 16 at Sun Jul  3 18:03:55 2022.

 ----------------------------------------------------------------------
 #N Geom=AllCheck Guess=TCheck SCRF=Check GenChk RB3LYP/6-31G(2df,p) Fr
 eq
 ----------------------------------------------------------------------

 Structure from the checkpoint file:  "CC1dNCCC2pCpNdC12.chk"
 -------------------
 Title Card Required
 -------------------
 Charge =  0 Multiplicity = 1

                         Standard orientation:
 ---------------------------------------------------------------------
 Center     Atomic      Atomic             Coordinates (Angstroms)
 Number     Number       Type             X           Y           Z
 ---------------------------------------------------------------------
      1          6           0       -2.701321   -0.822847    0.228384
      2          6           0       -1.385533   -0.116694    0.123166
      3          7           0       -1.280397    1.151970    0.209213
      4          6           0        0.031128    1.834856    0.111726
      5          6           0        1.228971    1.105868   -0.557681
      6          6           0        1.225499   -0.347820   -0.090473
      7          6           0        2.264925   -0.859049    0.870870
      8          7           0        0.545123   -1.362846   -1.080435
      9          6           0       -0.128150   -0.823866   -0.154483
     10          1           0       -3.502830   -0.097554    0.375812
     11          1           0       -2.692231   -1.532383    1.063833
     12          1           0       -2.892945   -1.404338   -0.680673
     13          1           0        0.289741    2.110040    1.144013
     14          1           0       -0.161126    2.781519   -0.403665
     15          1           0        2.153676    1.634495   -0.304575
     16          1           0        1.124531    1.133239   -1.648750
     17          1           0        3.264066   -0.832128    0.420495
     18          1           0        2.052357   -1.891246    1.160937
     19          1           0        2.298569   -0.248200    1.782080
 ---------------------------------------------------------------------

 SCF Done:  E(RB3LYP) =  -382.193691730     A.U. after    1 cycles

 The electronic state is 1-A.
 Alpha  occ. eigenvalues --  -14.34624 -14.33493 -10.25101 -10.23130 -10.22154
 Alpha  occ. eigenvalues --  -10.21769 -10.19361 -10.18904 -10.18257  -0.99004
 Alpha  occ. eigenvalues --   -0.92564  -0.78849  -0.74422  -0.71663  -0.66237
 Alpha  occ. eigenvalues --   -0.61712  -0.56816  -0.49773  -0.46839  -0.46092
 Alpha  occ. eigenvalues --   -0.44677  -0.43412  -0.42024  -0.40872  -0.40508
 Alpha  occ. eigenvalues --   -0.39623  -0.38450  -0.36299  -0.34979  -0.31829
 Alpha  occ. eigenvalues --   -0.27684  -0.26048  -0.23053
 Alpha virt. eigenvalues --   -0.05319   0.02316   0.08665   0.09466   0.11581
 Alpha virt. eigenvalues --    0.13490   0.14461   0.14681   0.15195   0.15671
 Alpha virt. eigenvalues --    0.16465   0.17914   0.18306   0.19569   0.20908

 Mulliken charges:
               1
     1  C   -0.477628
     2  C    0.262822
     3  N   -0.248643
     4  C   -0.151328
     5  C   -0.294406
     6  C    0.254816
     7  C   -0.467859
     8  N   -0.273067
     9  C    0.130544
    10  H    0.144883
    11  H    0.138341
    12  H    0.148292
    13  H    0.121298
    14  H    0.120637
    15  H    0.103586
    16  H    0.119943
    17  H    0.125389
    18  H    0.125302
    19  H    0.117079
 Sum of Mulliken charges =  -0.00000

 Dipole moment (field-independent basis, Debye):
    X=              0.1019    Y=              0.5585    Z=              1.5101  Tot=              1.6133
 Quadrupole moment (field-independent basis, Debye-Ang):
   XX=            -51.4439   YY=            -55.1356   ZZ=            -55.3524
   XY=              5.4815   XZ=              1.6467   YZ=             -3.6978

  Exact polarizability:  94.377   4.568  87.786  -0.251   3.037  64.838
 Approx polarizability: 127.699   3.420 146.661  -4.986  16.083 109.264

                      1                      2                      3
                      A                      A                      A
 Frequencies --    105.7237               129.7849               172.1049
 Red. masses --      2.5597                 2.5711                 1.1382
 Frc consts  --      0.0169                 0.0255                 0.0199
 IR Inten    --      0.7061                 2.0702                 1.1485

                      4                      5                      6
                      A                      A                      A
 Frequencies --    191.5530               251.5380               269.7238
 Red. masses --      1.0390                 2.5199                 2.4051
 Frc consts  --      0.0225                 0.0939                 0.1031
 IR Inten    --      0.0357                 3.3439                 4.3296

                      7                      8                      9
                      A                      A                      A
 Frequencies --    349.6598               357.2308               398.4053
 Red. masses --      2.2642                 5.3345                 3.1274
 Frc consts  --      0.1631                 0.4011                 0.2925
 IR Inten    --      0.8184                 8.3610                 4.8774

                     10                     11                     12
                      A                      A                      A
 Frequencies --    468.0153               506.4203               604.1590
 Red. masses --      4.2782                 5.6204                 4.4471
 Frc consts  --      0.5521                 0.8493                 0.9564
 IR Inten    --      6.6816                 3.0270                 3.0359

                     13                     14                     15
                      A                      A                      A
 Frequencies --    639.0292               652.8303               740.7349
 Red. masses --      4.0275                 3.2344                 2.2907
 Frc consts  --      0.9690                 0.8122                 0.7405
 IR Inten    --      9.0074                 5.1189                 1.1679

                     16                     17                     18
                      A                      A                      A
 Frequencies --    823.6934               854.3340               911.4117
 Red. masses --      4.8773                 3.1293                 2.2800
 Frc consts  --      1.9497                 1.3457                 1.1159
 IR Inten    --     27.4267                 0.2240                 4.5500

                     19                     20                     21
                      A                      A                      A
 Frequencies --    963.9095               989.5706              1033.4420
 Red. masses --      1.7840                 2.0964                 1.6930
 Frc consts  --      0.9766                 1.2095                 1.0653
 IR Inten    --      1.1630                 8.0856                 3.5318

                     22                     23                     24
                      A                      A                      A
 Frequencies --   1054.2305              1087.7998              1094.3240
 Red. masses --      1.6868                 2.2962                 1.8529
 Frc consts  --      1.1045                 1.6009                 1.3074
 IR Inten    --      1.7919                 2.4108                 5.8732

                     25                     26                     27
                      A                      A                      A
 Frequencies --   1179.3652              1228.9096              1250.9003
 Red. masses --      1.6145                 1.9795                 1.4719
 Frc consts  --      1.3231                 1.7613                 1.3570
 IR Inten    --      3.6219                15.1248                 8.0726

                     28                     29                     30
                      A                      A                      A
 Frequencies --   1272.0911              1335.6837              1363.6955
 Red. masses --      2.6091                 1.2829                 1.9787
 Frc consts  --      2.4876                 1.3485                 2.1681
 IR Inten    --     23.2021                 3.2440                 9.0132

                     31                     32                     33
                      A                      A                      A
 Frequencies --   1378.1079              1405.5282              1412.9515
 Red. masses --      2.1577                 1.3752                 1.2707
 Frc consts  --      2.4144                 1.6007                 1.4947
 IR Inten    --      9.9677                12.2527                 4.1379

                     34                     35                     36
                      A                      A                      A
 Frequencies --   1465.1877              1472.0750              1475.2463
 Red. masses --      1.0899                 1.0753                 1.0553
 Frc consts  --      1.3785                 1.3729                 1.3532
 IR Inten    --      4.1104                 4.6079                 8.0032

                     37                     38                     39
                      A                      A                      A
 Frequencies --   1476.9014              1485.2141              1495.4406
 Red. masses --      1.0648                 1.0559                 1.0529
 Frc consts  --      1.3684                 1.3723                 1.3873
 IR Inten    --      6.0711                 2.7104                 5.6700

                     40                     41                     42
                      A                      A                      A
 Frequencies --   1695.2416              1781.4630              3014.1192
 Red. masses --      8.2025                12.1770                 1.0690
 Frc consts  --     13.8887                22.7689                 5.7220
 IR Inten    --     42.0791                22.4464                19.7422

                     43                     44                     45
                      A                      A                      A
 Frequencies --   3018.2070              3032.7168              3033.7602
 Red. masses --      1.0390                 1.0599                 1.0379
 Frc consts  --      5.5768                 5.7437                 5.6281
 IR Inten    --     33.1154                24.6701                 5.9040

                     46                     47                     48
                      A                      A                      A
 Frequencies --   3067.7371              3073.3685              3085.7063
 Red. masses --      1.0919                 1.0993                 1.1043
 Frc consts  --      6.0542                 6.1179                 6.1950
 IR Inten    --     31.2909                22.3688                20.0966

                     49                     50                     51
                      A                      A                      A
 Frequencies --   3089.4461              3115.8219              3146.6318
 Red. masses --      1.0986                 1.0991                 1.1009
 Frc consts  --      6.1783                 6.2869                 6.4224
 IR Inten    --      8.5725                15.0712                 7.2075

 - Thermochemistry -
 -------------------
 Temperature   298.150 Kelvin.  Pressure   1.00000 Atm.
 Atom     1 has atomic number  6 and mass  12.00000

 Molecular mass:   122.08440 amu.
 Principal axes and moments of inertia in atomic units:
                           1         2         3
     Eigenvalues --   688.902451185.749771577.36177
           X            0.99884   0.04638   0.01320
           Y           -0.04579   0.99807  -0.04205
           Z           -0.01512   0.04140   0.99903
 This molecule is an asymmetric top.
 Rotational symmetry number  1.
 Warning -- assumption of classical behavior for rotation
           may cause significant error
 Rotational temperatures (Kelvin)      0.12573     0.07305     0.05491
 Rotational constants (GHZ):           2.61973     1.52203     1.14415
 Zero-point vibrational energy     415709.2 (Joules/Mol)
                                   99.35688 (Kcal/Mol)
 Warning -- explicit consideration of  12 degrees of freedom as
           vibrations may cause significant error
 Vibrational temperatures:    152.11   186.73   247.62   275.60   361.91
          (Kelvin)            388.07   503.08   513.98   573.22   673.37
                              728.63   869.25   919.42   939.28  1065.75
                             1185.11  1229.20  1311.32  1386.85  1423.77
                             1486.89  1516.80  1565.10  1574.49  1696.84
                             1768.13  1799.77  1830.26  1921.75  1962.05
                             1982.79  2022.24  2032.92  2108.08  2117.99
                             2122.55  2124.93  2136.89  2151.61  2439.07
                             2563.13  4336.65  4342.53  4363.40  4364.90
                             4413.79  4421.89  4439.64  4445.02  4482.97
                             4527.30

 Zero-point correction=                           0.158335 (Hartree/Particle)
 Thermal correction to Energy=                    0.167235
 Thermal correction to Enthalpy=                  0.168179
 Thermal correction to Gibbs Free Energy=         0.125121
 Sum of electronic and zero-point Energies=           -382.035356
 Sum of electronic and thermal Energies=              -382.026457
 Sum of electronic and thermal Enthalpies=            -382.025513
 Sum of electronic and thermal Free Energies=         -382.068571

                     E (Thermal)             CV                S
                      KCal/Mol        Cal/Mol-Kelvin    Cal/Mol-Kelvin
 Total                  104.941             33.434             90.623
 Electronic               0.000              0.000              0.000
 Translational            0.889              2.981             40.313
 Rotational               0.889              2.981             28.645
 Vibrational            103.164             27.473             21.664
 Vibration     1          0.605              1.945              3.346
 Vibration     2          0.612              1.924              2.949
 Vibration     3          0.626              1.877              2.412
 Vibration     4          0.634              1.852              2.213
 Vibration     5          0.664              1.760              1.720
 Vibration     6          0.674              1.729              1.598
 Vibration     7          0.727              1.576              1.168
 Vibration     8          0.732              1.560              1.134
 Vibration     9          0.765              1.474              0.969
 Vibration    10          0.825              1.321              0.743
 Vibration    11          0.862              1.236              0.642
 Vibration    12          0.963              1.023              0.443

                           ! Non-Optimized Parameters !
 Normal termination of Gaussian 16 at Sun Jul  3 18:36:58 2022.
