 Gaussian 16, Revision A.03,
 Gaussian 16:  ES64L-G16RevA.03 25-Dec-2016

 -----------------------------
 # opt freq b3lyp/6-31g(2df,p)
 -----------------------------

 -------------------
 Title Card Required
 -------------------
 Symbolic Z-matrix:
 Charge =  0 Multiplicity = 1

 SCF Done:  E(RB3LYP) =  -361.378589710     A.U. after   13 cycles
 SCF Done:  E(RB3LYP) =  -361.394798569     A.U. after   12 cycles
 SCF Done:  E(RB3LYP) =  -361.397868510     A.U. after   11 cycles
 SCF Done:  E(RB3LYP) =  -361.403189768     A.U. after   12 cycles
 SCF Done:  E(RB3LYP) =  -361.406254730     A.U. after   11 cycles
 SCF Done:  E(RB3LYP) =  -361.408787170     A.U. after   11 cycles
 SCF Done:  E(RB3LYP) =  -361.410670259     A.U. after   10 cycles
 SCF Done:  E(RB3LYP) =  -361.411465079     A.U. after   11 cycles
 SCF Done:  E(RB3LYP) =  -361.411809795     A.U. after   10 cycles
 SCF Done:  E(RB3LYP) =  -361.411953899     A.U. after   10 cycles
 SCF Done:  E(RB3LYP) =  -361.411985591     A.U. after    9 cycles
 SCF Done:  E(RB3LYP) =  -361.412001548     A.U. after    9 cycles
 SCF Done:  E(RB3LYP) =  -361.412004218     A.U. after    8 cycles
 SCF Done:  E(RB3LYP) =  -361.412004671     A.U. after    7 cycles
 SCF Done:  E(RB3LYP) =  -361.412004723     A.U. after    6 cycles
 Optimization completed.
    -- Stationary point found.
 Normal termination of Gaussian 16 at Sun Jul  3 21:42:20 2022.

 ----------------------------------------------------------------------
 #N Geom=AllCheck Guess=TCheck SCRF=Check GenChk RB3LYP/6-31G(2df,p) Fr
 eq
 ----------------------------------------------------------------------

 Structure from the checkpoint file:  "CC1dCCpNpNCN1.chk"
 -------------------
 Title Card Required
 -------------------
 Charge =  0 Multiplicity = 1

                         Standard orientation:
 ---------------------------------------------------------------------
 Center     Atomic      Atomic             Coordinates (Angstroms)
 Number     Number       Type             X           Y           Z
 ---------------------------------------------------------------------
      1          6           0       -2.618065   -0.731521    0.072674
      2          6           0       -1.199587   -0.251536   -0.044502
      3          6           0       -0.152320   -1.069726   -0.246668
      4          6           0        1.250679   -0.552683   -0.440907
      5          7           0        2.137069   -1.107042    0.576487
      6          7           0        1.298144    0.930543   -0.526190
      7          6           0        0.331719    1.555453    0.352494
      8          7           0       -1.029550    1.134050    0.026282
      9          1           0       -2.676286   -1.813994   -0.053825
     10          1           0       -3.251698   -0.259067   -0.687627
     11          1           0       -3.045814   -0.477726    1.051506
     12          1           0       -0.309582   -2.139551   -0.317408
     13          1           0        1.636787   -0.903383   -1.408587
     14          1           0        1.767145   -0.902633    1.500164
     15          1           0        3.041911   -0.647433    0.508745
     16          1           0        1.084402    1.205772   -1.481305
     17          1           0        0.396321    2.644351    0.268475
     18          1           0        0.597401    1.273792    1.385787
     19          1           0       -1.754788    1.617095    0.539491
 ---------------------------------------------------------------------

 SCF Done:  E(RB3LYP) =  -361.412004723     A.U. after    1 cycles

 The electronic state is 1-A.
 Alpha  occ. eigenvalues --  -14.32785 -14.30681 -14.29398 -10.23159 -10.22546
 Alpha  occ. eigenvalues --  -10.20966 -10.18342 -10.15025  -0.94983  -0.88810
 Alpha  occ. eigenvalues --   -0.83682  -0.76507  -0.69887  -0.65225  -0.60807
 Alpha  occ. eigenvalues --   -0.53618  -0.49822  -0.49415  -0.47428  -0.43512
 Alpha  occ. eigenvalues --   -0.42720  -0.42234  -0.40454  -0.38612  -0.38411
 Alpha  occ. eigenvalues --   -0.36114  -0.33954  -0.29348  -0.24098  -0.22432
 Alpha  occ. eigenvalues --   -0.19479
 Alpha virt. eigenvalues --    0.04338   0.08130   0.10308   0.10669   0.13279
 Alpha virt. eigenvalues --    0.13967   0.15363   0.17008   0.17562   0.18017
 Alpha virt. eigenvalues --    0.18425   0.20417   0.21019   0.23589   0.25289

 Mulliken charges:
               1
     1  C   -0.484315
     2  C    0.336335
     3  C   -0.174915
     4  C   -0.016435
     5  N   -0.493281
     6  N   -0.283643
     7  C   -0.149851
     8  N   -0.343313
     9  H    0.132725
    10  H    0.130813
    11  H    0.118929
    12  H    0.081177
    13  H    0.078883
    14  H    0.214615
    15  H    0.218723
    16  H    0.217047
    17  H    0.102393
    18  H    0.089602
    19  H    0.224513
 Sum of Mulliken charges =  -0.00000

 Dipole moment (field-independent basis, Debye):
    X=             -1.6434    Y=              1.5802    Z=              0.5764  Tot=              2.3516
 Quadrupole moment (field-independent basis, Debye-Ang):
   XX=            -47.7645   YY=            -50.1036   ZZ=            -46.6860
   XY=              0.9322   XZ=             -1.5102   YZ=              1.7248

  Exact polarizability:  89.468  -5.301  76.248  -2.107   2.521  58.234
 Approx polarizability: 121.877 -16.897 116.265  -4.755   3.628  90.153

                      1                      2                      3
                      A                      A                      A
 Frequencies --    115.7188               148.4744               187.3220
 Red. masses --      2.8260                 2.0843                 1.3097
 Frc consts  --      0.0223                 0.0271                 0.0271
 IR Inten    --      0.7390                 1.3296                 1.1389

                      4                      5                      6
                      A                      A                      A
 Frequencies --    269.4141               314.0061               339.4295
 Red. masses --      2.2821                 1.1729                 2.0555
 Frc consts  --      0.0976                 0.0681                 0.1395
 IR Inten    --      7.4835                34.1550                 7.1921

                      7                      8                      9
                      A                      A                      A
 Frequencies --    420.7921               441.6585               498.9372
 Red. masses --      3.3611                 2.8506                 2.3637
 Frc consts  --      0.3506                 0.3276                 0.3467
 IR Inten    --      2.9406                28.3422                47.5105

                     10                     11                     12
                      A                      A                      A
 Frequencies --    523.5000               589.6728               642.5238
 Red. masses --      1.9312                 2.5033                 2.6871
 Frc consts  --      0.3118                 0.5129                 0.6536
 IR Inten    --     30.9391                37.8075                84.8477

                     13                     14                     15
                      A                      A                      A
 Frequencies --    732.6714               796.6363               806.0248
 Red. masses --      1.9312                 1.5314                 2.8090
 Frc consts  --      0.6108                 0.5726                 1.0752
 IR Inten    --      4.0897                 7.7339                65.0611

                     16                     17                     18
                      A                      A                      A
 Frequencies --    828.0889               875.7291               927.2603
 Red. masses --      1.8762                 2.0103                 1.9401
 Frc consts  --      0.7580                 0.9083                 0.9829
 IR Inten    --     63.1105               143.5909                 1.1784

                     19                     20                     21
                      A                      A                      A
 Frequencies --   1004.6233              1032.9923              1057.4995
 Red. masses --      2.0247                 2.6950                 1.8143
 Frc consts  --      1.2040                 1.6944                 1.1954
 IR Inten    --      5.1313                26.6983                 5.8961

                     22                     23                     24
                      A                      A                      A
 Frequencies --   1064.6719              1096.2411              1129.5091
 Red. masses --      1.5300                 3.3911                 1.8301
 Frc consts  --      1.0218                 2.4011                 1.3756
 IR Inten    --      3.0092                37.4349                 7.3221

                     25                     26                     27
                      A                      A                      A
 Frequencies --   1158.2015              1199.0005              1219.9059
 Red. masses --      1.8086                 1.8345                 1.8479
 Frc consts  --      1.4294                 1.5538                 1.6203
 IR Inten    --     15.6300                44.8803                10.6148

                     28                     29                     30
                      A                      A                      A
 Frequencies --   1286.2825              1336.1609              1360.9584
 Red. masses --      1.1679                 1.4524                 1.3176
 Frc consts  --      1.1384                 1.5278                 1.4378
 IR Inten    --      4.0909                36.6524                24.0174

                     31                     32                     33
                      A                      A                      A
 Frequencies --   1397.2462              1408.5657              1413.6904
 Red. masses --      1.5106                 1.2320                 1.3615
 Frc consts  --      1.7376                 1.4401                 1.6031
 IR Inten    --     30.1396                17.9046                13.3828

                     34                     35                     36
                      A                      A                      A
 Frequencies --   1475.7002              1479.6928              1485.8048
 Red. masses --      1.1589                 1.1528                 1.1616
 Frc consts  --      1.4870                 1.4872                 1.5109
 IR Inten    --     15.2925                13.9916                17.1724

                     37                     38                     39
                      A                      A                      A
 Frequencies --   1496.9670              1509.6629              1652.1670
 Red. masses --      1.1141                 1.4105                 1.0965
 Frc consts  --      1.4709                 1.8940                 1.7634
 IR Inten    --      1.2924                29.0746                25.3067

                     40                     41                     42
                      A                      A                      A
 Frequencies --   1726.3397              2957.3763              2998.4264
 Red. masses --      6.2102                 1.0706                 1.0839
 Frc consts  --     10.9046                 5.5171                 5.7414
 IR Inten    --     62.2478                73.0312                45.7964

                     43                     44                     45
                      A                      A                      A
 Frequencies --   3017.7363              3067.7262              3074.6889
 Red. masses --      1.0411                 1.0973                 1.0920
 Frc consts  --      5.5860                 6.0842                 6.0825
 IR Inten    --     35.7826                19.9344                40.3247

                     46                     47                     48
                      A                      A                      A
 Frequencies --   3132.2140              3193.1782              3477.9199
 Red. masses --      1.0975                 1.0903                 1.0485
 Frc consts  --      6.3437                 6.5500                 7.4723
 IR Inten    --     12.8422                10.8393                 1.6857

                     49                     50                     51
                      A                      A                      A
 Frequencies --   3499.3596              3565.2825              3571.2042
 Red. masses --      1.0734                 1.0924                 1.0754
 Frc consts  --      7.7441                 8.1814                 8.0804
 IR Inten    --      0.1520                 0.6936                 2.8238

 - Thermochemistry -
 -------------------
 Temperature   298.150 Kelvin.  Pressure   1.00000 Atm.
 Atom     1 has atomic number  6 and mass  12.00000

 Molecular mass:   113.09530 amu.
 Principal axes and moments of inertia in atomic units:
                           1         2         3
     Eigenvalues --   527.878981047.997661405.34002
           X            0.99978   0.02094  -0.00175
           Y           -0.02091   0.99966   0.01582
           Z            0.00208  -0.01578   0.99987
 This molecule is an asymmetric top.
 Rotational symmetry number  1.
 Warning -- assumption of classical behavior for rotation
           may cause significant error
 Rotational temperatures (Kelvin)      0.16408     0.08265     0.06163
 Rotational constants (GHZ):           3.41885     1.72209     1.28420
 Zero-point vibrational energy     442647.3 (Joules/Mol)
                                  105.79525 (Kcal/Mol)
 Warning -- explicit consideration of  11 degrees of freedom as
           vibrations may cause significant error
 Vibrational temperatures:    166.49   213.62   269.51   387.63   451.78
          (Kelvin)            488.36   605.43   635.45   717.86   753.20
                              848.41   924.45  1054.15  1146.18  1159.69
                             1191.44  1259.98  1334.12  1445.43  1486.25
                             1521.51  1531.83  1577.25  1625.11  1666.39
                             1725.09  1755.17  1850.67  1922.44  1958.12
                             2010.33  2026.61  2033.99  2123.20  2128.95
                             2137.74  2153.80  2172.07  2377.10  2483.82
                             4255.00  4314.07  4341.85  4413.77  4423.79
                             4506.56  4594.27  5003.95  5034.80  5129.65
                             5138.17

 Zero-point correction=                           0.168595 (Hartree/Particle)
 Thermal correction to Energy=                    0.176636
 Thermal correction to Enthalpy=                  0.177580
 Thermal correction to Gibbs Free Energy=         0.136606
 Sum of electronic and zero-point Energies=           -361.243409
 Sum of electronic and thermal Energies=              -361.235369
 Sum of electronic and thermal Enthalpies=            -361.234425
 Sum of electronic and thermal Free Energies=         -361.275398

                     E (Thermal)             CV                S
                      KCal/Mol        Cal/Mol-Kelvin    Cal/Mol-Kelvin
 Total                  110.841             31.252             86.236
 Electronic               0.000              0.000              0.000
 Translational            0.889              2.981             40.085
 Rotational               0.889              2.981             28.143
 Vibrational            109.063             25.291             18.008
 Vibration     1          0.608              1.936              3.171
 Vibration     2          0.618              1.904              2.692
 Vibration     3          0.632              1.857              2.254
 Vibration     4          0.674              1.729              1.600
 Vibration     5          0.702              1.647              1.341
 Vibration     6          0.719              1.597              1.215
 Vibration     7          0.783              1.425              0.889
 Vibration     8          0.801              1.379              0.821
 Vibration     9          0.854              1.252              0.661
 Vibration    10          0.878              1.198              0.602
 Vibration    11          0.947              1.054              0.468

                           ! Non-Optimized Parameters !
 Normal termination of Gaussian 16 at Sun Jul  3 22:05:30 2022.
