 Gaussian 16, Revision A.03,
 Gaussian 16:  ES64L-G16RevA.03 25-Dec-2016

 -----------------------------
 # opt freq b3lyp/6-31g(2df,p)
 -----------------------------

 -------------------
 Title Card Required
 -------------------
 Symbolic Z-matrix:
 Charge =  0 Multiplicity = 1

 SCF Done:  E(RB3LYP) =  -350.706269221     A.U. after   24 cycles
 SCF Done:  E(RB3LYP) =  -350.754824775     A.U. after   20 cycles
 SCF Done:  E(RB3LYP) =  -350.817369162     A.U. after   21 cycles
 SCF Done:  E(RB3LYP) =  -350.810422757     A.U. after   19 cycles
 SCF Done:  E(RB3LYP) =  -350.893958458     A.U. after   17 cycles
 SCF Done:  E(RB3LYP) =  -350.954011319     A.U. after   18 cycles
 SCF Done:  E(RB3LYP) =  -351.004844888     A.U. after   17 cycles
 SCF Done:  E(RB3LYP) =  -351.078315762     A.U. after   15 cycles
 SCF Done:  E(RB3LYP) =  -351.136364049     A.U. after   14 cycles
 SCF Done:  E(RB3LYP) =  -351.144271102     A.U. after   11 cycles
 SCF Done:  E(RB3LYP) =  -351.322804627     A.U. after    9 cycles
 SCF Done:  E(RB3LYP) =  -351.322835834     A.U. after   10 cycles
 SCF Done:  E(RB3LYP) =  -351.322875804     A.U. after    9 cycles
 SCF Done:  E(RB3LYP) =  -351.322888078     A.U. after   10 cycles
 SCF Done:  E(RB3LYP) =  -351.322893122     A.U. after   10 cycles
 SCF Done:  E(RB3LYP) =  -351.322900681     A.U. after    9 cycles
 SCF Done:  E(RB3LYP) =  -351.322901848     A.U. after    7 cycles
 SCF Done:  E(RB3LYP) =  -351.322902004     A.U. after    6 cycles
 SCF Done:  E(RB3LYP) =  -351.322902019     A.U. after    6 cycles
 Optimization completed.
    -- Stationary point found.
 Normal termination of Gaussian 16 at Thu Aug  4 19:35:15 2022.

 ----------------------------------------------------------------------
 #N Geom=AllCheck Guess=TCheck SCRF=Check GenChk RB3LYP/6-31G(2df,p) Fr
 eq
 ----------------------------------------------------------------------

 Structure from the checkpoint file:  "CC1dCdCCCC1pCpC.chk"
 -------------------
 Title Card Required
 -------------------
 Charge =  0 Multiplicity = 1

                         Standard orientation:
 ---------------------------------------------------------------------
 Center     Atomic      Atomic             Coordinates (Angstroms)
 Number     Number       Type             X           Y           Z
 ---------------------------------------------------------------------
      1          6           0       -1.491672    1.911488    0.222378
      2          6           0       -0.432892    0.958945   -0.250107
      3          6           0        0.803632    1.280525   -0.587423
      4          6           0        1.976841    0.713245   -0.403945
      5          6           0        1.992511   -0.302796    0.741517
      6          6           0        0.563551   -0.888570    0.997382
      7          6           0       -0.545038   -0.580265   -0.085882
      8          6           0       -1.913703   -1.020043    0.461663
      9          6           0       -0.278165   -1.350774   -1.389973
     10          1           0       -1.138175    2.942045    0.147028
     11          1           0       -1.771665    1.720975    1.265602
     12          1           0       -2.413078    1.824906   -0.367111
     13          1           0        2.811808    0.747724   -1.096928
     14          1           0        2.681650   -1.102154    0.441928
     15          1           0        2.396547    0.103258    1.676091
     16          1           0        0.187048   -0.507113    1.952714
     17          1           0        0.642995   -1.976258    1.112874
     18          1           0       -2.151718   -0.544770    1.417455
     19          1           0       -1.927047   -2.103411    0.621508
     20          1           0       -2.716380   -0.783006   -0.244388
     21          1           0        0.678853   -1.072722   -1.835559
     22          1           0       -1.064232   -1.149904   -2.125614
     23          1           0       -0.266998   -2.430094   -1.199259
 ---------------------------------------------------------------------

 SCF Done:  E(RB3LYP) =  -351.322902019     A.U. after    1 cycles

 The electronic state is 1-A.
 Alpha  occ. eigenvalues --  -10.20266 -10.18868 -10.18751 -10.18089 -10.18074
 Alpha  occ. eigenvalues --  -10.18007 -10.17325 -10.16749 -10.15798  -0.84748
 Alpha  occ. eigenvalues --   -0.77064  -0.75357  -0.70080  -0.67768  -0.65642
 Alpha  occ. eigenvalues --   -0.58623  -0.55151  -0.47309  -0.46981  -0.44855
 Alpha  occ. eigenvalues --   -0.44194  -0.41326  -0.40973  -0.40159  -0.38531
 Alpha  occ. eigenvalues --   -0.38327  -0.37575  -0.35695  -0.34819  -0.32864
 Alpha  occ. eigenvalues --   -0.31838  -0.31383  -0.24919  -0.20353
 Alpha virt. eigenvalues --   -0.03267   0.05902   0.08523   0.10821   0.11870
 Alpha virt. eigenvalues --    0.13185   0.14057   0.15471   0.15790   0.16565
 Alpha virt. eigenvalues --    0.17144   0.17702   0.19271   0.19683   0.21114

 Mulliken charges:
               1
     1  C   -0.485593
     2  C    0.197675
     3  C   -0.032096
     4  C   -0.153489
     5  C   -0.248150
     6  C   -0.205111
     7  C    0.196741
     8  C   -0.433625
     9  C   -0.403711
    10  H    0.128666
    11  H    0.126672
    12  H    0.126442
    13  H    0.099136
    14  H    0.108216
    15  H    0.112779
    16  H    0.095249
    17  H    0.096381
    18  H    0.111322
    19  H    0.112666
    20  H    0.113790
    21  H    0.122495
    22  H    0.110642
    23  H    0.102901
 Sum of Mulliken charges =  -0.00000

 Dipole moment (field-independent basis, Debye):
    X=             -0.4349    Y=             -0.9408    Z=              0.7112  Tot=              1.2571
 Quadrupole moment (field-independent basis, Debye-Ang):
   XX=            -54.4877   YY=            -57.6932   ZZ=            -56.9881
   XY=             -2.1373   XZ=             -0.0005   YZ=              0.8370

  Exact polarizability: 114.423  -3.663  90.048  -3.349  -2.721  78.284
 Approx polarizability: 179.588  -7.795 135.706  -8.711  -9.236 120.439

                      1                      2                      3
                      A                      A                      A
 Frequencies --     99.5157               123.4718               172.3047
 Red. masses --      1.9113                 2.0640                 1.1382
 Frc consts  --      0.0112                 0.0185                 0.0199
 IR Inten    --      0.1268                 1.3945                 0.0900

                      4                      5                      6
                      A                      A                      A
 Frequencies --    222.9023               234.2845               252.6877
 Red. masses --      1.7724                 1.3223                 1.4367
 Frc consts  --      0.0519                 0.0428                 0.0540
 IR Inten    --      0.1257                 0.2464                 0.2991

                      7                      8                      9
                      A                      A                      A
 Frequencies --    280.9721               309.9377               357.6680
 Red. masses --      1.7309                 1.8596                 2.4495
 Frc consts  --      0.0805                 0.1053                 0.1846
 IR Inten    --      0.7436                 0.3820                 0.4946

                     10                     11                     12
                      A                      A                      A
 Frequencies --    382.1076               424.4224               496.6345
 Red. masses --      2.7087                 2.7682                 3.4493
 Frc consts  --      0.2330                 0.2938                 0.5012
 IR Inten    --      2.4526                 7.0967                 2.0150

                     13                     14                     15
                      A                      A                      A
 Frequencies --    517.3698               585.7023               653.5747
 Red. masses --      4.3615                 4.2328                 4.3403
 Frc consts  --      0.6878                 0.8555                 1.0923
 IR Inten    --      7.8102                26.4553                12.8778

                     16                     17                     18
                      A                      A                      A
 Frequencies --    697.7991               745.5744               796.8753
 Red. masses --      3.6658                 1.3634                 1.7716
 Frc consts  --      1.0517                 0.4465                 0.6628
 IR Inten    --      5.0983                 8.9636                14.9094

                     19                     20                     21
                      A                      A                      A
 Frequencies --    818.9571               907.3669               922.6835
 Red. masses --      2.0796                 2.4929                 2.0700
 Frc consts  --      0.8218                 1.2092                 1.0383
 IR Inten    --      7.4337                 2.3083                 2.9817

                     22                     23                     24
                      A                      A                      A
 Frequencies --    950.4469               965.5127               998.3639
 Red. masses --      1.4736                 1.9004                 1.6609
 Frc consts  --      0.7843                 1.0438                 0.9754
 IR Inten    --      0.3772                 7.2619                 6.8759

                     25                     26                     27
                      A                      A                      A
 Frequencies --   1010.0689              1030.7055              1050.9304
 Red. masses --      2.3718                 1.5225                 1.5571
 Frc consts  --      1.4257                 0.9530                 1.0132
 IR Inten    --      1.1857                 4.1481                 1.2557

                     28                     29                     30
                      A                      A                      A
 Frequencies --   1130.2196              1150.4470              1168.0783
 Red. masses --      1.7362                 1.8399                 1.7999
 Frc consts  --      1.3067                 1.4348                 1.4469
 IR Inten    --     11.9624                 7.3650                 3.5027

                     31                     32                     33
                      A                      A                      A
 Frequencies --   1203.0441              1227.6254              1245.8223
 Red. masses --      1.9774                 1.5194                 1.4234
 Frc consts  --      1.6862                 1.3492                 1.3016
 IR Inten    --      4.8495                 0.8341                 0.3872

                     34                     35                     36
                      A                      A                      A
 Frequencies --   1279.4108              1304.3838              1348.3674
 Red. masses --      1.7948                 1.4364                 1.3158
 Frc consts  --      1.7309                 1.4399                 1.4095
 IR Inten    --      5.3921                10.7398                 0.1976

                     37                     38                     39
                      A                      A                      A
 Frequencies --   1394.8304              1405.6720              1420.6239
 Red. masses --      1.2384                 1.2317                 1.2155
 Frc consts  --      1.4195                 1.4339                 1.4453
 IR Inten    --      5.1684                 4.6615                 1.0698

                     40                     41                     42
                      A                      A                      A
 Frequencies --   1436.2662              1468.9557              1476.6864
 Red. masses --      2.0251                 1.0723                 1.0796
 Frc consts  --      2.4613                 1.3633                 1.3870
 IR Inten    --     13.0560                 1.2227                 2.0277

                     43                     44                     45
                      A                      A                      A
 Frequencies --   1483.5226              1487.8001              1494.5625
 Red. masses --      1.0618                 1.1022                 1.0779
 Frc consts  --      1.3768                 1.4374                 1.4186
 IR Inten    --      1.1243                 4.8174                 2.2579

                     46                     47                     48
                      A                      A                      A
 Frequencies --   1499.9824              1505.3397              1513.8873
 Red. masses --      1.2270                 1.0598                 1.0814
 Frc consts  --      1.6265                 1.4150                 1.4602
 IR Inten    --      2.4447                 5.1983                 5.2025

                     49                     50                     51
                      A                      A                      A
 Frequencies --   1884.8649              3018.5640              3020.7773
 Red. masses --     10.3664                 1.0387                 1.0585
 Frc consts  --     21.6990                 5.5763                 5.6906
 IR Inten    --      3.3960                24.5962                18.7916

                     52                     53                     54
                      A                      A                      A
 Frequencies --   3027.8148              3031.1560              3037.0404
 Red. masses --      1.0379                 1.0487                 1.0469
 Frc consts  --      5.6062                 5.6771                 5.6890
 IR Inten    --     27.3651                43.6137                36.3089

                     55                     56                     57
                      A                      A                      A
 Frequencies --   3050.0605              3063.9977              3073.8479
 Red. masses --      1.1029                 1.0982                 1.1040
 Frc consts  --      6.0450                 6.0743                 6.1457
 IR Inten    --      4.2316                12.1214                30.8056

                     58                     59                     60
                      A                      A                      A
 Frequencies --   3089.2731              3097.3643              3108.1101
 Red. masses --      1.1008                 1.1006                 1.1008
 Frc consts  --      6.1897                 6.2212                 6.2655
 IR Inten    --      8.8726                43.9830                36.9161

                     61                     62                     63
                      A                      A                      A
 Frequencies --   3122.0699              3125.8750              3164.3672
 Red. masses --      1.0984                 1.0984                 1.0910
 Frc consts  --      6.3083                 6.3236                 6.4364
 IR Inten    --     11.4938                18.5029                24.8918

 - Thermochemistry -
 -------------------
 Temperature   298.150 Kelvin.  Pressure   1.00000 Atm.
 Atom     1 has atomic number  6 and mass  12.00000

 Molecular mass:   122.10955 amu.
 Principal axes and moments of inertia in atomic units:
                           1         2         3
     Eigenvalues --   853.124391098.374721418.27909
           X            0.99822  -0.05948  -0.00482
           Y            0.05961   0.99767   0.03331
           Z            0.00283  -0.03354   0.99943
 This molecule is an asymmetric top.
 Rotational symmetry number  1.
 Warning -- assumption of classical behavior for rotation
           may cause significant error
 Rotational temperatures (Kelvin)      0.10153     0.07886     0.06107
 Rotational constants (GHZ):           2.11545     1.64310     1.27249
 Zero-point vibrational energy     535744.9 (Joules/Mol)
                                  128.04610 (Kcal/Mol)
 Warning -- explicit consideration of  14 degrees of freedom as
           vibrations may cause significant error
 Vibrational temperatures:    143.18   177.65   247.91   320.71   337.08
          (Kelvin)            363.56   404.26   445.93   514.60   549.77
                              610.65   714.55   744.38   842.70   940.35
                             1003.98  1072.72  1146.53  1178.30  1305.50
                             1327.54  1367.48  1389.16  1436.42  1453.26
                             1482.96  1512.05  1626.13  1655.24  1680.60
                             1730.91  1766.28  1792.46  1840.79  1876.72
                             1940.00  2006.85  2022.45  2043.96  2066.47
                             2113.50  2124.62  2134.46  2140.61  2150.34
                             2158.14  2165.85  2178.15  2711.90  4343.04
                             4346.22  4356.35  4361.16  4369.62  4388.36
                             4408.41  4422.58  4444.77  4456.42  4471.88
                             4491.96  4497.44  4552.82

 Zero-point correction=                           0.204054 (Hartree/Particle)
 Thermal correction to Energy=                    0.213889
 Thermal correction to Enthalpy=                  0.214833
 Thermal correction to Gibbs Free Energy=         0.170283
 Sum of electronic and zero-point Energies=           -351.118848
 Sum of electronic and thermal Energies=              -351.109013
 Sum of electronic and thermal Enthalpies=            -351.108069
 Sum of electronic and thermal Free Energies=         -351.152619

                     E (Thermal)             CV                S
                      KCal/Mol        Cal/Mol-Kelvin    Cal/Mol-Kelvin
 Total                  134.217             38.212             93.763
 Electronic               0.000              0.000              0.000
 Translational            0.889              2.981             40.313
 Rotational               0.889              2.981             28.676
 Vibrational            132.440             32.250             24.773
 Vibration     1          0.604              1.949              3.464
 Vibration     2          0.610              1.929              3.045
 Vibration     3          0.626              1.877              2.410
 Vibration     4          0.649              1.806              1.935
 Vibration     5          0.654              1.788              1.846
 Vibration     6          0.664              1.758              1.712
 Vibration     7          0.681              1.709              1.528
 Vibration     8          0.699              1.655              1.363
 Vibration     9          0.733              1.559              1.132
 Vibration    10          0.752              1.508              1.031
 Vibration    11          0.786              1.417              0.877
 Vibration    12          0.852              1.257              0.667
 Vibration    13          0.872              1.212              0.616
 Vibration    14          0.943              1.062              0.475

 Optimization completed.
    -- Stationary point found.
 Normal termination of Gaussian 16 at Thu Aug  4 20:25:21 2022.
