 Gaussian 16, Revision A.03,
 Gaussian 16:  ES64L-G16RevA.03 25-Dec-2016

 -----------------------------
 # opt freq b3lyp/6-31g(2df,p)
 -----------------------------

 -------------------
 Title Card Required
 -------------------
 Symbolic Z-matrix:
 Charge =  0 Multiplicity = 1

 SCF Done:  E(RB3LYP) =  -439.222595718     A.U. after   14 cycles
 SCF Done:  E(RB3LYP) =  -439.228969789     A.U. after   13 cycles
 SCF Done:  E(RB3LYP) =  -439.225093627     A.U. after   14 cycles
 SCF Done:  E(RB3LYP) =  -439.231220128     A.U. after   13 cycles
 SCF Done:  E(RB3LYP) =  -439.232069197     A.U. after   12 cycles
 SCF Done:  E(RB3LYP) =  -439.233763291     A.U. after   14 cycles
 SCF Done:  E(RB3LYP) =  -439.234836738     A.U. after   13 cycles
 SCF Done:  E(RB3LYP) =  -439.236119852     A.U. after   13 cycles
 SCF Done:  E(RB3LYP) =  -439.237279513     A.U. after   13 cycles
 SCF Done:  E(RB3LYP) =  -439.237963288     A.U. after   16 cycles
 SCF Done:  E(RB3LYP) =  -439.239240553     A.U. after   13 cycles
 SCF Done:  E(RB3LYP) =  -439.239671686     A.U. after   11 cycles
 SCF Done:  E(RB3LYP) =  -439.239952728     A.U. after   12 cycles
 SCF Done:  E(RB3LYP) =  -439.240071224     A.U. after   13 cycles
 SCF Done:  E(RB3LYP) =  -439.240120123     A.U. after   12 cycles
 SCF Done:  E(RB3LYP) =  -439.240129118     A.U. after   10 cycles
 SCF Done:  E(RB3LYP) =  -439.240131554     A.U. after    9 cycles
 SCF Done:  E(RB3LYP) =  -439.240131904     A.U. after    8 cycles
 SCF Done:  E(RB3LYP) =  -439.240132019     A.U. after    8 cycles
 Optimization completed.
    -- Stationary point found.
 Normal termination of Gaussian 16 at Sun Jul  3 22:09:07 2022.

 ----------------------------------------------------------------------
 #N Geom=AllCheck Guess=TCheck SCRF=Check GenChk RB3LYP/6-31G(2df,p) Fr
 eq
 ----------------------------------------------------------------------

 Structure from the checkpoint file:  "CC1dCNCC1pOpCdO.chk"
 -------------------
 Title Card Required
 -------------------
 Charge =  0 Multiplicity = 1

                         Standard orientation:
 ---------------------------------------------------------------------
 Center     Atomic      Atomic             Coordinates (Angstroms)
 Number     Number       Type             X           Y           Z
 ---------------------------------------------------------------------
      1          6           0        0.018604    2.278458   -0.030746
      2          6           0       -0.553746    0.899202   -0.107885
      3          6           0       -1.837502    0.523377   -0.211103
      4          7           0       -2.047585   -0.852878   -0.076674
      5          6           0       -0.725482   -1.482201   -0.223496
      6          6           0        0.280409   -0.356476    0.156534
      7          8           0        0.730544   -0.427103    1.498950
      8          6           0        1.512957   -0.395734   -0.740019
      9          8           0        2.649181   -0.304484   -0.367810
     10          1           0       -0.767870    3.036770   -0.083048
     11          1           0        0.728274    2.476567   -0.843976
     12          1           0        0.571173    2.423936    0.905198
     13          1           0       -2.698858    1.174068   -0.310948
     14          1           0       -2.778653   -1.248617   -0.651948
     15          1           0       -0.559358   -1.802880   -1.261708
     16          1           0       -0.602024   -2.344169    0.436588
     17          1           0       -0.021517   -0.203557    2.058335
     18          1           0        1.252687   -0.489033   -1.820609
 ---------------------------------------------------------------------

 SCF Done:  E(RB3LYP) =  -439.240132019     A.U. after    1 cycles

 The electronic state is 1-A.
 Alpha  occ. eigenvalues --  -19.13888 -19.13735 -14.34544 -10.26492 -10.24788
 Alpha  occ. eigenvalues --  -10.22304 -10.21935 -10.18438 -10.18256  -1.05033
 Alpha  occ. eigenvalues --   -1.02067  -0.94470  -0.79085  -0.74918  -0.68919
 Alpha  occ. eigenvalues --   -0.64527  -0.57692  -0.55914  -0.52765  -0.48067
 Alpha  occ. eigenvalues --   -0.46501  -0.44777  -0.43352  -0.42498  -0.41245
 Alpha  occ. eigenvalues --   -0.40950  -0.38998  -0.38563  -0.36419  -0.33777
 Alpha  occ. eigenvalues --   -0.32072  -0.27302  -0.25028  -0.20643
 Alpha virt. eigenvalues --   -0.02403   0.02897   0.07164   0.09162   0.11449
 Alpha virt. eigenvalues --    0.12432   0.13596   0.14412   0.16040   0.16860
 Alpha virt. eigenvalues --    0.18696   0.19111   0.20548   0.22050   0.23843

 Mulliken charges:
               1
     1  C   -0.495078
     2  C    0.179052
     3  C   -0.133685
     4  N   -0.307129
     5  C   -0.234456
     6  C    0.217589
     7  O   -0.454186
     8  C    0.145358
     9  O   -0.247876
    10  H    0.119541
    11  H    0.129744
    12  H    0.138070
    13  H    0.117653
    14  H    0.238859
    15  H    0.103444
    16  H    0.126424
    17  H    0.284202
    18  H    0.072472
 Sum of Mulliken charges =  -0.00000

 Dipole moment (field-independent basis, Debye):
    X=             -4.4154    Y=              0.0100    Z=             -1.3498  Tot=              4.6171
 Quadrupole moment (field-independent basis, Debye-Ang):
   XX=            -58.4746   YY=            -49.1077   ZZ=            -51.0301
   XY=              1.6731   XZ=              0.3145   YZ=              2.3102

  Exact polarizability:  90.232   5.171  76.185   2.801   1.731  59.357
 Approx polarizability: 146.869  12.472 106.344   8.402   1.274  91.753

                      1                      2                      3
                      A                      A                      A
 Frequencies --     64.2794                99.6903               162.2517
 Red. masses --      5.6133                 2.8479                 1.0688
 Frc consts  --      0.0137                 0.0167                 0.0166
 IR Inten    --      2.6757                 1.2044                 0.1624

                      4                      5                      6
                      A                      A                      A
 Frequencies --    201.5789               243.0073               275.3492
 Red. masses --      2.9300                 2.6904                 5.4028
 Frc consts  --      0.0701                 0.0936                 0.2413
 IR Inten    --      3.5701                 0.1800                 4.4161

                      7                      8                      9
                      A                      A                      A
 Frequencies --    302.9793               340.0505               372.5287
 Red. masses --      1.3800                 1.9661                 2.0449
 Frc consts  --      0.0746                 0.1339                 0.1672
 IR Inten    --     50.5736                23.0523                 4.7744

                     10                     11                     12
                      A                      A                      A
 Frequencies --    420.0868               459.2665               583.4742
 Red. masses --      4.8410                 3.5168                 3.0458
 Frc consts  --      0.5033                 0.4370                 0.6109
 IR Inten    --      0.0694                 2.6218                12.6446

                     13                     14                     15
                      A                      A                      A
 Frequencies --    608.2592               633.6804               787.9076
 Red. masses --      1.7215                 4.2069                 5.4990
 Frc consts  --      0.3753                 0.9953                 2.0113
 IR Inten    --    230.0924                 5.0348                48.9869

                     16                     17                     18
                      A                      A                      A
 Frequencies --    828.2037               876.2586               900.3987
 Red. masses --      3.4563                 2.2229                 1.4929
 Frc consts  --      1.3968                 1.0056                 0.7131
 IR Inten    --     31.0326                19.9903                13.0652

                     19                     20                     21
                      A                      A                      A
 Frequencies --    968.5624               988.1724              1015.2403
 Red. masses --      2.1638                 1.9373                 2.1039
 Frc consts  --      1.1960                 1.1146                 1.2777
 IR Inten    --      9.3103                 2.6819                 6.1389

                     22                     23                     24
                      A                      A                      A
 Frequencies --   1038.8479              1066.2122              1101.6598
 Red. masses --      1.9849                 1.4954                 2.4198
 Frc consts  --      1.2621                 1.0016                 1.7303
 IR Inten    --     32.9268                 0.2934                 2.6979

                     25                     26                     27
                      A                      A                      A
 Frequencies --   1146.5967              1151.5406              1220.4777
 Red. masses --      2.0900                 2.8424                 2.2594
 Frc consts  --      1.6189                 2.2208                 1.9829
 IR Inten    --     28.8226                72.7479                25.0679

                     28                     29                     30
                      A                      A                      A
 Frequencies --   1240.5878              1288.9231              1339.1841
 Red. masses --      1.4887                 1.6464                 1.5129
 Frc consts  --      1.3499                 1.6115                 1.5986
 IR Inten    --     31.4439                23.0861                10.9953

                     31                     32                     33
                      A                      A                      A
 Frequencies --   1368.6344              1417.9569              1421.2360
 Red. masses --      1.5634                 1.2650                 1.2805
 Frc consts  --      1.7254                 1.4985                 1.5240
 IR Inten    --     25.4134                 1.0400                14.4185

                     34                     35                     36
                      A                      A                      A
 Frequencies --   1435.8681              1475.6426              1494.1977
 Red. masses --      1.4916                 1.0442                 1.0768
 Frc consts  --      1.8119                 1.3397                 1.4165
 IR Inten    --     11.8603                 5.7339                 4.0440

                     37                     38                     39
                      A                      A                      A
 Frequencies --   1499.9232              1708.2164              1847.3773
 Red. masses --      1.0884                 6.2994                11.0132
 Frc consts  --      1.4427                10.8301                22.1450
 IR Inten    --      5.7747                35.2370               176.9405

                     40                     41                     42
                      A                      A                      A
 Frequencies --   2855.3917              3000.8139              3018.0338
 Red. masses --      1.0824                 1.0688                 1.0380
 Frc consts  --      5.1997                 5.6707                 5.5705
 IR Inten    --     90.1841                43.1211                32.5196

                     43                     44                     45
                      A                      A                      A
 Frequencies --   3064.4416              3098.7049              3106.1271
 Red. masses --      1.0981                 1.0950                 1.0996
 Frc consts  --      6.0756                 6.1946                 6.2508
 IR Inten    --     15.7030                16.8880                18.7796

                     46                     47                     48
                      A                      A                      A
 Frequencies --   3201.3028              3577.9232              3808.3188
 Red. masses --      1.0951                 1.0762                 1.0661
 Frc consts  --      6.6126                 8.1174                 9.1103
 IR Inten    --     10.0915                10.0166                21.6149

 - Thermochemistry -
 -------------------
 Temperature   298.150 Kelvin.  Pressure   1.00000 Atm.
 Atom     1 has atomic number  6 and mass  12.00000

 Molecular mass:   127.06333 amu.
 Principal axes and moments of inertia in atomic units:
                           1         2         3
     Eigenvalues --   752.624281195.990221536.11668
           X            0.99974   0.02259   0.00386
           Y           -0.02266   0.99953   0.02077
           Z           -0.00339  -0.02085   0.99978
 This molecule is an asymmetric top.
 Rotational symmetry number  1.
 Warning -- assumption of classical behavior for rotation
           may cause significant error
 Rotational temperatures (Kelvin)      0.11508     0.07242     0.05638
 Rotational constants (GHZ):           2.39793     1.50899     1.17487
 Zero-point vibrational energy     383554.9 (Joules/Mol)
                                   91.67181 (Kcal/Mol)
 Warning -- explicit consideration of  13 degrees of freedom as
           vibrations may cause significant error
 Vibrational temperatures:     92.48   143.43   233.44   290.03   349.63
          (Kelvin)            396.17   435.92   489.26   535.99   604.41
                              660.78   839.49   875.15   911.72  1133.62
                             1191.60  1260.74  1295.47  1393.55  1421.76
                             1460.70  1494.67  1534.04  1585.04  1649.70
                             1656.81  1756.00  1784.93  1854.47  1926.79
                             1969.16  2040.12  2044.84  2065.89  2123.12
                             2149.82  2158.05  2457.74  2657.96  4108.27
                             4317.50  4342.28  4409.05  4458.35  4469.02
                             4605.96  5147.83  5479.32

 Zero-point correction=                           0.146088 (Hartree/Particle)
 Thermal correction to Energy=                    0.155334
 Thermal correction to Enthalpy=                  0.156278
 Thermal correction to Gibbs Free Energy=         0.112040
 Sum of electronic and zero-point Energies=           -439.094044
 Sum of electronic and thermal Energies=              -439.084798
 Sum of electronic and thermal Enthalpies=            -439.083854
 Sum of electronic and thermal Free Energies=         -439.128092

                     E (Thermal)             CV                S
                      KCal/Mol        Cal/Mol-Kelvin    Cal/Mol-Kelvin
 Total                   97.474             33.939             93.107
 Electronic               0.000              0.000              0.000
 Translational            0.889              2.981             40.432
 Rotational               0.889              2.981             28.716
 Vibrational             95.696             27.977             23.960
 Vibration     1          0.597              1.971              4.321
 Vibration     2          0.604              1.949              3.460
 Vibration     3          0.622              1.889              2.523
 Vibration     4          0.638              1.838              2.119
 Vibration     5          0.659              1.774              1.781
 Vibration     6          0.677              1.719              1.562
 Vibration     7          0.694              1.668              1.400
 Vibration     8          0.720              1.595              1.212
 Vibration     9          0.744              1.529              1.069
 Vibration    10          0.783              1.427              0.892
 Vibration    11          0.817              1.340              0.768
 Vibration    12          0.940              1.067              0.479
 Vibration    13          0.967              1.014              0.436

                           ! Non-Optimized Parameters !
 Normal termination of Gaussian 16 at Sun Jul  3 22:50:53 2022.
