 Gaussian 16, Revision A.03,
 Gaussian 16:  ES64L-G16RevA.03 25-Dec-2016

 -----------------------------
 # opt freq b3lyp/6-31g(2df,p)
 -----------------------------

 -------------------
 Title Card Required
 -------------------
 Symbolic Z-matrix:
 Charge =  0 Multiplicity = 1

 SCF Done:  E(RB3LYP) =  -420.770022289     A.U. after   15 cycles
 SCF Done:  E(RB3LYP) =  -420.776321932     A.U. after   13 cycles
 SCF Done:  E(RB3LYP) =  -420.776976161     A.U. after   12 cycles
 SCF Done:  E(RB3LYP) =  -420.776945531     A.U. after   11 cycles
 SCF Done:  E(RB3LYP) =  -420.776927126     A.U. after   12 cycles
 SCF Done:  E(RB3LYP) =  -420.777001430     A.U. after   10 cycles
 SCF Done:  E(RB3LYP) =  -420.776999917     A.U. after   10 cycles
 SCF Done:  E(RB3LYP) =  -420.777007166     A.U. after    9 cycles
 Optimization completed.
    -- Stationary point found.
 Normal termination of Gaussian 16 at Sun Jul  3 17:50:37 2022.

 ----------------------------------------------------------------------
 #N Geom=AllCheck Guess=TCheck SCRF=Check GenChk RB3LYP/6-31G(2df,p) Fr
 eq
 ----------------------------------------------------------------------

 Structure from the checkpoint file:  "CC1dCpCdOpCdCC1dO.chk"
 -------------------
 Title Card Required
 -------------------
 Charge =  0 Multiplicity = 1

                         Standard orientation:
 ---------------------------------------------------------------------
 Center     Atomic      Atomic             Coordinates (Angstroms)
 Number     Number       Type             X           Y           Z
 ---------------------------------------------------------------------
      1          6           0        0.193114    2.019070    0.000001
      2          6           0       -0.140891    0.574252    0.000006
      3          6           0        0.637344   -0.530079    0.000001
      4          6           0        2.105808   -0.610236    0.000044
      5          8           0        2.862761    0.336032   -0.000037
      6          6           0       -0.237784   -1.752825    0.000012
      7          6           0       -1.530844   -1.413239   -0.000051
      8          6           0       -1.593065    0.082518    0.000030
      9          8           0       -2.566909    0.794799    0.000015
     10          1           0        1.269929    2.178330    0.000332
     11          1           0       -0.255004    2.508284    0.873741
     12          1           0       -0.254371    2.508121   -0.874163
     13          1           0        2.503580   -1.650267    0.000086
     14          1           0        0.169164   -2.757495    0.000017
     15          1           0       -2.402206   -2.050397   -0.000097
 ---------------------------------------------------------------------

 SCF Done:  E(RB3LYP) =  -420.777007166     A.U. after    1 cycles

 The electronic state is 1-A.
 Alpha  occ. eigenvalues --  -19.16030 -19.14776 -10.28639 -10.28179 -10.22689
 Alpha  occ. eigenvalues --  -10.22647 -10.21734 -10.20200 -10.19366  -1.06432
 Alpha  occ. eigenvalues --   -1.05233  -0.88274  -0.77823  -0.72946  -0.67481
 Alpha  occ. eigenvalues --   -0.61520  -0.56579  -0.52325  -0.49999  -0.46293
 Alpha  occ. eigenvalues --   -0.45060  -0.44968  -0.43099  -0.42635  -0.40639
 Alpha  occ. eigenvalues --   -0.40427  -0.40102  -0.37995  -0.33476  -0.27557
 Alpha  occ. eigenvalues --   -0.25893  -0.24846
 Alpha virt. eigenvalues --   -0.12171  -0.03442   0.06701   0.09260   0.10215
 Alpha virt. eigenvalues --    0.11371   0.12931   0.14594   0.15745   0.17733
 Alpha virt. eigenvalues --    0.19995   0.21972   0.23987   0.25208   0.25656

 Mulliken charges:
               1
     1  C   -0.509676
     2  C    0.094803
     3  C    0.082723
     4  C    0.091916
     5  O   -0.268322
     6  C   -0.138200
     7  C   -0.223641
     8  C    0.348246
     9  O   -0.283670
    10  H    0.169434
    11  H    0.151096
    12  H    0.151102
    13  H    0.077488
    14  H    0.127213
    15  H    0.129488
 Sum of Mulliken charges =  -0.00000

 Dipole moment (field-independent basis, Debye):
    X=             -0.1326    Y=             -2.2142    Z=              0.0000  Tot=              2.2182
 Quadrupole moment (field-independent basis, Debye-Ang):
   XX=            -63.5763   YY=            -44.9719   ZZ=            -50.2865
   XY=             -0.0182   XZ=              0.0004   YZ=             -0.0001

  Exact polarizability: 100.243  -8.267  89.421   0.001  -0.001  39.035
 Approx polarizability: 175.913 -29.085 141.872   0.002  -0.002  63.325

                      1                      2                      3
                      A                      A                      A
 Frequencies --     13.6375                97.4132               152.7172
 Red. masses --      1.0793                 6.2175                 2.6043
 Frc consts  --      0.0001                 0.0348                 0.0358
 IR Inten    --      0.4774                 9.8354                 1.2716

                      4                      5                      6
                      A                      A                      A
 Frequencies --    202.3358               238.2108               266.0678
 Red. masses --      6.7313                 3.4067                 3.4339
 Frc consts  --      0.1624                 0.1139                 0.1432
 IR Inten    --      7.0795                 1.8516                 2.8570

                      7                      8                      9
                      A                      A                      A
 Frequencies --    303.9570               430.5774               506.4511
 Red. masses --      3.0301                 8.0207                 4.1442
 Frc consts  --      0.1649                 0.8761                 0.6263
 IR Inten    --      0.0088                 2.4882                 4.7907

                     10                     11                     12
                      A                      A                      A
 Frequencies --    552.1156               624.3363               689.9705
 Red. masses --      3.1866                 6.3316                 4.5967
 Frc consts  --      0.5723                 1.4541                 1.2893
 IR Inten    --      4.1837                 7.0523                 7.4133

                     13                     14                     15
                      A                      A                      A
 Frequencies --    704.8601               747.3368               829.9320
 Red. masses --      1.8698                 7.0082                 2.3027
 Frc consts  --      0.5473                 2.3062                 0.9345
 IR Inten    --      4.3172                 6.3710                31.7074

                     16                     17                     18
                      A                      A                      A
 Frequencies --    881.6724               967.5463              1028.1136
 Red. masses --      2.2413                 1.3270                 1.6942
 Frc consts  --      1.0265                 0.7319                 1.0551
 IR Inten    --     72.3266                 0.9618                 0.2702

                     19                     20                     21
                      A                      A                      A
 Frequencies --   1032.9570              1054.4021              1098.4861
 Red. masses --      2.9446                 1.7606                 1.6522
 Frc consts  --      1.8511                 1.1532                 1.1746
 IR Inten    --     47.4290                 0.5319                 4.4209

                     22                     23                     24
                      A                      A                      A
 Frequencies --   1126.5508              1149.1917              1302.1694
 Red. masses --      2.0494                 2.6020                 4.1500
 Frc consts  --      1.5324                 2.0246                 4.1460
 IR Inten    --      2.6521                12.1113                10.9347

                     25                     26                     27
                      A                      A                      A
 Frequencies --   1342.3862              1400.2296              1442.7973
 Red. masses --      1.7923                 1.3070                 1.2662
 Frc consts  --      1.9029                 1.5098                 1.5530
 IR Inten    --     12.7176                 5.9865                11.9449

                     28                     29                     30
                      A                      A                      A
 Frequencies --   1457.3778              1478.8639              1614.2570
 Red. masses --      1.1004                 1.0456                 6.6926
 Frc consts  --      1.3771                 1.3474                10.2752
 IR Inten    --     24.6572                 7.4787                15.7919

                     31                     32                     33
                      A                      A                      A
 Frequencies --   1674.4474              1785.0122              1816.2845
 Red. masses --      7.6044                 9.6757                12.6304
 Frc consts  --     12.5620                18.1642                24.5492
 IR Inten    --    131.3942               119.3789               174.1044

                     34                     35                     36
                      A                      A                      A
 Frequencies --   2875.9086              3028.7534              3071.3761
 Red. masses --      1.0817                 1.0405                 1.0963
 Frc consts  --      5.2711                 5.6237                 6.0930
 IR Inten    --    140.9442                 4.3006                 5.0196

                     37                     38                     39
                      A                      A                      A
 Frequencies --   3170.9692              3203.4501              3257.2759
 Red. masses --      1.0979                 1.0912                 1.1020
 Frc consts  --      6.5040                 6.5979                 6.8885
 IR Inten    --      1.2621                 6.3111                 0.2017

 - Thermochemistry -
 -------------------
 Temperature   298.150 Kelvin.  Pressure   1.00000 Atm.
 Atom     1 has atomic number  6 and mass  12.00000

 Molecular mass:   122.03678 amu.
 Principal axes and moments of inertia in atomic units:
                           1         2         3
     Eigenvalues --   596.981701321.179851907.16598
           X            0.99996   0.00889   0.00000
           Y           -0.00889   0.99996  -0.00000
           Z           -0.00000   0.00000   1.00000
 This molecule is an asymmetric top.
 Rotational symmetry number  1.
 Warning -- assumption of classical behavior for rotation
           may cause significant error
 Rotational temperatures (Kelvin)      0.14509     0.06556     0.04541
 Rotational constants (GHZ):           3.02311     1.36601     0.94629
 Zero-point vibrational energy     290814.6 (Joules/Mol)
                                   69.50635 (Kcal/Mol)
 Warning -- explicit consideration of  10 degrees of freedom as
           vibrations may cause significant error
 Vibrational temperatures:     19.62   140.16   219.73   291.12   342.73
          (Kelvin)            382.81   437.33   619.50   728.67   794.37
                              898.28   992.71  1014.14  1075.25  1194.09
                             1268.53  1392.08  1479.23  1486.19  1517.05
                             1580.48  1620.86  1653.43  1873.53  1931.39
                             2014.62  2075.86  2096.84  2127.76  2322.56
                             2409.16  2568.23  2613.23  4137.79  4357.70
                             4419.03  4562.32  4609.05  4686.49

 Zero-point correction=                           0.110765 (Hartree/Particle)
 Thermal correction to Energy=                    0.119374
 Thermal correction to Enthalpy=                  0.120318
 Thermal correction to Gibbs Free Energy=         0.075706
 Sum of electronic and zero-point Energies=           -420.666242
 Sum of electronic and thermal Energies=              -420.657633
 Sum of electronic and thermal Enthalpies=            -420.656689
 Sum of electronic and thermal Free Energies=         -420.701302

                     E (Thermal)             CV                S
                      KCal/Mol        Cal/Mol-Kelvin    Cal/Mol-Kelvin
 Total                   74.908             30.099             93.896
 Electronic               0.000              0.000              0.000
 Translational            0.889              2.981             40.312
 Rotational               0.889              2.981             28.799
 Vibrational             73.131             24.138             24.785
 Vibration     1          0.593              1.986              7.395
 Vibration     2          0.603              1.951              3.505
 Vibration     3          0.619              1.900              2.638
 Vibration     4          0.639              1.837              2.112
 Vibration     5          0.656              1.782              1.816
 Vibration     6          0.672              1.735              1.622
 Vibration     7          0.695              1.666              1.395
 Vibration     8          0.792              1.404              0.857
 Vibration     9          0.862              1.236              0.642
 Vibration    10          0.907              1.135              0.540

 Optimization completed.
    -- Stationary point found.
 Normal termination of Gaussian 16 at Sun Jul  3 18:12:33 2022.
