 Gaussian 16, Revision A.03,
 Gaussian 16:  ES64L-G16RevA.03 25-Dec-2016

 -----------------------------
 # opt freq b3lyp/6-31g(2df,p)
 -----------------------------

 -------------------
 Title Card Required
 -------------------
 Symbolic Z-matrix:
 Charge =  0 Multiplicity = 1

 SCF Done:  E(RB3LYP) =  -438.011044036     A.U. after   15 cycles
 SCF Done:  E(RB3LYP) =  -438.016135077     A.U. after   13 cycles
 SCF Done:  E(RB3LYP) =  -438.017056169     A.U. after   12 cycles
 SCF Done:  E(RB3LYP) =  -438.017251161     A.U. after   10 cycles
 SCF Done:  E(RB3LYP) =  -438.017315776     A.U. after   10 cycles
 SCF Done:  E(RB3LYP) =  -438.017324798     A.U. after    9 cycles
 SCF Done:  E(RB3LYP) =  -438.017325760     A.U. after    8 cycles
 Optimization completed.
    -- Stationary point found.
 Normal termination of Gaussian 16 at Sun Jul  3 09:12:59 2022.

 ----------------------------------------------------------------------
 #N Geom=AllCheck Guess=TCheck SCRF=Check GenChk RB3LYP/6-31G(2df,p) Fr
 eq
 ----------------------------------------------------------------------

 Structure from the checkpoint file:  "CC1dNCdCpOpCdCO1.chk"
 -------------------
 Title Card Required
 -------------------
 Charge =  0 Multiplicity = 1

                         Standard orientation:
 ---------------------------------------------------------------------
 Center     Atomic      Atomic             Coordinates (Angstroms)
 Number     Number       Type             X           Y           Z
 ---------------------------------------------------------------------
      1          6           0        2.944792   -0.508316    0.000633
      2          6           0        1.461962   -0.299694   -0.000170
      3          7           0        0.648661   -1.255099    0.000262
      4          6           0       -0.749678   -1.273190   -0.000309
      5          6           0       -1.590791   -0.225029    0.000075
      6          8           0       -2.946444   -0.367083   -0.000109
      7          6           0       -1.207559    1.187956    0.000828
      8          6           0        0.022007    1.699126    0.000094
      9          8           0        1.248216    1.099215   -0.001445
     10          1           0        3.166509   -1.574026    0.001387
     11          1           0        3.393440   -0.032597    0.879823
     12          1           0        3.394160   -0.033685   -0.878778
     13          1           0       -1.165377   -2.278494   -0.000833
     14          1           0       -3.162132   -1.307095   -0.000621
     15          1           0       -2.028707    1.894533    0.002002
     16          1           0        0.162907    2.774885    0.000703
 ---------------------------------------------------------------------

 SCF Done:  E(RB3LYP) =  -438.017325760     A.U. after    1 cycles

 The electronic state is 1-A.
 Alpha  occ. eigenvalues --  -19.18176 -19.17655 -14.31720 -10.27873 -10.25271
 Alpha  occ. eigenvalues --  -10.24786 -10.19560 -10.18627 -10.18484  -1.07615
 Alpha  occ. eigenvalues --   -1.06492  -0.91659  -0.80885  -0.74391  -0.71943
 Alpha  occ. eigenvalues --   -0.66295  -0.60470  -0.56529  -0.52852  -0.47639
 Alpha  occ. eigenvalues --   -0.45994  -0.45601  -0.43254  -0.40808  -0.39945
 Alpha  occ. eigenvalues --   -0.39502  -0.38853  -0.36617  -0.36104  -0.33395
 Alpha  occ. eigenvalues --   -0.27671  -0.25301  -0.18302
 Alpha virt. eigenvalues --   -0.05148   0.06597   0.07134   0.10125   0.11846
 Alpha virt. eigenvalues --    0.12955   0.13448   0.14721   0.17647   0.17932
 Alpha virt. eigenvalues --    0.19100   0.21945   0.22981   0.25133   0.29002

 Mulliken charges:
               1
     1  C   -0.442085
     2  C    0.392223
     3  N   -0.302507
     4  C   -0.190684
     5  C    0.335192
     6  O   -0.426253
     7  C   -0.195538
     8  C    0.060702
     9  O   -0.277870
    10  H    0.143846
    11  H    0.139346
    12  H    0.139356
    13  H    0.080270
    14  H    0.301098
    15  H    0.114834
    16  H    0.128072
 Sum of Mulliken charges =  -0.00000

 Dipole moment (field-independent basis, Debye):
    X=             -0.2880    Y=              0.2311    Z=              0.0007  Tot=              0.3693
 Quadrupole moment (field-independent basis, Debye-Ang):
   XX=            -46.6638   YY=            -47.6711   ZZ=            -52.9484
   XY=              4.1370   XZ=              0.0032   YZ=              0.0081

  Exact polarizability: 111.053   1.589  81.683  -0.006   0.009  39.790
 Approx polarizability: 174.535   8.138 133.210  -0.030   0.005  63.116

 ******    1 imaginary frequencies (negative Signs) ******

                      1                      2                      3
                      A                      A                      A
 Frequencies --   -113.1411               115.4189               177.4683
 Red. masses --      4.5437                 3.6112                 1.1146
 Frc consts  --      0.0343                 0.0283                 0.0207
 IR Inten    --      0.7250                 1.6933                 0.1076

                      4                      5                      6
                      A                      A                      A
 Frequencies --    300.7055               331.2493               350.9566
 Red. masses --      3.6504                 2.5949                 5.1616
 Frc consts  --      0.1945                 0.1678                 0.3746
 IR Inten    --      5.5251                27.5825                14.7557

                      7                      8                      9
                      A                      A                      A
 Frequencies --    354.8111               415.6612               460.7482
 Red. masses --      2.9515                 5.7233                 1.2903
 Frc consts  --      0.2189                 0.5826                 0.1614
 IR Inten    --      5.7150                13.0168                76.8194

                     10                     11                     12
                      A                      A                      A
 Frequencies --    463.2667               602.2254               656.7116
 Red. masses --      4.4544                 3.9613                 3.9061
 Frc consts  --      0.5633                 0.8465                 0.9925
 IR Inten    --      2.1395                13.0265                 0.2952

                     13                     14                     15
                      A                      A                      A
 Frequencies --    691.4235               701.6212               767.4549
 Red. masses --      6.4393                 6.4924                 1.3242
 Frc consts  --      1.8138                 1.8831                 0.4595
 IR Inten    --     13.9648                15.8770                 4.6882

                     16                     17                     18
                      A                      A                      A
 Frequencies --    798.7219               823.6544               922.2830
 Red. masses --      5.7494                 1.5985                 4.9334
 Frc consts  --      2.1611                 0.6389                 2.4724
 IR Inten    --      8.9273                32.2216                27.8338

                     19                     20                     21
                      A                      A                      A
 Frequencies --    952.5554               962.2643              1052.2841
 Red. masses --      1.2500                 2.2204                 1.5480
 Frc consts  --      0.6683                 1.2113                 1.0099
 IR Inten    --      0.0125                18.5344                 3.8994

                     22                     23                     24
                      A                      A                      A
 Frequencies --   1054.4716              1137.1674              1182.2097
 Red. masses --      3.5946                 2.2572                 2.0132
 Frc consts  --      2.3549                 1.7198                 1.6578
 IR Inten    --    130.4247                60.0366               134.4525

                     25                     26                     27
                      A                      A                      A
 Frequencies --   1223.1206              1283.8639              1319.2924
 Red. masses --      5.5933                 1.3559                 1.4780
 Frc consts  --      4.9301                 1.3168                 1.5156
 IR Inten    --    103.7061                14.5476                 9.1170

                     28                     29                     30
                      A                      A                      A
 Frequencies --   1397.4589              1404.1546              1469.8090
 Red. masses --      1.2489                 1.3264                 1.6900
 Frc consts  --      1.4370                 1.5408                 2.1510
 IR Inten    --     22.2983                 9.9262                 0.8139

                     31                     32                     33
                      A                      A                      A
 Frequencies --   1471.3523              1474.2938              1676.3771
 Red. masses --      1.0456                 1.0540                 7.9424
 Frc consts  --      1.3336                 1.3497                13.1507
 IR Inten    --      5.7374                 7.8700                94.8320

                     34                     35                     36
                      A                      A                      A
 Frequencies --   1713.9628              1815.5520              3038.2923
 Red. masses --      6.9352                10.0888                 1.0389
 Frc consts  --     12.0036                19.5932                 5.6502
 IR Inten    --    115.9124               135.6968                15.5496

                     37                     38                     39
                      A                      A                      A
 Frequencies --   3090.1227              3136.3315              3170.6427
 Red. masses --      1.0984                 1.0878                 1.0997
 Frc consts  --      6.1797                 6.3042                 6.5133
 IR Inten    --     10.4978                42.0085                 5.9544

                     40                     41                     42
                      A                      A                      A
 Frequencies --   3187.9590              3211.1215              3801.1994
 Red. masses --      1.0859                 1.0942                 1.0652
 Frc consts  --      6.5025                 6.6478                 9.0679
 IR Inten    --      3.1078                 6.9675                52.9163

 - Thermochemistry -
 -------------------
 Temperature   298.150 Kelvin.  Pressure   1.00000 Atm.
 Atom     1 has atomic number  6 and mass  12.00000

 Molecular mass:   125.04768 amu.
 Principal axes and moments of inertia in atomic units:
                           1         2         3
     Eigenvalues --   506.134991444.140251939.14426
           X            0.99998  -0.00685   0.00002
           Y            0.00685   0.99998   0.00005
           Z           -0.00002  -0.00005   1.00000
 This molecule is an asymmetric top.
 Rotational symmetry number  1.
 Warning -- assumption of classical behavior for rotation
           may cause significant error
 Rotational temperatures (Kelvin)      0.17113     0.05998     0.04467
 Rotational constants (GHZ):           3.56573     1.24970     0.93069
    1 imaginary frequencies ignored.
 Zero-point vibrational energy     323950.2 (Joules/Mol)
                                   77.42595 (Kcal/Mol)
 Warning -- explicit consideration of  10 degrees of freedom as
           vibrations may cause significant error
 Vibrational temperatures:    166.06   255.34   432.65   476.59   504.95
          (Kelvin)            510.49   598.04   662.91   666.54   866.47
                              944.86   994.80  1009.48  1104.20  1149.18
                             1185.06  1326.96  1370.51  1384.48  1514.00
                             1517.15  1636.13  1700.94  1759.80  1847.19
                             1898.17  2010.63  2020.27  2114.73  2116.95
                             2121.18  2411.93  2466.01  2612.17  4371.42
                             4446.00  4512.48  4561.85  4586.76  4620.09
                             5469.08

 Zero-point correction=                           0.123386 (Hartree/Particle)
 Thermal correction to Energy=                    0.130909
 Thermal correction to Enthalpy=                  0.131853
 Thermal correction to Gibbs Free Energy=         0.091516
 Sum of electronic and zero-point Energies=           -437.893940
 Sum of electronic and thermal Energies=              -437.886417
 Sum of electronic and thermal Enthalpies=            -437.885473
 Sum of electronic and thermal Free Energies=         -437.925810

                     E (Thermal)             CV                S
                      KCal/Mol        Cal/Mol-Kelvin    Cal/Mol-Kelvin
 Total                   82.146             29.359             84.896
 Electronic               0.000              0.000              0.000
 Translational            0.889              2.981             40.384
 Rotational               0.889              2.981             28.740
 Vibrational             80.369             23.398             15.772
 Vibration     1          0.608              1.937              3.176
 Vibration     2          0.628              1.870              2.355
 Vibration     3          0.693              1.672              1.413
 Vibration     4          0.714              1.613              1.254
 Vibration     5          0.728              1.573              1.162
 Vibration     6          0.731              1.565              1.145
 Vibration     7          0.779              1.436              0.907
 Vibration     8          0.819              1.337              0.764
 Vibration     9          0.821              1.332              0.757
 Vibration    10          0.961              1.027              0.446

                           ! Non-Optimized Parameters !
 Normal termination of Gaussian 16 at Sun Jul  3 09:36:08 2022.
