 Gaussian 16, Revision A.03,
 Gaussian 16:  ES64L-G16RevA.03 25-Dec-2016

 -----------------------------
 # opt freq b3lyp/6-31g(2df,p)
 -----------------------------

 -------------------
 Title Card Required
 -------------------
 Symbolic Z-matrix:
 Charge =  0 Multiplicity = 1

 SCF Done:  E(RB3LYP) =  -418.127019188     A.U. after   15 cycles
 SCF Done:  E(RB3LYP) =  -418.135570621     A.U. after   14 cycles
 SCF Done:  E(RB3LYP) =  -418.136466382     A.U. after   12 cycles
 SCF Done:  E(RB3LYP) =  -418.136567521     A.U. after   10 cycles
 SCF Done:  E(RB3LYP) =  -418.136600268     A.U. after   10 cycles
 SCF Done:  E(RB3LYP) =  -418.136659299     A.U. after   12 cycles
 SCF Done:  E(RB3LYP) =  -418.136850755     A.U. after   13 cycles
 SCF Done:  E(RB3LYP) =  -418.137031010     A.U. after   10 cycles
 SCF Done:  E(RB3LYP) =  -418.137763628     A.U. after   13 cycles
 SCF Done:  E(RB3LYP) =  -418.136006624     A.U. after   13 cycles
 SCF Done:  E(RB3LYP) =  -418.142817352     A.U. after   12 cycles
 SCF Done:  E(RB3LYP) =  -418.143122523     A.U. after   12 cycles
 SCF Done:  E(RB3LYP) =  -418.143289272     A.U. after   12 cycles
 SCF Done:  E(RB3LYP) =  -418.143337576     A.U. after   11 cycles
 SCF Done:  E(RB3LYP) =  -418.143486079     A.U. after   12 cycles
 SCF Done:  E(RB3LYP) =  -418.143551953     A.U. after   12 cycles
 SCF Done:  E(RB3LYP) =  -418.143563462     A.U. after    9 cycles
 SCF Done:  E(RB3LYP) =  -418.143564376     A.U. after    8 cycles
 SCF Done:  E(RB3LYP) =  -418.143564444     A.U. after    7 cycles
 Optimization completed.
    -- Stationary point found.
 Normal termination of Gaussian 16 at Sun Jul  3 16:00:39 2022.

 ----------------------------------------------------------------------
 #N Geom=AllCheck Guess=TCheck SCRF=Check GenChk RB3LYP/6-31G(2df,p) Fr
 eq
 ----------------------------------------------------------------------

 Structure from the checkpoint file:  "CC1dCCdNCpNpdCO1.chk"
 -------------------
 Title Card Required
 -------------------
 Charge =  0 Multiplicity = 1

                         Standard orientation:
 ---------------------------------------------------------------------
 Center     Atomic      Atomic             Coordinates (Angstroms)
 Number     Number       Type             X           Y           Z
 ---------------------------------------------------------------------
      1          6           0       -2.849673   -0.526335    0.352315
      2          6           0       -1.488341   -0.016522    0.009584
      3          6           0       -1.021057    1.214458    0.282223
      4          6           0        0.275638    1.705318   -0.161199
      5          7           0        1.375683    1.062748   -0.326896
      6          6           0        1.467775   -0.298089   -0.006077
      7          7           0        2.713421   -0.612406    0.555600
      8          6           0        0.494934   -1.210836   -0.169020
      9          8           0       -0.750104   -0.905156   -0.735773
     10          1           0       -3.454192    0.234213    0.849760
     11          1           0       -2.772825   -1.404453    1.003641
     12          1           0       -3.361351   -0.852798   -0.560320
     13          1           0       -1.676393    1.918900    0.783762
     14          1           0        0.326123    2.778623   -0.363616
     15          1           0        3.418947    0.038365    0.236255
     16          1           0        3.005376   -1.570357    0.417902
     17          1           0        0.615769   -2.261607    0.070910
 ---------------------------------------------------------------------

 SCF Done:  E(RB3LYP) =  -418.143564444     A.U. after    1 cycles

 The electronic state is 1-A.
 Alpha  occ. eigenvalues --  -19.16314 -14.32404 -14.32110 -10.25761 -10.23433
 Alpha  occ. eigenvalues --  -10.23007 -10.21084 -10.19342 -10.18153  -1.06252
 Alpha  occ. eigenvalues --   -0.94192  -0.87704  -0.79922  -0.72361  -0.71079
 Alpha  occ. eigenvalues --   -0.64982  -0.57171  -0.55427  -0.50783  -0.47822
 Alpha  occ. eigenvalues --   -0.46366  -0.45902  -0.44522  -0.41890  -0.40782
 Alpha  occ. eigenvalues --   -0.40229  -0.40006  -0.35178  -0.31542  -0.30497
 Alpha  occ. eigenvalues --   -0.25427  -0.24027  -0.18794
 Alpha virt. eigenvalues --   -0.04548   0.04430   0.08916   0.10149   0.10245
 Alpha virt. eigenvalues --    0.12231   0.13264   0.15466   0.16604   0.17077
 Alpha virt. eigenvalues --    0.17364   0.18833   0.22792   0.24899   0.27209

 Mulliken charges:
               1
     1  C   -0.472656
     2  C    0.384472
     3  C   -0.222166
     4  C    0.011699
     5  N   -0.291322
     6  C    0.319210
     7  N   -0.561728
     8  C   -0.122281
     9  O   -0.259235
    10  H    0.130150
    11  H    0.144094
    12  H    0.146928
    13  H    0.099828
    14  H    0.109405
    15  H    0.249083
    16  H    0.242788
    17  H    0.091729
 Sum of Mulliken charges =  -0.00000

 Dipole moment (field-independent basis, Debye):
    X=             -0.9719    Y=             -0.5307    Z=              0.7170  Tot=              1.3192
 Quadrupole moment (field-independent basis, Debye-Ang):
   XX=            -43.7717   YY=            -47.6655   ZZ=            -56.1938
   XY=             -4.4840   XZ=             -2.3234   YZ=             -0.2360

  Exact polarizability: 105.277   2.595  88.828  -0.870   0.758  45.798
 Approx polarizability: 155.035  15.278 151.050   1.582   6.787  74.812

                      1                      2                      3
                      A                      A                      A
 Frequencies --     75.4658               154.7488               180.3400
 Red. masses --      3.9219                 2.5421                 1.4315
 Frc consts  --      0.0132                 0.0359                 0.0274
 IR Inten    --      3.0531                 3.9169                 0.9155

                      4                      5                      6
                      A                      A                      A
 Frequencies --    212.5710               283.1923               343.4163
 Red. masses --      2.0455                 1.4842                 3.5016
 Frc consts  --      0.0545                 0.0701                 0.2433
 IR Inten    --      3.4896                16.4491                 4.2037

                      7                      8                      9
                      A                      A                      A
 Frequencies --    352.9711               376.0310               437.5895
 Red. masses --      2.3342                 3.1299                 4.2822
 Frc consts  --      0.1713                 0.2608                 0.4831
 IR Inten    --     10.4194                 3.3421                 5.6128

                     10                     11                     12
                      A                      A                      A
 Frequencies --    488.0004               540.9420               655.2626
 Red. masses --      3.8380                 3.2808                 2.0963
 Frc consts  --      0.5385                 0.5656                 0.5303
 IR Inten    --     10.0718                 5.4475               109.6391

                     13                     14                     15
                      A                      A                      A
 Frequencies --    679.5334               727.8077               751.9862
 Red. masses --      3.5335                 1.7496                 2.3839
 Frc consts  --      0.9613                 0.5460                 0.7942
 IR Inten    --      0.6926                20.4829                73.7320

                     16                     17                     18
                      A                      A                      A
 Frequencies --    763.9834               833.8287               881.6931
 Red. masses --      2.7410                 1.4911                 4.4700
 Frc consts  --      0.9426                 0.6108                 2.0473
 IR Inten    --    108.0732                26.3465                16.5358

                     19                     20                     21
                      A                      A                      A
 Frequencies --    905.2723               944.7075               994.6979
 Red. masses --      4.9315                 1.7803                 1.6497
 Frc consts  --      2.3811                 0.9361                 0.9617
 IR Inten    --      4.3273                10.0175                 1.9962

                     22                     23                     24
                      A                      A                      A
 Frequencies --   1057.0503              1068.7913              1096.9941
 Red. masses --      1.6757                 1.7778                 2.0786
 Frc consts  --      1.1032                 1.1965                 1.4738
 IR Inten    --      8.3596                13.3019                48.8978

                     25                     26                     27
                      A                      A                      A
 Frequencies --   1178.2610              1190.1208              1278.1166
 Red. masses --      3.6917                 2.0103                 2.1292
 Frc consts  --      3.0197                 1.6776                 2.0493
 IR Inten    --     70.3560                19.3297                40.1524

                     28                     29                     30
                      A                      A                      A
 Frequencies --   1328.9284              1391.2085              1408.9702
 Red. masses --      1.6990                 1.4858                 1.3761
 Frc consts  --      1.7679                 1.6943                 1.6096
 IR Inten    --     12.3751                22.1481                11.6835

                     31                     32                     33
                      A                      A                      A
 Frequencies --   1435.6139              1467.7656              1478.6068
 Red. masses --      1.4426                 1.0461                 1.0748
 Frc consts  --      1.7517                 1.3278                 1.3844
 IR Inten    --     10.0812                 6.8568                14.9280

                     34                     35                     36
                      A                      A                      A
 Frequencies --   1629.1381              1648.5079              1691.1707
 Red. masses --      1.1541                 9.0626                 6.7791
 Frc consts  --      1.8047                14.5106                11.4234
 IR Inten    --     77.6220               170.5865                56.1845

                     37                     38                     39
                      A                      A                      A
 Frequencies --   1708.1037              3033.3200              3086.4098
 Red. masses --      6.6640                 1.0370                 1.0864
 Frc consts  --     11.4554                 5.6219                 6.0974
 IR Inten    --     46.7872                11.4710                39.1094

                     40                     41                     42
                      A                      A                      A
 Frequencies --   3087.4258              3136.4146              3177.9608
 Red. masses --      1.0986                 1.1007                 1.0910
 Frc consts  --      6.1702                 6.3794                 6.4918
 IR Inten    --      7.9330                11.0534                29.0508

                     43                     44                     45
                      A                      A                      A
 Frequencies --   3182.8458              3544.0933              3647.2645
 Red. masses --      1.0896                 1.0470                 1.0969
 Frc consts  --      6.5036                 7.7483                 8.5968
 IR Inten    --      8.9828                10.9825                14.7090

 - Thermochemistry -
 -------------------
 Temperature   298.150 Kelvin.  Pressure   1.00000 Atm.
 Atom     1 has atomic number  6 and mass  12.00000

 Molecular mass:   124.06366 amu.
 Principal axes and moments of inertia in atomic units:
                           1         2         3
     Eigenvalues --   539.887171359.443921752.62122
           X            0.99991  -0.01008  -0.00939
           Y            0.00999   0.99991  -0.00938
           Z            0.00949   0.00929   0.99991
 This molecule is an asymmetric top.
 Rotational symmetry number  1.
 Warning -- assumption of classical behavior for rotation
           may cause significant error
 Rotational temperatures (Kelvin)      0.16043     0.06371     0.04942
 Rotational constants (GHZ):           3.34281     1.32756     1.02974
 Zero-point vibrational energy     356111.1 (Joules/Mol)
                                   85.11259 (Kcal/Mol)
 Warning -- explicit consideration of  11 degrees of freedom as
           vibrations may cause significant error
 Vibrational temperatures:    108.58   222.65   259.47   305.84   407.45
          (Kelvin)            494.10   507.85   541.02   629.59   702.12
                              778.29   942.78   977.70  1047.15  1081.94
                             1099.20  1199.69  1268.56  1302.48  1359.22
                             1431.15  1520.86  1537.75  1578.33  1695.25
                             1712.32  1838.92  1912.03  2001.64  2027.19
                             2065.53  2111.79  2127.39  2343.97  2371.84
                             2433.22  2457.58  4364.27  4440.66  4442.12
                             4512.60  4572.38  4579.41  5099.16  5247.60

 Zero-point correction=                           0.135636 (Hartree/Particle)
 Thermal correction to Energy=                    0.144208
 Thermal correction to Enthalpy=                  0.145152
 Thermal correction to Gibbs Free Energy=         0.102597
 Sum of electronic and zero-point Energies=           -418.007929
 Sum of electronic and thermal Energies=              -417.999356
 Sum of electronic and thermal Enthalpies=            -417.998412
 Sum of electronic and thermal Free Energies=         -418.040967

                     E (Thermal)             CV                S
                      KCal/Mol        Cal/Mol-Kelvin    Cal/Mol-Kelvin
 Total                   90.492             32.438             89.565
 Electronic               0.000              0.000              0.000
 Translational            0.889              2.981             40.361
 Rotational               0.889              2.981             28.644
 Vibrational             88.715             26.476             20.561
 Vibration     1          0.599              1.965              4.005
 Vibration     2          0.620              1.897              2.613
 Vibration     3          0.629              1.866              2.325
 Vibration     4          0.644              1.822              2.021
 Vibration     5          0.682              1.705              1.514
 Vibration     6          0.722              1.589              1.196
 Vibration     7          0.729              1.569              1.153
 Vibration     8          0.747              1.521              1.055
 Vibration     9          0.798              1.388              0.834
 Vibration    10          0.844              1.277              0.689
 Vibration    11          0.896              1.160              0.563

                           ! Non-Optimized Parameters !
 Normal termination of Gaussian 16 at Sun Jul  3 16:26:44 2022.
