 Gaussian 16, Revision A.03,
 Gaussian 16:  ES64L-G16RevA.03 25-Dec-2016

 -----------------------------
 # opt freq b3lyp/6-31g(2df,p)
 -----------------------------

 -------------------
 Title Card Required
 -------------------
 Symbolic Z-matrix:
 Charge =  0 Multiplicity = 1

 SCF Done:  E(RB3LYP) =  -399.338287919     A.U. after   15 cycles
 SCF Done:  E(RB3LYP) =  -399.385150901     A.U. after   13 cycles
 SCF Done:  E(RB3LYP) =  -399.435756782     A.U. after   13 cycles
 SCF Done:  E(RB3LYP) =  -399.452136762     A.U. after   12 cycles
 SCF Done:  E(RB3LYP) =  -399.469222709     A.U. after   13 cycles
 SCF Done:  E(RB3LYP) =  -399.474255833     A.U. after   12 cycles
 SCF Done:  E(RB3LYP) =  -399.477353188     A.U. after   12 cycles
 SCF Done:  E(RB3LYP) =  -399.478421319     A.U. after   11 cycles
 SCF Done:  E(RB3LYP) =  -399.478980049     A.U. after   10 cycles
 SCF Done:  E(RB3LYP) =  -399.479416101     A.U. after   11 cycles
 SCF Done:  E(RB3LYP) =  -399.479600761     A.U. after   10 cycles
 SCF Done:  E(RB3LYP) =  -399.479676688     A.U. after   10 cycles
 SCF Done:  E(RB3LYP) =  -399.479680376     A.U. after    8 cycles
 SCF Done:  E(RB3LYP) =  -399.479681762     A.U. after    7 cycles
 SCF Done:  E(RB3LYP) =  -399.479681991     A.U. after    6 cycles
 SCF Done:  E(RB3LYP) =  -399.479682097     A.U. after    6 cycles
 SCF Done:  E(RB3LYP) =  -399.479682141     A.U. after    6 cycles
 Optimization completed.
    -- Stationary point found.
 Normal termination of Gaussian 16 at Sun Jul  3 19:29:34 2022.

 ----------------------------------------------------------------------
 #N Geom=AllCheck Guess=TCheck SCRF=Check GenChk RB3LYP/6-31G(2df,p) Fr
 eq
 ----------------------------------------------------------------------

 Structure from the checkpoint file:  "CC1dCCpNpN2CC12N.chk"
 -------------------
 Title Card Required
 -------------------
 Charge =  0 Multiplicity = 1

                         Standard orientation:
 ---------------------------------------------------------------------
 Center     Atomic      Atomic             Coordinates (Angstroms)
 Number     Number       Type             X           Y           Z
 ---------------------------------------------------------------------
      1          6           0       -2.030998    1.574252    0.050247
      2          6           0       -0.734930    0.830454    0.117156
      3          6           0        0.490973    1.314950    0.327086
      4          6           0        1.531822    0.219468    0.290360
      5          7           0        2.537584    0.476726   -0.722025
      6          7           0        0.762944   -1.040073    0.062261
      7          6           0       -0.153358   -1.400748    1.150261
      8          6           0       -0.666232   -0.666653   -0.041245
      9          7           0       -1.471910   -1.373802   -0.992713
     10          1           0       -1.880731    2.652972    0.136869
     11          1           0       -2.711246    1.258673    0.851926
     12          1           0       -2.552305    1.377623   -0.894371
     13          1           0        0.748900    2.351000    0.514086
     14          1           0        2.056080    0.124903    1.251162
     15          1           0        2.083203    0.538529   -1.629578
     16          1           0        3.166627   -0.320705   -0.773466
     17          1           0       -0.087575   -0.854726    2.089772
     18          1           0       -0.346532   -2.466877    1.236011
     19          1           0       -1.463191   -0.908739   -1.895865
     20          1           0       -2.437219   -1.422946   -0.682401
 ---------------------------------------------------------------------

 SCF Done:  E(RB3LYP) =  -399.479682141     A.U. after    1 cycles

 The electronic state is 1-A.
 Alpha  occ. eigenvalues --  -14.31602 -14.31598 -14.30159 -10.23734 -10.23036
 Alpha  occ. eigenvalues --  -10.20348 -10.19008 -10.18923 -10.17339  -0.97889
 Alpha  occ. eigenvalues --   -0.88429  -0.85600  -0.79339  -0.71711  -0.66609
 Alpha  occ. eigenvalues --   -0.61747  -0.56550  -0.54517  -0.49663  -0.48469
 Alpha  occ. eigenvalues --   -0.47350  -0.44747  -0.43608  -0.42267  -0.41435
 Alpha  occ. eigenvalues --   -0.40941  -0.36591  -0.35037  -0.33992  -0.31238
 Alpha  occ. eigenvalues --   -0.25992  -0.24482  -0.24215  -0.22331
 Alpha virt. eigenvalues --    0.01432   0.07533   0.10928   0.11280   0.12986
 Alpha virt. eigenvalues --    0.13434   0.13876   0.14749   0.15366   0.16474
 Alpha virt. eigenvalues --    0.17212   0.18538   0.18997   0.20733   0.22798

 Mulliken charges:
               1
     1  C   -0.504684
     2  C    0.282204
     3  C   -0.208605
     4  C    0.010803
     5  N   -0.508073
     6  N   -0.131743
     7  C   -0.260736
     8  C    0.209719
     9  N   -0.578648
    10  H    0.130424
    11  H    0.128505
    12  H    0.120405
    13  H    0.099151
    14  H    0.088135
    15  H    0.218393
    16  H    0.227142
    17  H    0.106977
    18  H    0.114570
    19  H    0.226222
    20  H    0.229839
 Sum of Mulliken charges =   0.00000

 Dipole moment (field-independent basis, Debye):
    X=             -2.1223    Y=              0.8933    Z=              0.2065  Tot=              2.3119
 Quadrupole moment (field-independent basis, Debye-Ang):
   XX=            -51.7012   YY=            -58.1601   ZZ=            -50.4947
   XY=             -2.3639   XZ=              1.0796   YZ=             -1.6833

  Exact polarizability:  96.536   3.013  78.909   1.987  -2.652  68.863
 Approx polarizability: 142.132   9.941 114.159   4.505  -3.462 106.464

                      1                      2                      3
                      A                      A                      A
 Frequencies --    132.6525               146.8453               170.4135
 Red. masses --      2.3740                 2.0446                 1.2348
 Frc consts  --      0.0246                 0.0260                 0.0211
 IR Inten    --      2.1109                 1.0699                 0.3653

                      4                      5                      6
                      A                      A                      A
 Frequencies --    218.3158               251.7770               280.5598
 Red. masses --      1.2702                 2.7399                 1.9646
 Frc consts  --      0.0357                 0.1023                 0.0911
 IR Inten    --     40.5427                 0.7443                13.7606

                      7                      8                      9
                      A                      A                      A
 Frequencies --    318.2880               359.4455               422.1582
 Red. masses --      1.2892                 3.1530                 2.5072
 Frc consts  --      0.0770                 0.2400                 0.2633
 IR Inten    --     36.3135                11.2982                 0.1720

                     10                     11                     12
                      A                      A                      A
 Frequencies --    461.0878               498.5835               579.5958
 Red. masses --      2.8611                 3.5563                 4.0191
 Frc consts  --      0.3584                 0.5209                 0.7955
 IR Inten    --      6.2570                 3.9890                 5.1615

                     13                     14                     15
                      A                      A                      A
 Frequencies --    633.7321               666.0083               739.5620
 Red. masses --      3.6532                 3.2771                 3.2319
 Frc consts  --      0.8644                 0.8564                 1.0415
 IR Inten    --      6.7823                 1.8456                83.9229

                     16                     17                     18
                      A                      A                      A
 Frequencies --    768.8475               797.8069               837.3149
 Red. masses --      2.1837                 2.5381                 1.4815
 Frc consts  --      0.7605                 0.9518                 0.6120
 IR Inten    --     39.1401                37.5732                85.3500

                     19                     20                     21
                      A                      A                      A
 Frequencies --    878.5206               896.9324               938.1974
 Red. masses --      1.8483                 1.6775                 2.0598
 Frc consts  --      0.8405                 0.7951                 1.0682
 IR Inten    --     36.4351               135.4711                 7.7514

                     22                     23                     24
                      A                      A                      A
 Frequencies --    985.0914              1002.2871              1039.8984
 Red. masses --      2.5974                 1.6270                 2.1649
 Frc consts  --      1.4850                 0.9630                 1.3793
 IR Inten    --     33.0089                 9.6026                40.7331

                     25                     26                     27
                      A                      A                      A
 Frequencies --   1064.4005              1094.6450              1126.8317
 Red. masses --      1.5525                 1.5818                 1.3562
 Frc consts  --      1.0363                 1.1167                 1.0146
 IR Inten    --      2.1394                 4.8072                 5.5149

                     28                     29                     30
                      A                      A                      A
 Frequencies --   1147.2589              1160.5623              1210.9139
 Red. masses --      2.1154                 1.8861                 1.7514
 Frc consts  --      1.6405                 1.4968                 1.5131
 IR Inten    --     33.3978                 5.6053                 8.3749

                     31                     32                     33
                      A                      A                      A
 Frequencies --   1232.4922              1264.0691              1314.8615
 Red. masses --      1.9660                 1.5242                 1.4135
 Frc consts  --      1.7596                 1.4349                 1.4398
 IR Inten    --     19.2420                 4.6239                 9.1017

                     34                     35                     36
                      A                      A                      A
 Frequencies --   1343.6798              1355.9711              1411.3147
 Red. masses --      3.1177                 3.9151                 1.2933
 Frc consts  --      3.3165                 4.2413                 1.5178
 IR Inten    --     12.5928                45.0073                 4.0100

                     37                     38                     39
                      A                      A                      A
 Frequencies --   1417.9501              1478.5501              1486.8309
 Red. masses --      1.3737                 1.0453                 1.2137
 Frc consts  --      1.6273                 1.3464                 1.5808
 IR Inten    --     21.6964                 8.6201                10.9417

                     40                     41                     42
                      A                      A                      A
 Frequencies --   1488.7931              1650.8632              1661.9600
 Red. masses --      1.0667                 1.1127                 1.0930
 Frc consts  --      1.3931                 1.7867                 1.7787
 IR Inten    --      4.1402                15.9374                26.8354

                     43                     44                     45
                      A                      A                      A
 Frequencies --   1712.0488              3016.4640              3019.4104
 Red. masses --      7.3536                 1.0832                 1.0394
 Frc consts  --     12.6994                 5.8073                 5.5829
 IR Inten    --      6.4776                31.0532                27.6329

                     46                     47                     48
                      A                      A                      A
 Frequencies --   3066.1295              3091.0729              3118.1615
 Red. masses --      1.0973                 1.0512                 1.0986
 Frc consts  --      6.0780                 5.9177                 6.2935
 IR Inten    --     16.8808                25.9309                15.5222

                     49                     50                     51
                      A                      A                      A
 Frequencies --   3184.1880              3198.2607              3479.2366
 Red. masses --      1.1186                 1.0949                 1.0488
 Frc consts  --      6.6824                 6.5984                 7.4804
 IR Inten    --     14.6197                11.1230                 0.5545

                     52                     53                     54
                      A                      A                      A
 Frequencies --   3490.9544              3558.3710              3573.6473
 Red. masses --      1.0483                 1.0919                 1.0931
 Frc consts  --      7.5270                 8.1455                 8.2248
 IR Inten    --      0.0700                 0.6026                 1.8161

 - Thermochemistry -
 -------------------
 Temperature   298.150 Kelvin.  Pressure   1.00000 Atm.
 Atom     1 has atomic number  6 and mass  12.00000

 Molecular mass:   125.09530 amu.
 Principal axes and moments of inertia in atomic units:
                           1         2         3
     Eigenvalues --   769.060131152.456851519.85568
           X            0.99926  -0.03820   0.00330
           Y            0.03823   0.99920  -0.01170
           Z           -0.00285   0.01182   0.99993
 This molecule is an asymmetric top.
 Rotational symmetry number  1.
 Warning -- assumption of classical behavior for rotation
           may cause significant error
 Rotational temperatures (Kelvin)      0.11262     0.07516     0.05699
 Rotational constants (GHZ):           2.34668     1.56599     1.18744
 Zero-point vibrational energy     451254.2 (Joules/Mol)
                                  107.85235 (Kcal/Mol)
 Warning -- explicit consideration of  12 degrees of freedom as
           vibrations may cause significant error
 Vibrational temperatures:    190.86   211.28   245.19   314.11   362.25
          (Kelvin)            403.66   457.95   517.16   607.39   663.40
                              717.35   833.91   911.80   958.24  1064.06
                             1106.20  1147.87  1204.71  1264.00  1290.49
                             1349.86  1417.33  1442.07  1496.18  1531.43
                             1574.95  1621.26  1650.65  1669.79  1742.24
                             1773.28  1818.71  1891.79  1933.26  1950.94
                             2030.57  2040.11  2127.30  2139.22  2142.04
                             2375.22  2391.19  2463.26  4340.02  4344.26
                             4411.48  4447.36  4486.34  4581.34  4601.58
                             5005.85  5022.70  5119.70  5141.68

 Zero-point correction=                           0.171874 (Hartree/Particle)
 Thermal correction to Energy=                    0.180883
 Thermal correction to Enthalpy=                  0.181827
 Thermal correction to Gibbs Free Energy=         0.138848
 Sum of electronic and zero-point Energies=           -399.307808
 Sum of electronic and thermal Energies=              -399.298799
 Sum of electronic and thermal Enthalpies=            -399.297855
 Sum of electronic and thermal Free Energies=         -399.340834

                     E (Thermal)             CV                S
                      KCal/Mol        Cal/Mol-Kelvin    Cal/Mol-Kelvin
 Total                  113.506             35.210             90.457
 Electronic               0.000              0.000              0.000
 Translational            0.889              2.981             40.385
 Rotational               0.889              2.981             28.690
 Vibrational            111.728             29.249             21.382
 Vibration     1          0.613              1.921              2.907
 Vibration     2          0.617              1.906              2.713
 Vibration     3          0.626              1.879              2.431
 Vibration     4          0.646              1.813              1.973
 Vibration     5          0.664              1.760              1.718
 Vibration     6          0.680              1.710              1.530
 Vibration     7          0.705              1.639              1.319
 Vibration     8          0.734              1.556              1.125
 Vibration     9          0.784              1.422              0.885
 Vibration    10          0.819              1.336              0.763
 Vibration    11          0.854              1.253              0.662
 Vibration    12          0.936              1.075              0.486

                           ! Non-Optimized Parameters !
 Normal termination of Gaussian 16 at Sun Jul  3 20:05:44 2022.
