 Gaussian 16, Revision A.03,
 Gaussian 16:  ES64L-G16RevA.03 25-Dec-2016

 -----------------------------
 # opt freq b3lyp/6-31g(2df,p)
 -----------------------------

 -------------------
 Title Card Required
 -------------------
 Symbolic Z-matrix:
 Charge =  0 Multiplicity = 1

 SCF Done:  E(RB3LYP) =  -364.018586869     A.U. after   14 cycles
 SCF Done:  E(RB3LYP) =  -364.027634603     A.U. after   12 cycles
 SCF Done:  E(RB3LYP) =  -364.028301369     A.U. after   11 cycles
 SCF Done:  E(RB3LYP) =  -364.028488855     A.U. after   11 cycles
 SCF Done:  E(RB3LYP) =  -364.028601227     A.U. after   11 cycles
 SCF Done:  E(RB3LYP) =  -364.028664889     A.U. after   11 cycles
 SCF Done:  E(RB3LYP) =  -364.028720700     A.U. after   11 cycles
 SCF Done:  E(RB3LYP) =  -364.028755683     A.U. after   10 cycles
 SCF Done:  E(RB3LYP) =  -364.028771328     A.U. after   10 cycles
 SCF Done:  E(RB3LYP) =  -364.028775956     A.U. after   10 cycles
 SCF Done:  E(RB3LYP) =  -364.028777218     A.U. after    8 cycles
 SCF Done:  E(RB3LYP) =  -364.028777595     A.U. after    7 cycles
 SCF Done:  E(RB3LYP) =  -364.028777748     A.U. after    7 cycles
 SCF Done:  E(RB3LYP) =  -364.028777819     A.U. after    7 cycles
 Optimization completed.
    -- Stationary point found.
 Normal termination of Gaussian 16 at Sun Jul  3 14:55:02 2022.

 ----------------------------------------------------------------------
 #N Geom=AllCheck Guess=TCheck SCRF=Check GenChk RB3LYP/6-31G(2df,p) Fr
 eq
 ----------------------------------------------------------------------

 Structure from the checkpoint file:  "CC1dCCpdNpCC1O.chk"
 -------------------
 Title Card Required
 -------------------
 Charge =  0 Multiplicity = 1

                         Standard orientation:
 ---------------------------------------------------------------------
 Center     Atomic      Atomic             Coordinates (Angstroms)
 Number     Number       Type             X           Y           Z
 ---------------------------------------------------------------------
      1          6           0        2.046411    1.397040    0.074102
      2          6           0        0.736498    0.683068    0.095953
      3          6           0       -0.487548    1.177768   -0.142735
      4          6           0       -1.530073    0.148735   -0.021504
      5          7           0       -2.796268    0.247171   -0.131009
      6          6           0       -0.821590   -1.163673    0.290972
      7          6           0        0.679610   -0.807779    0.403082
      8          8           0        1.539895   -1.565004   -0.443712
      9          1           0        1.949186    2.428674   -0.272091
     10          1           0        2.755141    0.866066   -0.570366
     11          1           0        2.494047    1.410161    1.076484
     12          1           0       -0.714042    2.210778   -0.388033
     13          1           0       -3.062064    1.215352   -0.330950
     14          1           0       -0.981175   -1.891217   -0.511318
     15          1           0       -1.224082   -1.611371    1.203049
     16          1           0        1.066101   -1.002768    1.410549
     17          1           0        1.231759   -1.446803   -1.349780
 ---------------------------------------------------------------------

 SCF Done:  E(RB3LYP) =  -364.028777819     A.U. after    1 cycles

 The electronic state is 1-A.
 Alpha  occ. eigenvalues --  -19.14463 -14.29996 -10.24211 -10.22656 -10.20843
 Alpha  occ. eigenvalues --  -10.19329 -10.19130 -10.18452  -1.02604  -0.90019
 Alpha  occ. eigenvalues --   -0.83116  -0.74986  -0.70340  -0.65262  -0.55964
 Alpha  occ. eigenvalues --   -0.54621  -0.50787  -0.47505  -0.45483  -0.44148
 Alpha  occ. eigenvalues --   -0.42257  -0.39840  -0.39290  -0.38121  -0.36963
 Alpha  occ. eigenvalues --   -0.33191  -0.32578  -0.27774  -0.25175  -0.24849
 Alpha virt. eigenvalues --   -0.03352   0.05691   0.08162   0.10776   0.10933
 Alpha virt. eigenvalues --    0.12126   0.13672   0.14783   0.16924   0.17337
 Alpha virt. eigenvalues --    0.20003   0.20729   0.22489   0.23326   0.25870

 Mulliken charges:
               1
     1  C   -0.490085
     2  C    0.286128
     3  C   -0.256542
     4  C    0.321270
     5  N   -0.506576
     6  C   -0.315765
     7  C    0.037846
     8  O   -0.426879
     9  H    0.126507
    10  H    0.144812
    11  H    0.137819
    12  H    0.097289
    13  H    0.211300
    14  H    0.125130
    15  H    0.130970
    16  H    0.098264
    17  H    0.278511
 Sum of Mulliken charges =  -0.00000

 Dipole moment (field-independent basis, Debye):
    X=              1.8123    Y=              1.8011    Z=             -0.4558  Tot=              2.5954
 Quadrupole moment (field-independent basis, Debye-Ang):
   XX=            -57.1287   YY=            -45.9394   ZZ=            -44.5354
   XY=              0.1320   XZ=              0.1505   YZ=             -0.0733

  Exact polarizability: 102.343  -2.356  71.069   4.049  -3.111  50.816
 Approx polarizability: 163.661  -9.926 100.034   9.226  -4.314  80.293

                      1                      2                      3
                      A                      A                      A
 Frequencies --     36.0436               140.9669               176.5169
 Red. masses --      2.9991                 1.5472                 1.6976
 Frc consts  --      0.0023                 0.0181                 0.0312
 IR Inten    --      2.9463                 0.1742                 1.1167

                      4                      5                      6
                      A                      A                      A
 Frequencies --    245.4941               301.9852               356.5767
 Red. masses --      3.1167                 2.1352                 2.0806
 Frc consts  --      0.1107                 0.1147                 0.1559
 IR Inten    --      0.3255                 7.4990                11.4395

                      7                      8                      9
                      A                      A                      A
 Frequencies --    370.3157               480.6599               520.4767
 Red. masses --      1.6794                 2.3727                 2.5903
 Frc consts  --      0.1357                 0.3230                 0.4134
 IR Inten    --     77.2004                 4.2754                 3.2820

                     10                     11                     12
                      A                      A                      A
 Frequencies --    576.4682               583.7454               661.8793
 Red. masses --      5.1182                 3.9566                 3.2577
 Frc consts  --      1.0021                 0.7944                 0.8408
 IR Inten    --      1.4813                 3.2930                10.2330

                     13                     14                     15
                      A                      A                      A
 Frequencies --    811.1409               845.4741               870.5279
 Red. masses --      3.3866                 1.1997                 2.9660
 Frc consts  --      1.3128                 0.5053                 1.3243
 IR Inten    --     16.8215                 6.8712                 3.1690

                     16                     17                     18
                      A                      A                      A
 Frequencies --    941.5829               946.8009               993.2593
 Red. masses --      1.9781                 1.4190                 2.0114
 Frc consts  --      1.0333                 0.7494                 1.1691
 IR Inten    --      1.6425                69.2653                 2.0921

                     19                     20                     21
                      A                      A                      A
 Frequencies --   1029.3353              1056.9203              1081.4139
 Red. masses --      1.9258                 1.6692                 2.6964
 Frc consts  --      1.2022                 1.0986                 1.8579
 IR Inten    --     24.9353                 4.8810                40.1582

                     22                     23                     24
                      A                      A                      A
 Frequencies --   1104.7107              1147.9302              1176.4917
 Red. masses --      1.8509                 1.1725                 1.8784
 Frc consts  --      1.3309                 0.9103                 1.5319
 IR Inten    --     51.2756                39.8735                 6.4302

                     25                     26                     27
                      A                      A                      A
 Frequencies --   1260.6152              1275.3959              1291.0163
 Red. masses --      1.6625                 1.3934                 1.3555
 Frc consts  --      1.5566                 1.3354                 1.3311
 IR Inten    --      1.1747                 9.4441                 7.4866

                     28                     29                     30
                      A                      A                      A
 Frequencies --   1341.1412              1365.0813              1406.5703
 Red. masses --      2.0991                 2.2256                 1.3186
 Frc consts  --      2.2244                 2.4436                 1.5371
 IR Inten    --      0.4236               107.9740                12.4664

                     31                     32                     33
                      A                      A                      A
 Frequencies --   1425.4681              1462.6063              1471.9661
 Red. masses --      1.2042                 1.0817                 1.0457
 Frc consts  --      1.4416                 1.3634                 1.3349
 IR Inten    --     57.8120                 3.4888                 7.3242

                     34                     35                     36
                      A                      A                      A
 Frequencies --   1483.6240              1688.5233              1722.3949
 Red. masses --      1.0664                 7.2529                 9.5292
 Frc consts  --      1.3830                12.1836                16.6561
 IR Inten    --     12.6237                17.6335               131.1066

                     37                     38                     39
                      A                      A                      A
 Frequencies --   3024.4576              3039.2556              3061.7829
 Red. masses --      1.0413                 1.0836                 1.0635
 Frc consts  --      5.6122                 5.8972                 5.8741
 IR Inten    --     14.0939                27.7050                 8.1921

                     40                     41                     42
                      A                      A                      A
 Frequencies --   3080.4350              3106.2400              3123.5345
 Red. masses --      1.0927                 1.1008                 1.1017
 Frc consts  --      6.1091                 6.2578                 6.3330
 IR Inten    --      9.9762                10.3034                13.8091

                     43                     44                     45
                      A                      A                      A
 Frequencies --   3180.7635              3423.3782              3790.4235
 Red. masses --      1.0945                 1.0741                 1.0660
 Frc consts  --      6.5244                 7.4166                 9.0240
 IR Inten    --     10.5195                 4.0077                13.8293

 - Thermochemistry -
 -------------------
 Temperature   298.150 Kelvin.  Pressure   1.00000 Atm.
 Atom     1 has atomic number  6 and mass  12.00000

 Molecular mass:   111.06841 amu.
 Principal axes and moments of inertia in atomic units:
                           1         2         3
     Eigenvalues --   529.826151056.899151485.58610
           X            0.99908   0.04293   0.00252
           Y           -0.04290   0.99902  -0.01076
           Z           -0.00298   0.01065   0.99994
 This molecule is an asymmetric top.
 Rotational symmetry number  1.
 Warning -- assumption of classical behavior for rotation
           may cause significant error
 Rotational temperatures (Kelvin)      0.16348     0.08195     0.05830
 Rotational constants (GHZ):           3.40629     1.70758     1.21483
 Zero-point vibrational energy     373721.7 (Joules/Mol)
                                   89.32163 (Kcal/Mol)
 Warning -- explicit consideration of  11 degrees of freedom as
           vibrations may cause significant error
 Vibrational temperatures:     51.86   202.82   253.97   353.21   434.49
          (Kelvin)            513.03   532.80   691.56   748.85   829.41
                              839.88   952.30  1167.05  1216.45  1252.50
                             1354.73  1362.24  1429.08  1480.98  1520.67
                             1555.91  1589.43  1651.62  1692.71  1813.74
                             1835.01  1857.48  1929.60  1964.05  2023.74
                             2050.93  2104.36  2117.83  2134.60  2429.41
                             2478.14  4351.52  4372.81  4405.22  4432.06
                             4469.19  4494.07  4576.41  4925.48  5453.57

 Zero-point correction=                           0.142343 (Hartree/Particle)
 Thermal correction to Energy=                    0.150395
 Thermal correction to Enthalpy=                  0.151339
 Thermal correction to Gibbs Free Energy=         0.109362
 Sum of electronic and zero-point Energies=           -363.886435
 Sum of electronic and thermal Energies=              -363.878383
 Sum of electronic and thermal Enthalpies=            -363.877439
 Sum of electronic and thermal Free Energies=         -363.919416

                     E (Thermal)             CV                S
                      KCal/Mol        Cal/Mol-Kelvin    Cal/Mol-Kelvin
 Total                   94.374             29.785             88.348
 Electronic               0.000              0.000              0.000
 Translational            0.889              2.981             40.031
 Rotational               0.889              2.981             28.211
 Vibrational             92.597             23.823             20.107
 Vibration     1          0.594              1.982              5.465
 Vibration     2          0.615              1.912              2.791
 Vibration     3          0.628              1.871              2.365
 Vibration     4          0.660              1.770              1.763
 Vibration     5          0.694              1.670              1.406
 Vibration     6          0.732              1.562              1.137
 Vibration     7          0.742              1.533              1.078
 Vibration     8          0.837              1.293              0.708
 Vibration     9          0.875              1.205              0.609
 Vibration    10          0.933              1.082              0.492
 Vibration    11          0.941              1.066              0.478

 Optimization completed.
    -- Stationary point found.
 Normal termination of Gaussian 16 at Sun Jul  3 15:15:23 2022.
