 Gaussian 16, Revision A.03,
 Gaussian 16:  ES64L-G16RevA.03 25-Dec-2016

 -----------------------------
 # opt freq b3lyp/6-31g(2df,p)
 -----------------------------

 -------------------
 Title Card Required
 -------------------
 Symbolic Z-matrix:
 Charge =  0 Multiplicity = 1

 SCF Done:  E(RB3LYP) =  -396.874135836     A.U. after   18 cycles
 SCF Done:  E(RB3LYP) =  -396.917427893     A.U. after   15 cycles
 SCF Done:  E(RB3LYP) =  -396.947036964     A.U. after   14 cycles
 SCF Done:  E(RB3LYP) =  -396.955096492     A.U. after   14 cycles
 SCF Done:  E(RB3LYP) =  -396.958655694     A.U. after   14 cycles
 SCF Done:  E(RB3LYP) =  -396.959715144     A.U. after   13 cycles
 SCF Done:  E(RB3LYP) =  -396.960126452     A.U. after   13 cycles
 SCF Done:  E(RB3LYP) =  -396.960237763     A.U. after   12 cycles
 SCF Done:  E(RB3LYP) =  -396.960282322     A.U. after   10 cycles
 SCF Done:  E(RB3LYP) =  -396.960290218     A.U. after    9 cycles
 SCF Done:  E(RB3LYP) =  -396.960291439     A.U. after    9 cycles
 Optimization completed.
    -- Stationary point found.
 Normal termination of Gaussian 16 at Sun Jul  3 23:02:39 2022.

 ----------------------------------------------------------------------
 #N Geom=AllCheck Guess=TCheck SCRF=Check GenChk RB3LYP/6-31G(2df,p) Fr
 eq
 ----------------------------------------------------------------------

 Structure from the checkpoint file:  "CC1dNN2CdCNdC1C2.chk"
 -------------------
 Title Card Required
 -------------------
 Charge =  0 Multiplicity = 1

                         Standard orientation:
 ---------------------------------------------------------------------
 Center     Atomic      Atomic             Coordinates (Angstroms)
 Number     Number       Type             X           Y           Z
 ---------------------------------------------------------------------
      1          6           0        2.611085    0.394387   -0.236569
      2          6           0        1.239253   -0.135518   -0.016126
      3          7           0        0.679328   -1.028193   -0.749476
      4          7           0       -0.824503   -1.178166   -0.213106
      5          6           0       -1.610090   -0.161730   -0.827280
      6          6           0       -1.561202    1.119633   -0.329908
      7          7           0       -0.405900    1.426525    0.348228
      8          6           0        0.164005    0.390682    0.913813
      9          6           0       -0.668754   -0.839869    1.195418
     10          1           0        3.242664    0.189179    0.634460
     11          1           0        2.564808    1.481042   -0.359085
     12          1           0        3.060348   -0.055035   -1.124039
     13          1           0       -2.109240   -0.418543   -1.753051
     14          1           0       -2.197312    1.925683   -0.677732
     15          1           0       -1.632471   -0.648019    1.664480
     16          1           0       -0.117064   -1.620984    1.719361
 ---------------------------------------------------------------------

 SCF Done:  E(RB3LYP) =  -396.960291439     A.U. after    1 cycles

 The electronic state is 1-A.
 Alpha  occ. eigenvalues --  -14.37581 -14.36181 -14.34246 -10.25105 -10.24130
 Alpha  occ. eigenvalues --  -10.22981 -10.21585 -10.21542 -10.20165  -1.01939
 Alpha  occ. eigenvalues --   -0.92240  -0.86804  -0.76782  -0.74066  -0.66803
 Alpha  occ. eigenvalues --   -0.64040  -0.55618  -0.52612  -0.51423  -0.47566
 Alpha  occ. eigenvalues --   -0.46140  -0.44666  -0.43770  -0.42051  -0.40527
 Alpha  occ. eigenvalues --   -0.38371  -0.35214  -0.31627  -0.30266  -0.28788
 Alpha  occ. eigenvalues --   -0.25068  -0.20943
 Alpha virt. eigenvalues --   -0.06810  -0.00641  -0.00399   0.08937   0.11280
 Alpha virt. eigenvalues --    0.12967   0.13083   0.14534   0.15383   0.16111
 Alpha virt. eigenvalues --    0.17379   0.18203   0.20401   0.22547   0.25010

 Mulliken charges:
               1
     1  C   -0.500530
     2  C    0.359661
     3  N   -0.228173
     4  N   -0.100158
     5  C   -0.066467
     6  C   -0.043632
     7  N   -0.151981
     8  C   -0.020048
     9  C   -0.195965
    10  H    0.144949
    11  H    0.162540
    12  H    0.149999
    13  H    0.125311
    14  H    0.118293
    15  H    0.127984
    16  H    0.118215
 Sum of Mulliken charges =  -0.00000

 Dipole moment (field-independent basis, Debye):
    X=              0.2016    Y=              0.7950    Z=              1.0006  Tot=              1.2938
 Quadrupole moment (field-independent basis, Debye-Ang):
   XX=            -44.7623   YY=            -56.7380   ZZ=            -50.8566
   XY=             -0.4378   XZ=              1.6670   YZ=             -3.8280

  Exact polarizability:  93.647  -2.132  73.049   8.043   1.882  66.988
 Approx polarizability: 151.820   2.248 151.638  29.222  23.523 128.707

                      1                      2                      3
                      A                      A                      A
 Frequencies --    151.9496               171.3801               256.9503
 Red. masses --      3.1257                 1.0439                 3.0317
 Frc consts  --      0.0425                 0.0181                 0.1179
 IR Inten    --      3.7409                 0.3625                 5.9312

                      4                      5                      6
                      A                      A                      A
 Frequencies --    333.0672               389.9328               458.2635
 Red. masses --      4.8866                 3.0964                 4.0398
 Frc consts  --      0.3194                 0.2774                 0.4999
 IR Inten    --      2.2359                 2.3044                21.3254

                      7                      8                      9
                      A                      A                      A
 Frequencies --    474.9645               526.4457               584.0758
 Red. masses --      2.5110                 4.4226                 4.5217
 Frc consts  --      0.3337                 0.7222                 0.9089
 IR Inten    --      3.2349                 6.1557                23.1786

                     10                     11                     12
                      A                      A                      A
 Frequencies --    633.4704               666.1114               705.2142
 Red. masses --      4.4387                 5.2373                 6.1876
 Frc consts  --      1.0495                 1.3692                 1.8131
 IR Inten    --      4.7796                 1.9431                16.3194

                     13                     14                     15
                      A                      A                      A
 Frequencies --    744.1007               789.2296               827.1092
 Red. masses --      2.7364                 2.6285                 3.5603
 Frc consts  --      0.8927                 0.9646                 1.4350
 IR Inten    --     19.6572                28.2992                42.6523

                     16                     17                     18
                      A                      A                      A
 Frequencies --    911.8984               937.8125               976.3982
 Red. masses --      1.9551                 2.1051                 3.1429
 Frc consts  --      0.9579                 1.0908                 1.7653
 IR Inten    --     24.8538                 0.9542                 7.0235

                     19                     20                     21
                      A                      A                      A
 Frequencies --   1025.8914              1050.9123              1082.4845
 Red. masses --      1.7419                 1.6340                 2.1533
 Frc consts  --      1.0802                 1.0632                 1.4866
 IR Inten    --     11.0042                 3.2298                 4.0873

                     22                     23                     24
                      A                      A                      A
 Frequencies --   1101.8391              1143.2802              1202.9731
 Red. masses --      2.5123                 2.4812                 1.4460
 Frc consts  --      1.7971                 1.9108                 1.2329
 IR Inten    --     16.4139                 1.8770                 3.6420

                     25                     26                     27
                      A                      A                      A
 Frequencies --   1242.7165              1281.7437              1307.1737
 Red. masses --      1.9451                 1.6298                 2.3507
 Frc consts  --      1.7698                 1.5775                 2.3665
 IR Inten    --      2.7160                15.3141                11.9350

                     28                     29                     30
                      A                      A                      A
 Frequencies --   1372.3973              1402.1336              1423.9110
 Red. masses --      1.6776                 1.4058                 4.4803
 Frc consts  --      1.8617                 1.6283                 5.3520
 IR Inten    --      3.6480                 9.4256                19.2790

                     31                     32                     33
                      A                      A                      A
 Frequencies --   1467.6504              1475.1395              1481.3600
 Red. masses --      1.0889                 1.0450                 1.1432
 Frc consts  --      1.3819                 1.3398                 1.4781
 IR Inten    --     13.1576                 6.8264                 7.2731

                     34                     35                     36
                      A                      A                      A
 Frequencies --   1519.2691              1624.6027              3042.1067
 Red. masses --      4.4834                 7.6950                 1.0360
 Frc consts  --      6.0972                11.9662                 5.6488
 IR Inten    --     22.1684                20.6098                 9.0465

                     37                     38                     39
                      A                      A                      A
 Frequencies --   3089.1264              3104.6785              3142.6577
 Red. masses --      1.0575                 1.0985                 1.1022
 Frc consts  --      5.9456                 6.2383                 6.4138
 IR Inten    --     24.5950                 4.3801                 5.8161

                     40                     41                     42
                      A                      A                      A
 Frequencies --   3160.0322              3193.9797              3216.5522
 Red. masses --      1.1101                 1.0878                 1.0961
 Frc consts  --      6.5314                 6.5381                 6.6816
 IR Inten    --      5.9792                 9.7195                 9.5200

 - Thermochemistry -
 -------------------
 Temperature   298.150 Kelvin.  Pressure   1.00000 Atm.
 Atom     1 has atomic number  6 and mass  12.00000

 Molecular mass:   121.06400 amu.
 Principal axes and moments of inertia in atomic units:
                           1         2         3
     Eigenvalues --   565.553781004.982631155.16161
           X            0.99985   0.01730  -0.00167
           Y           -0.01738   0.99336  -0.11375
           Z           -0.00031   0.11377   0.99351
 This molecule is an asymmetric top.
 Rotational symmetry number  1.
 Warning -- assumption of classical behavior for rotation
           may cause significant error
 Rotational temperatures (Kelvin)      0.15315     0.08618     0.07498
 Rotational constants (GHZ):           3.19110     1.79579     1.56233
 Zero-point vibrational energy     327136.7 (Joules/Mol)
                                   78.18755 (Kcal/Mol)
 Warning -- explicit consideration of   9 degrees of freedom as
           vibrations may cause significant error
 Vibrational temperatures:    218.62   246.58   369.69   479.21   561.03
          (Kelvin)            659.34   683.37   757.44   840.35   911.42
                              958.39  1014.65  1070.59  1135.53  1190.03
                             1312.02  1349.30  1404.82  1476.03  1512.03
                             1557.45  1585.30  1644.93  1730.81  1787.99
                             1844.14  1880.73  1974.57  2017.36  2048.69
                             2111.62  2122.40  2131.35  2185.89  2337.44
                             4376.91  4444.56  4466.94  4521.58  4546.58
                             4595.42  4627.90

 Zero-point correction=                           0.124600 (Hartree/Particle)
 Thermal correction to Energy=                    0.131733
 Thermal correction to Enthalpy=                  0.132678
 Thermal correction to Gibbs Free Energy=         0.093492
 Sum of electronic and zero-point Energies=           -396.835692
 Sum of electronic and thermal Energies=              -396.828558
 Sum of electronic and thermal Enthalpies=            -396.827614
 Sum of electronic and thermal Free Energies=         -396.866799

                     E (Thermal)             CV                S
                      KCal/Mol        Cal/Mol-Kelvin    Cal/Mol-Kelvin
 Total                   82.664             28.395             82.473
 Electronic               0.000              0.000              0.000
 Translational            0.889              2.981             40.288
 Rotational               0.889              2.981             27.976
 Vibrational             80.887             22.433             14.209
 Vibration     1          0.619              1.901              2.648
 Vibration     2          0.626              1.878              2.420
 Vibration     3          0.667              1.751              1.682
 Vibration     4          0.715              1.609              1.245
 Vibration     5          0.758              1.492              1.000
 Vibration     6          0.816              1.343              0.771
 Vibration     7          0.832              1.306              0.724
 Vibration     8          0.881              1.191              0.595
 Vibration     9          0.941              1.066              0.478

 Optimization completed.
    -- Stationary point found.
 Normal termination of Gaussian 16 at Sun Jul  3 23:26:31 2022.
