 Gaussian 16, Revision A.03,
 Gaussian 16:  ES64L-G16RevA.03 25-Dec-2016

 -----------------------------
 # opt freq b3lyp/6-31g(2df,p)
 -----------------------------

 -------------------
 Title Card Required
 -------------------
 Symbolic Z-matrix:
 Charge =  0 Multiplicity = 1

 SCF Done:  E(RB3LYP) =  -234.664607639     A.U. after   13 cycles
 SCF Done:  E(RB3LYP) =  -234.666649392     A.U. after   10 cycles
 SCF Done:  E(RB3LYP) =  -234.666700217     A.U. after    8 cycles
 SCF Done:  E(RB3LYP) =  -234.666704083     A.U. after    7 cycles
 SCF Done:  E(RB3LYP) =  -234.666704403     A.U. after    6 cycles
 SCF Done:  E(RB3LYP) =  -234.666704500     A.U. after    6 cycles
 SCF Done:  E(RB3LYP) =  -234.666704555     A.U. after    6 cycles
 Optimization completed.
    -- Stationary point found.
 Normal termination of Gaussian 16 at Thu Aug  4 00:56:57 2022.

 ----------------------------------------------------------------------
 #N Geom=AllCheck Guess=TCheck SCRF=Check GenChk RB3LYP/6-31G(2df,p) Fr
 eq
 ----------------------------------------------------------------------

 Structure from the checkpoint file:  "CC1dCCCC1.chk"
 -------------------
 Title Card Required
 -------------------
 Charge =  0 Multiplicity = 1

                         Standard orientation:
 ---------------------------------------------------------------------
 Center     Atomic      Atomic             Coordinates (Angstroms)
 Number     Number       Type             X           Y           Z
 ---------------------------------------------------------------------
      1          6           0       -2.252298    0.032388   -0.038270
      2          6           0       -0.757312    0.074549   -0.001648
      3          6           0        0.024935    1.155909   -0.022395
      4          6           0        1.492697    0.820654    0.083365
      5          6           0        1.516612   -0.712866   -0.151564
      6          6           0        0.069211   -1.191033    0.121688
      7          1           0       -2.685192    1.034262   -0.106863
      8          1           0       -2.657567   -0.451598    0.860183
      9          1           0       -2.613126   -0.554335   -0.893047
     10          1           0       -0.339792    2.177341   -0.067732
     11          1           0        1.883457    1.088274    1.076134
     12          1           0        2.111508    1.362913   -0.641200
     13          1           0        2.258030   -1.226042    0.466246
     14          1           0        1.774059   -0.914707   -1.196161
     15          1           0       -0.040897   -1.618451    1.129624
     16          1           0       -0.253546   -1.975261   -0.574238
 ---------------------------------------------------------------------

 SCF Done:  E(RB3LYP) =  -234.666704555     A.U. after    1 cycles

 The electronic state is 1-A.
 Alpha  occ. eigenvalues --  -10.17635 -10.17608 -10.17517 -10.17469 -10.17418
 Alpha  occ. eigenvalues --  -10.16428  -0.83438  -0.73917  -0.69631  -0.65420
 Alpha  occ. eigenvalues --   -0.56686  -0.50696  -0.46408  -0.46020  -0.41072
 Alpha  occ. eigenvalues --   -0.40608  -0.38417  -0.35684  -0.33518  -0.33267
 Alpha  occ. eigenvalues --   -0.33080  -0.32296  -0.22380
 Alpha virt. eigenvalues --    0.03698   0.09662   0.11692   0.12733   0.14489
 Alpha virt. eigenvalues --    0.15882   0.17769   0.17844   0.18215   0.19787
 Alpha virt. eigenvalues --    0.19978   0.22487   0.23316   0.24400   0.28988

 Mulliken charges:
               1
     1  C   -0.491147
     2  C    0.346851
     3  C   -0.155844
     4  C   -0.241591
     5  C   -0.201355
     6  C   -0.286690
     7  H    0.120283
     8  H    0.121904
     9  H    0.121544
    10  H    0.078053
    11  H    0.100237
    12  H    0.097317
    13  H    0.093565
    14  H    0.102619
    15  H    0.099100
    16  H    0.095153
 Sum of Mulliken charges =  -0.00000

 Dipole moment (field-independent basis, Debye):
    X=             -0.1538    Y=             -0.1709    Z=              0.0417  Tot=              0.2337
 Quadrupole moment (field-independent basis, Debye-Ang):
   XX=            -37.2997   YY=            -37.3956   ZZ=            -38.2735
   XY=              0.1581   XZ=              0.0537   YZ=             -0.0503

  Exact polarizability:  73.611   5.612  66.640   0.442  -0.584  47.544
 Approx polarizability:  96.040  14.061 100.610   0.726  -1.236  72.388

                      1                      2                      3
                      A                      A                      A
 Frequencies --    130.3703               184.6063               241.2011
 Red. masses --      1.6347                 1.1238                 1.9367
 Frc consts  --      0.0164                 0.0226                 0.0664
 IR Inten    --      0.0574                 0.5026                 1.4717

                      4                      5                      6
                      A                      A                      A
 Frequencies --    318.3257               446.2326               579.1277
 Red. masses --      2.3726                 2.0524                 3.3663
 Frc consts  --      0.1416                 0.2408                 0.6652
 IR Inten    --      0.5654                 2.2463                 0.1331

                      7                      8                      9
                      A                      A                      A
 Frequencies --    657.9712               803.9561               840.2161
 Red. masses --      2.0113                 1.8508                 1.3079
 Frc consts  --      0.5130                 0.7048                 0.5440
 IR Inten    --      1.3780                 4.7211                 5.3286

                     10                     11                     12
                      A                      A                      A
 Frequencies --    874.6777               900.0654               916.4882
 Red. masses --      2.8375                 1.7101                 2.0908
 Frc consts  --      1.2790                 0.8163                 1.0347
 IR Inten    --      0.4071                 0.7449                 0.3619

                     13                     14                     15
                      A                      A                      A
 Frequencies --    940.2507              1025.9301              1031.2954
 Red. masses --      1.9870                 1.4938                 1.4418
 Frc consts  --      1.0350                 0.9263                 0.9035
 IR Inten    --      1.2731                 3.9041                 5.4846

                     16                     17                     18
                      A                      A                      A
 Frequencies --   1040.7794              1092.6627              1153.0967
 Red. masses --      1.9587                 1.6676                 1.2649
 Frc consts  --      1.2501                 1.1731                 0.9909
 IR Inten    --      3.0781                 0.6104                 1.0564

                     19                     20                     21
                      A                      A                      A
 Frequencies --   1171.7592              1230.3922              1247.9663
 Red. masses --      1.7702                 1.2314                 1.6092
 Frc consts  --      1.4320                 1.0983                 1.4766
 IR Inten    --      1.2074                 1.0975                 1.8998

                     22                     23                     24
                      A                      A                      A
 Frequencies --   1286.1484              1319.6991              1328.9290
 Red. masses --      1.3936                 1.3552                 1.6107
 Frc consts  --      1.3582                 1.3906                 1.6759
 IR Inten    --      0.7577                 3.1105                 0.3810

                     25                     26                     27
                      A                      A                      A
 Frequencies --   1362.2201              1414.0880              1479.5718
 Red. masses --      1.8268                 1.2943                 1.0451
 Frc consts  --      1.9972                 1.5249                 1.3480
 IR Inten    --      0.8161                 0.4613                 6.3844

                     28                     29                     30
                      A                      A                      A
 Frequencies --   1483.8395              1487.7703              1491.1559
 Red. masses --      1.0801                 1.0816                 1.0632
 Frc consts  --      1.4011                 1.4105                 1.3929
 IR Inten    --      0.2261                 1.5639                 3.8134

                     31                     32                     33
                      A                      A                      A
 Frequencies --   1507.6235              1724.7647              2995.5761
 Red. masses --      1.1043                 6.7113                 1.0680
 Frc consts  --      1.4788                11.7630                 5.6466
 IR Inten    --      0.3431                 2.4255                36.7510

                     34                     35                     36
                      A                      A                      A
 Frequencies --   2998.1314              3012.9035              3035.5758
 Red. masses --      1.0698                 1.0392                 1.0858
 Frc consts  --      5.6655                 5.5579                 5.8950
 IR Inten    --     52.5828                41.1162                10.8574

                     37                     38                     39
                      A                      A                      A
 Frequencies --   3043.0808              3056.4315              3058.3962
 Red. masses --      1.0899                 1.0979                 1.0694
 Frc consts  --      5.9464                 6.0428                 5.8938
 IR Inten    --     33.2012                19.0861                62.0636

                     40                     41                     42
                      A                      A                      A
 Frequencies --   3098.1401              3106.6414              3178.7926
 Red. masses --      1.1037                 1.0987                 1.0933
 Frc consts  --      6.2416                 6.2477                 6.5088
 IR Inten    --     41.4464                22.1852                19.2456

 - Thermochemistry -
 -------------------
 Temperature   298.150 Kelvin.  Pressure   1.00000 Atm.
 Atom     1 has atomic number  6 and mass  12.00000

 Molecular mass:    82.07825 amu.
 Principal axes and moments of inertia in atomic units:
                           1         2         3
     Eigenvalues --   259.45486 596.26947 805.82334
           X            1.00000   0.00255   0.00039
           Y           -0.00255   1.00000  -0.00044
           Z           -0.00039   0.00044   1.00000
 This molecule is an asymmetric top.
 Rotational symmetry number  1.
 Rotational temperatures (Kelvin)      0.33383     0.14526     0.10749
 Rotational constants (GHZ):           6.95590     3.02672     2.23962
 Zero-point vibrational energy     378599.2 (Joules/Mol)
                                   90.48739 (Kcal/Mol)
 Warning -- explicit consideration of   6 degrees of freedom as
           vibrations may cause significant error
 Vibrational temperatures:    187.57   265.61   347.03   458.00   642.03
          (Kelvin)            833.24   946.67  1156.71  1208.88  1258.47
                             1294.99  1318.62  1352.81  1476.08  1483.80
                             1497.45  1572.10  1659.05  1685.90  1770.26
                             1795.55  1850.48  1898.75  1912.03  1959.93
                             2034.56  2128.77  2134.91  2140.57  2145.44
                             2169.13  2481.55  4309.97  4313.64  4334.90
                             4367.52  4378.31  4397.52  4400.35  4457.53
                             4469.76  4573.57

 Zero-point correction=                           0.144201 (Hartree/Particle)
 Thermal correction to Energy=                    0.150384
 Thermal correction to Enthalpy=                  0.151329
 Thermal correction to Gibbs Free Energy=         0.114731
 Sum of electronic and zero-point Energies=           -234.522504
 Sum of electronic and thermal Energies=              -234.516320
 Sum of electronic and thermal Enthalpies=            -234.515376
 Sum of electronic and thermal Free Energies=         -234.551974

                     E (Thermal)             CV                S
                      KCal/Mol        Cal/Mol-Kelvin    Cal/Mol-Kelvin
 Total                   94.368             22.921             77.027
 Electronic               0.000              0.000              0.000
 Translational            0.889              2.981             39.129
 Rotational               0.889              2.981             26.325
 Vibrational             92.590             16.959             11.573
 Vibration     1          0.612              1.923              2.941
 Vibration     2          0.631              1.861              2.281
 Vibration     3          0.658              1.777              1.794
 Vibration     4          0.705              1.639              1.319
 Vibration     5          0.805              1.369              0.807
 Vibration     6          0.936              1.076              0.487

                           ! Non-Optimized Parameters !
 Normal termination of Gaussian 16 at Thu Aug  4 01:10:17 2022.
