 Gaussian 16, Revision A.03,
 Gaussian 16:  ES64L-G16RevA.03 25-Dec-2016

 -----------------------------
 # opt freq b3lyp/6-31g(2df,p)
 -----------------------------

 -------------------
 Title Card Required
 -------------------
 Symbolic Z-matrix:
 Charge =  0 Multiplicity = 1

 SCF Done:  E(RB3LYP) =  -411.720503681     A.U. after   16 cycles
 SCF Done:  E(RB3LYP) =  -411.753407179     A.U. after   14 cycles
 SCF Done:  E(RB3LYP) =  -411.770864128     A.U. after   15 cycles
 SCF Done:  E(RB3LYP) =  -411.773448547     A.U. after   13 cycles
 SCF Done:  E(RB3LYP) =  -411.775154350     A.U. after   13 cycles
 SCF Done:  E(RB3LYP) =  -411.775904298     A.U. after   13 cycles
 SCF Done:  E(RB3LYP) =  -411.776199335     A.U. after   12 cycles
 SCF Done:  E(RB3LYP) =  -411.776305125     A.U. after   12 cycles
 SCF Done:  E(RB3LYP) =  -411.776328358     A.U. after   10 cycles
 SCF Done:  E(RB3LYP) =  -411.776338400     A.U. after    9 cycles
 SCF Done:  E(RB3LYP) =  -411.776340612     A.U. after    9 cycles
 SCF Done:  E(RB3LYP) =  -411.776341129     A.U. after    8 cycles
 Optimization completed.
    -- Stationary point found.
 Normal termination of Gaussian 16 at Sun Jul  3 15:50:41 2022.

 ----------------------------------------------------------------------
 #N Geom=AllCheck Guess=TCheck SCRF=Check GenChk RB3LYP/6-31G(2df,p) Fr
 eq
 ----------------------------------------------------------------------

 Structure from the checkpoint file:  "CC1dCc2nnnnc21.chk"
 -------------------
 Title Card Required
 -------------------
 Charge =  0 Multiplicity = 1

                         Standard orientation:
 ---------------------------------------------------------------------
 Center     Atomic      Atomic             Coordinates (Angstroms)
 Number     Number       Type             X           Y           Z
 ---------------------------------------------------------------------
      1          6           0       -2.923145   -0.584263   -0.000321
      2          6           0       -1.599651    0.075475    0.000252
      3          6           0       -1.146612    1.366179    0.000275
      4          6           0        0.279791    0.926763    0.000302
      5          7           0        1.494716    1.297432   -0.000524
      6          7           0        2.378905    0.103819   -0.000122
      7          7           0        1.986205   -1.070149    0.000147
      8          7           0        0.549238   -1.479508   -0.000035
      9          6           0       -0.182699   -0.445137    0.000343
     10          1           0       -3.024877   -1.232326    0.877994
     11          1           0       -3.023465   -1.233097   -0.878263
     12          1           0       -3.737480    0.143403   -0.001324
     13          1           0       -1.643742    2.326759    0.000222
 ---------------------------------------------------------------------

 SCF Done:  E(RB3LYP) =  -411.776341129     A.U. after    1 cycles

 The electronic state is 1-A.
 Alpha  occ. eigenvalues --  -14.41181 -14.41131 -14.37357 -14.37088 -10.26804
 Alpha  occ. eigenvalues --  -10.26417 -10.26335 -10.25302 -10.22798  -1.07691
 Alpha  occ. eigenvalues --   -0.95288  -0.93617  -0.86764  -0.77629  -0.68589
 Alpha  occ. eigenvalues --   -0.64527  -0.58927  -0.56404  -0.50210  -0.48093
 Alpha  occ. eigenvalues --   -0.47449  -0.45165  -0.43040  -0.41730  -0.38780
 Alpha  occ. eigenvalues --   -0.37207  -0.34867  -0.34633  -0.27665  -0.26660
 Alpha  occ. eigenvalues --   -0.25691
 Alpha virt. eigenvalues --   -0.09938  -0.05123  -0.01633   0.05290   0.08780
 Alpha virt. eigenvalues --    0.10504   0.11668   0.11716   0.13868   0.16320
 Alpha virt. eigenvalues --    0.18515   0.20494   0.23843   0.26148   0.30621

 Mulliken charges:
               1
     1  C   -0.513491
     2  C    0.285606
     3  C   -0.328606
     4  C    0.420005
     5  N   -0.348677
     6  N   -0.052497
     7  N   -0.059252
     8  N   -0.353528
     9  C    0.313772
    10  H    0.167139
    11  H    0.167146
    12  H    0.148885
    13  H    0.153498
 Sum of Mulliken charges =  -0.00000

 Dipole moment (field-independent basis, Debye):
    X=             -6.5459    Y=              1.3608    Z=              0.0008  Tot=              6.6858
 Quadrupole moment (field-independent basis, Debye-Ang):
   XX=            -51.5679   YY=            -54.3032   ZZ=            -48.9923
   XY=             -0.7088   XZ=              0.0014   YZ=              0.0020

  Exact polarizability: 104.552  -0.693  78.097  -0.005  -0.001  38.570
 Approx polarizability: 172.780   1.760 161.725  -0.023  -0.004  64.097

                      1                      2                      3
                      A                      A                      A
 Frequencies --    133.4781               147.1822               183.4912
 Red. masses --      3.2562                 1.1538                12.5597
 Frc consts  --      0.0342                 0.0147                 0.2492
 IR Inten    --      0.1189                 0.9259                 0.7247

                      4                      5                      6
                      A                      A                      A
 Frequencies --    215.5705               279.6332               441.8335
 Red. masses --      3.3389                 3.6641                12.6465
 Frc consts  --      0.0914                 0.1688                 1.4546
 IR Inten    --      0.2364                 0.0214                17.4906

                      7                      8                      9
                      A                      A                      A
 Frequencies --    456.9762               491.5414               533.3913
 Red. masses --      4.4721                 4.5951                 6.1692
 Frc consts  --      0.5502                 0.6541                 1.0341
 IR Inten    --      5.9377                 4.3610                 2.6822

                     10                     11                     12
                      A                      A                      A
 Frequencies --    619.7529               648.3306               737.9412
 Red. masses --      6.6918                 6.9546                 6.5261
 Frc consts  --      1.5144                 1.7223                 2.0939
 IR Inten    --      1.9298                 1.0865                 6.2596

                     13                     14                     15
                      A                      A                      A
 Frequencies --    814.0553               834.9979               869.8724
 Red. masses --     10.1664                 7.1177                 1.4261
 Frc consts  --      3.9694                 2.9239                 0.6358
 IR Inten    --      9.1667                 0.8679                19.3964

                     16                     17                     18
                      A                      A                      A
 Frequencies --    890.2335              1000.2486              1049.4895
 Red. masses --      3.8731                 2.0776                 1.6303
 Frc consts  --      1.8085                 1.2247                 1.0579
 IR Inten    --      2.2797                 6.5592                 2.7733

                     19                     20                     21
                      A                      A                      A
 Frequencies --   1095.5357              1167.2093              1222.5294
 Red. masses --      4.7883                 1.6925                11.9634
 Frc consts  --      3.3860                 1.3586                10.5347
 IR Inten    --      3.7293                 5.8318                27.6328

                     22                     23                     24
                      A                      A                      A
 Frequencies --   1275.9073              1406.4289              1450.1195
 Red. masses --      3.3565                 1.2590                 5.3816
 Frc consts  --      3.2194                 1.4672                 6.6676
 IR Inten    --     11.3447                 3.8007                60.6467

                     25                     26                     27
                      A                      A                      A
 Frequencies --   1465.6048              1471.5441              1612.4564
 Red. masses --      1.0431                 1.2376                 6.2525
 Frc consts  --      1.3201                 1.5790                 9.5781
 IR Inten    --      8.5314                23.8610                56.5422

                     28                     29                     30
                      A                      A                      A
 Frequencies --   1714.7679              1776.0380              3033.5868
 Red. masses --     12.2159                12.1589                 1.0369
 Frc consts  --     21.1635                22.5970                 5.6222
 IR Inten    --      5.6493                68.5853                 2.8378

                     31                     32                     33
                      A                      A                      A
 Frequencies --   3086.8291              3132.4757              3234.9649
 Red. masses --      1.0978                 1.1013                 1.1006
 Frc consts  --      6.1632                 6.3669                 6.7859
 IR Inten    --      2.2774                 7.4870                 1.1267

 - Thermochemistry -
 -------------------
 Temperature   298.150 Kelvin.  Pressure   1.00000 Atm.
 Atom     1 has atomic number  6 and mass  12.00000

 Molecular mass:   120.04360 amu.
 Principal axes and moments of inertia in atomic units:
                           1         2         3
     Eigenvalues --   427.499031271.702841688.10086
           X            0.99992   0.01300   0.00001
           Y           -0.01300   0.99992   0.00001
           Z           -0.00001  -0.00001   1.00000
 This molecule is an asymmetric top.
 Rotational symmetry number  1.
 Rotational temperatures (Kelvin)      0.20261     0.06811     0.05131
 Rotational constants (GHZ):           4.22163     1.41915     1.06910
 Zero-point vibrational energy     230245.4 (Joules/Mol)
                                   55.02996 (Kcal/Mol)
 Warning -- explicit consideration of  10 degrees of freedom as
           vibrations may cause significant error
 Vibrational temperatures:    192.05   211.76   264.00   310.16   402.33
          (Kelvin)            635.70   657.49   707.22   767.43   891.69
                              932.80  1061.73  1171.24  1201.38  1251.55
                             1280.85  1439.13  1509.98  1576.23  1679.35
                             1758.95  1835.75  2023.54  2086.40  2108.68
                             2117.22  2319.97  2467.17  2555.32  4364.65
                             4441.26  4506.93  4654.39

 Zero-point correction=                           0.087696 (Hartree/Particle)
 Thermal correction to Energy=                    0.095192
 Thermal correction to Enthalpy=                  0.096136
 Thermal correction to Gibbs Free Energy=         0.055745
 Sum of electronic and zero-point Energies=           -411.688645
 Sum of electronic and thermal Energies=              -411.681149
 Sum of electronic and thermal Enthalpies=            -411.680205
 Sum of electronic and thermal Free Energies=         -411.720596

                     E (Thermal)             CV                S
                      KCal/Mol        Cal/Mol-Kelvin    Cal/Mol-Kelvin
 Total                   59.734             27.344             85.011
 Electronic               0.000              0.000              0.000
 Translational            0.889              2.981             40.263
 Rotational               0.889              2.981             28.308
 Vibrational             57.957             21.382             16.441
 Vibration     1          0.613              1.920              2.895
 Vibration     2          0.617              1.906              2.708
 Vibration     3          0.631              1.862              2.293
 Vibration     4          0.645              1.817              1.996
 Vibration     5          0.680              1.711              1.536
 Vibration     6          0.802              1.379              0.821
 Vibration     7          0.815              1.345              0.775
 Vibration     8          0.847              1.269              0.680
 Vibration     9          0.888              1.176              0.580
 Vibration    10          0.980              0.990              0.417

                           ! Non-Optimized Parameters !
 Normal termination of Gaussian 16 at Sun Jul  3 16:08:55 2022.
