 Gaussian 16, Revision A.03,
 Gaussian 16:  ES64L-G16RevA.03 25-Dec-2016

 -----------------------------
 # opt freq b3lyp/6-31g(2df,p)
 -----------------------------

 -------------------
 Title Card Required
 -------------------
 Symbolic Z-matrix:
 Charge =  0 Multiplicity = 1

 SCF Done:  E(RB3LYP) =  -335.662221660     A.U. after   13 cycles
 SCF Done:  E(RB3LYP) =  -335.664847048     A.U. after   13 cycles
 SCF Done:  E(RB3LYP) =  -335.665088289     A.U. after   12 cycles
 SCF Done:  E(RB3LYP) =  -335.665094335     A.U. after   10 cycles
 SCF Done:  E(RB3LYP) =  -335.665095327     A.U. after    9 cycles
 SCF Done:  E(RB3LYP) =  -335.665095655     A.U. after    8 cycles
 SCF Done:  E(RB3LYP) =  -335.665095920     A.U. after    8 cycles
 Optimization completed.
    -- Stationary point found.
 Normal termination of Gaussian 16 at Thu Aug  4 09:32:44 2022.

 ----------------------------------------------------------------------
 #N Geom=AllCheck Guess=TCheck SCRF=Check GenChk RB3LYP/6-31G(2df,p) Fr
 eq
 ----------------------------------------------------------------------

 Structure from the checkpoint file:  "Cc1nncnn1.chk"
 -------------------
 Title Card Required
 -------------------
 Charge =  0 Multiplicity = 1

                         Standard orientation:
 ---------------------------------------------------------------------
 Center     Atomic      Atomic             Coordinates (Angstroms)
 Number     Number       Type             X           Y           Z
 ---------------------------------------------------------------------
      1          6           0        2.301893    0.004506   -0.000244
      2          6           0        0.804931    0.005708    0.000334
      3          7           0        0.177755    1.191985    0.000328
      4          7           0       -1.142981    1.186520   -0.000009
      5          6           0       -1.742455   -0.003513   -0.000367
      6          7           0       -1.132250   -1.192376   -0.000011
      7          7           0        0.184206   -1.187520    0.000328
      8          1           0        2.675843    1.028363    0.006375
      9          1           0        2.678556   -0.518682   -0.884250
     10          1           0        2.679271   -0.531244    0.875778
     11          1           0       -2.826986   -0.008908   -0.000687
 ---------------------------------------------------------------------

 SCF Done:  E(RB3LYP) =  -335.665095920     A.U. after    1 cycles

 The electronic state is 1-A.
 Alpha  occ. eigenvalues --  -14.40190 -14.40090 -14.39851 -14.39784 -10.28444
 Alpha  occ. eigenvalues --  -10.27503 -10.20515  -1.09203  -1.00500  -0.89412
 Alpha  occ. eigenvalues --   -0.76156  -0.75584  -0.67292  -0.59296  -0.52665
 Alpha  occ. eigenvalues --   -0.49260  -0.46819  -0.43045  -0.42187  -0.38057
 Alpha  occ. eigenvalues --   -0.35984  -0.34919  -0.32782  -0.32222  -0.23755
 Alpha virt. eigenvalues --   -0.10387  -0.05782   0.08255   0.10664   0.12569
 Alpha virt. eigenvalues --    0.13980   0.16822   0.18739   0.19650   0.20262
 Alpha virt. eigenvalues --    0.28961   0.33703   0.34499   0.38199   0.41801

 Mulliken charges:
               1
     1  C   -0.452513
     2  C    0.420522
     3  N   -0.202505
     4  N   -0.156908
     5  C    0.128261
     6  N   -0.156002
     7  N   -0.201645
     8  H    0.153169
     9  H    0.156967
    10  H    0.156917
    11  H    0.153737
 Sum of Mulliken charges =  -0.00000

 Dipole moment (field-independent basis, Debye):
    X=              0.8281    Y=             -0.0587    Z=             -0.0022  Tot=              0.8302
 Quadrupole moment (field-independent basis, Debye-Ang):
   XX=            -32.7837   YY=            -49.1467   ZZ=            -38.1376
   XY=             -0.0460   XZ=             -0.0016   YZ=             -0.0001

  Exact polarizability:  74.767  -0.484  53.663  -0.003   0.001  32.708
 Approx polarizability: 116.386  -1.198 109.067   0.000   0.001  52.568

                      1                      2                      3
                      A                      A                      A
 Frequencies --     19.8980               137.0162               353.7583
 Red. masses --      1.0687                 3.4331                 2.8469
 Frc consts  --      0.0002                 0.0380                 0.2099
 IR Inten    --      1.3573                17.6251                 4.5473

                      4                      5                      6
                      A                      A                      A
 Frequencies --    355.2509               448.9802               609.5814
 Red. masses --     13.3777                 3.5294                 5.0422
 Frc consts  --      0.9947                 0.4192                 1.1039
 IR Inten    --      0.0511                19.9063                 1.3545

                      7                      8                      9
                      A                      A                      A
 Frequencies --    661.9396               832.0073               854.9847
 Red. masses --     12.2874                 4.3989                 8.5755
 Frc consts  --      3.1721                 1.7941                 3.6934
 IR Inten    --      0.2294                 0.5456                 2.1802

                     10                     11                     12
                      A                      A                      A
 Frequencies --    962.8241               972.2775              1029.6875
 Red. masses --      1.3354                 3.5973                 2.1388
 Frc consts  --      0.7294                 2.0036                 1.3361
 IR Inten    --      0.0495                18.4629                17.7044

                     13                     14                     15
                      A                      A                      A
 Frequencies --   1064.9907              1084.9440              1142.5853
 Red. masses --      1.6563                10.3290                 8.9674
 Frc consts  --      1.1069                 7.1635                 6.8975
 IR Inten    --      7.9920                 1.2870                 8.6630

                     16                     17                     18
                      A                      A                      A
 Frequencies --   1225.8618              1350.5534              1414.6424
 Red. masses --      1.9636                 3.4433                 1.5621
 Frc consts  --      1.7385                 3.7004                 1.8419
 IR Inten    --      7.7349                73.3262                28.9701

                     19                     20                     21
                      A                      A                      A
 Frequencies --   1421.4067              1474.1434              1476.2091
 Red. masses --      1.9245                 1.3522                 1.0451
 Frc consts  --      2.2908                 1.7313                 1.3418
 IR Inten    --      4.6191                11.2127                 5.9489

                     22                     23                     24
                      A                      A                      A
 Frequencies --   1505.2530              1551.4114              3053.7072
 Red. masses --      5.2111                 4.6588                 1.0368
 Frc consts  --      6.9566                 6.6065                 5.6966
 IR Inten    --     22.9007                 0.6272                 2.4552

                     25                     26                     27
                      A                      A                      A
 Frequencies --   3114.3529              3160.5727              3205.6343
 Red. masses --      1.0994                 1.1020                 1.0923
 Frc consts  --      6.2826                 6.4857                 6.6131
 IR Inten    --      3.7941                 3.3707                 5.2846

 - Thermochemistry -
 -------------------
 Temperature   298.150 Kelvin.  Pressure   1.00000 Atm.
 Atom     1 has atomic number  6 and mass  12.00000

 Molecular mass:    96.04360 amu.
 Principal axes and moments of inertia in atomic units:
                           1         2         3
     Eigenvalues --   294.43200 628.41811 911.70086
           X            1.00000  -0.00040  -0.00002
           Y            0.00040   1.00000  -0.00000
           Z            0.00002   0.00000   1.00000
 This molecule is an asymmetric top.
 Rotational symmetry number  1.
 Rotational temperatures (Kelvin)      0.29417     0.13783     0.09500
 Rotational constants (GHZ):           6.12957     2.87188     1.97953
 Zero-point vibrational energy     206263.0 (Joules/Mol)
                                   49.29803 (Kcal/Mol)
 Warning -- explicit consideration of   6 degrees of freedom as
           vibrations may cause significant error
 Vibrational temperatures:     28.63   197.14   508.98   511.13   645.98
          (Kelvin)            877.05   952.38  1197.07  1230.13  1385.29
                             1398.89  1481.49  1532.28  1560.99  1643.93
                             1763.74  1943.15  2035.35  2045.09  2120.96
                             2123.94  2165.72  2232.13  4393.60  4480.86
                             4547.36  4612.19

 Zero-point correction=                           0.078561 (Hartree/Particle)
 Thermal correction to Energy=                    0.084605
 Thermal correction to Enthalpy=                  0.085549
 Thermal correction to Gibbs Free Energy=         0.047268
 Sum of electronic and zero-point Energies=           -335.586535
 Sum of electronic and thermal Energies=              -335.580491
 Sum of electronic and thermal Enthalpies=            -335.579547
 Sum of electronic and thermal Free Energies=         -335.617827

                     E (Thermal)             CV                S
                      KCal/Mol        Cal/Mol-Kelvin    Cal/Mol-Kelvin
 Total                   53.090             20.275             80.568
 Electronic               0.000              0.000              0.000
 Translational            0.889              2.981             39.598
 Rotational               0.889              2.981             26.625
 Vibrational             51.313             14.313             14.345
 Vibration     1          0.593              1.986              6.644
 Vibration     2          0.614              1.916              2.845
 Vibration     3          0.730              1.568              1.149
 Vibration     4          0.731              1.564              1.143
 Vibration     5          0.808              1.363              0.799
 Vibration     6          0.969              1.012              0.433

                           ! Non-Optimized Parameters !
 Normal termination of Gaussian 16 at Thu Aug  4 09:44:11 2022.
