 Gaussian 16, Revision A.03,
 Gaussian 16:  ES64L-G16RevA.03 25-Dec-2016

 -----------------------------
 # opt freq b3lyp/6-31g(2df,p)
 -----------------------------

 -------------------
 Title Card Required
 -------------------
 Symbolic Z-matrix:
 Charge =  0 Multiplicity = 1

 SCF Done:  E(RB3LYP) =  -450.148727908     A.U. after   15 cycles
 SCF Done:  E(RB3LYP) =  -450.156021587     A.U. after   14 cycles
 SCF Done:  E(RB3LYP) =  -450.157344698     A.U. after   13 cycles
 SCF Done:  E(RB3LYP) =  -450.159148365     A.U. after   14 cycles
 SCF Done:  E(RB3LYP) =  -450.162344236     A.U. after   14 cycles
 SCF Done:  E(RB3LYP) =  -450.166003825     A.U. after   14 cycles
 SCF Done:  E(RB3LYP) =  -450.170828813     A.U. after   13 cycles
 SCF Done:  E(RB3LYP) =  -450.175272443     A.U. after   14 cycles
 SCF Done:  E(RB3LYP) =  -450.177115860     A.U. after   15 cycles
 SCF Done:  E(RB3LYP) =  -450.179295038     A.U. after   13 cycles
 SCF Done:  E(RB3LYP) =  -450.179555834     A.U. after   13 cycles
 SCF Done:  E(RB3LYP) =  -450.179592249     A.U. after   11 cycles
 SCF Done:  E(RB3LYP) =  -450.179600777     A.U. after   10 cycles
 SCF Done:  E(RB3LYP) =  -450.179601997     A.U. after    9 cycles
 SCF Done:  E(RB3LYP) =  -450.179602180     A.U. after    7 cycles
 SCF Done:  E(RB3LYP) =  -450.179602216     A.U. after    6 cycles
 Optimization completed.
    -- Stationary point found.
 Normal termination of Gaussian 16 at Sun Jul  3 13:08:05 2022.

 ----------------------------------------------------------------------
 #N Geom=AllCheck Guess=TCheck SCRF=Check GenChk RB3LYP/6-31G(2df,p) Fr
 eq
 ----------------------------------------------------------------------

 Structure from the checkpoint file:  "CC1NdNCdNNdC1O.chk"
 -------------------
 Title Card Required
 -------------------
 Charge =  0 Multiplicity = 1

                         Standard orientation:
 ---------------------------------------------------------------------
 Center     Atomic      Atomic             Coordinates (Angstroms)
 Number     Number       Type             X           Y           Z
 ---------------------------------------------------------------------
      1          6           0       -0.150853    1.659901    1.193378
      2          6           0        0.408190    1.073318   -0.107437
      3          7           0       -0.603230    0.858472   -1.204623
      4          7           0       -1.569357    0.105980   -0.981976
      5          6           0       -1.689259   -0.738151    0.120724
      6          7           0       -0.781764   -1.477151    0.681169
      7          7           0        0.533974   -1.382212    0.351434
      8          6           0        1.073636   -0.267101   -0.010036
      9          8           0        2.357587   -0.273898   -0.390904
     10          1           0       -0.712869    2.569550    0.964326
     11          1           0        0.683409    1.930511    1.846253
     12          1           0       -0.798691    0.975011    1.738526
     13          1           0        1.129978    1.773408   -0.530410
     14          1           0       -2.719014   -0.961565    0.383792
     15          1           0        2.648858   -1.199159   -0.377056
 ---------------------------------------------------------------------

 SCF Done:  E(RB3LYP) =  -450.179602216     A.U. after    1 cycles

 The electronic state is 1-A.
 Alpha  occ. eigenvalues --  -19.20521 -14.40425 -14.39808 -14.37594 -14.36416
 Alpha  occ. eigenvalues --  -10.30708 -10.25784 -10.24792 -10.20501  -1.10952
 Alpha  occ. eigenvalues --   -1.06043  -0.99968  -0.86472  -0.80285  -0.73961
 Alpha  occ. eigenvalues --   -0.70255  -0.61917  -0.61398  -0.54043  -0.51666
 Alpha  occ. eigenvalues --   -0.49170  -0.47505  -0.43620  -0.43043  -0.40699
 Alpha  occ. eigenvalues --   -0.40497  -0.39835  -0.37043  -0.35808  -0.34022
 Alpha  occ. eigenvalues --   -0.27447  -0.26204  -0.22867
 Alpha virt. eigenvalues --   -0.08447  -0.02298   0.03499   0.07273   0.09792
 Alpha virt. eigenvalues --    0.12974   0.13456   0.14794   0.15890   0.17568
 Alpha virt. eigenvalues --    0.18148   0.19406   0.23748   0.26478   0.29915

 Mulliken charges:
               1
     1  C   -0.419989
     2  C   -0.072444
     3  N   -0.130868
     4  N   -0.089907
     5  C    0.057301
     6  N   -0.164495
     7  N   -0.276572
     8  C    0.457539
     9  O   -0.377001
    10  H    0.140883
    11  H    0.141526
    12  H    0.155694
    13  H    0.125498
    14  H    0.139649
    15  H    0.313187
 Sum of Mulliken charges =  -0.00000

 Dipole moment (field-independent basis, Debye):
    X=              1.2143    Y=              1.4954    Z=              1.2070  Tot=              2.2733
 Quadrupole moment (field-independent basis, Debye-Ang):
   XX=            -46.9079   YY=            -52.6051   ZZ=            -55.4924
   XY=             -2.0348   XZ=             -2.8327   YZ=              5.1746

  Exact polarizability:  86.222   1.676  70.276   0.020  -5.901  54.472
 Approx polarizability: 153.478   3.026 124.800   4.152 -28.223  97.225

                      1                      2                      3
                      A                      A                      A
 Frequencies --    138.0722               168.5788               218.0385
 Red. masses --      3.6544                 1.2640                 3.3760
 Frc consts  --      0.0410                 0.0212                 0.0946
 IR Inten    --      0.9734                 0.3822                 4.7545

                      4                      5                      6
                      A                      A                      A
 Frequencies --    236.7370               297.2593               360.4516
 Red. masses --      3.1333                 5.2186                 7.3034
 Frc consts  --      0.1035                 0.2717                 0.5591
 IR Inten    --      1.3993                 6.4771                 3.0934

                      7                      8                      9
                      A                      A                      A
 Frequencies --    398.7829               443.3644               510.9220
 Red. masses --      6.1377                 5.4790                 5.0182
 Frc consts  --      0.5751                 0.6346                 0.7718
 IR Inten    --     13.7381                16.0945                 7.3751

                     10                     11                     12
                      A                      A                      A
 Frequencies --    597.7867               667.5776               692.7836
 Red. masses --      1.2809                 5.8289                 4.4423
 Frc consts  --      0.2697                 1.5305                 1.2562
 IR Inten    --     77.8756                15.3075                27.6348

                     13                     14                     15
                      A                      A                      A
 Frequencies --    739.8496               779.2021               840.1078
 Red. masses --      6.2999                 3.1421                 3.2249
 Frc consts  --      2.0317                 1.1240                 1.3410
 IR Inten    --      0.2099                 1.7452                 6.6998

                     16                     17                     18
                      A                      A                      A
 Frequencies --    892.5358               921.8980               994.0701
 Red. masses --      3.0517                 2.0575                 4.0810
 Frc consts  --      1.4323                 1.0303                 2.3760
 IR Inten    --      8.4266                 9.7378                39.7804

                     19                     20                     21
                      A                      A                      A
 Frequencies --   1045.3511              1063.3258              1098.9883
 Red. masses --      3.5698                 2.0280                 1.7970
 Frc consts  --      2.2984                 1.3510                 1.2787
 IR Inten    --     25.8952                28.9498                71.1075

                     22                     23                     24
                      A                      A                      A
 Frequencies --   1130.1906              1237.8768              1306.0682
 Red. masses --      2.5847                 2.1369                 1.3641
 Frc consts  --      1.9452                 1.9292                 1.3710
 IR Inten    --     14.8604               136.5179                22.3493

                     25                     26                     27
                      A                      A                      A
 Frequencies --   1348.9190              1396.2478              1405.6280
 Red. masses --      1.3475                 1.3746                 1.2216
 Frc consts  --      1.4446                 1.5789                 1.4221
 IR Inten    --     16.7756                 2.4373                 5.1315

                     28                     29                     30
                      A                      A                      A
 Frequencies --   1445.2130              1484.8849              1492.7098
 Red. masses --      2.5023                 5.0356                 1.1114
 Frc consts  --      3.0793                 6.5416                 1.4590
 IR Inten    --     74.7543                13.5634                 3.1400

                     31                     32                     33
                      A                      A                      A
 Frequencies --   1501.6165              1604.8621              1623.7695
 Red. masses --      1.0899                 7.0535                 7.2689
 Frc consts  --      1.4479                10.7037                11.2919
 IR Inten    --      7.3754               208.6983                32.0093

                     34                     35                     36
                      A                      A                      A
 Frequencies --   3057.7603              3104.3695              3122.5267
 Red. masses --      1.0379                 1.0863                 1.1020
 Frc consts  --      5.7174                 6.1682                 6.3308
 IR Inten    --     12.6649                 6.9887                 6.8937

                     37                     38                     39
                      A                      A                      A
 Frequencies --   3164.0740              3180.5211              3731.0164
 Red. masses --      1.0984                 1.0891                 1.0637
 Frc consts  --      6.4790                 6.4910                 8.7241
 IR Inten    --      6.4523                 6.6797                79.7163

 - Thermochemistry -
 -------------------
 Temperature   298.150 Kelvin.  Pressure   1.00000 Atm.
 Atom     1 has atomic number  6 and mass  12.00000

 Molecular mass:   126.05416 amu.
 Principal axes and moments of inertia in atomic units:
                           1         2         3
     Eigenvalues --   748.71756 992.394571248.35608
           X            0.99968   0.00722  -0.02431
           Y           -0.00481   0.99518   0.09797
           Z            0.02490  -0.09782   0.99489
 This molecule is an asymmetric top.
 Rotational symmetry number  1.
 Warning -- assumption of classical behavior for rotation
           may cause significant error
 Rotational temperatures (Kelvin)      0.11568     0.08728     0.06938
 Rotational constants (GHZ):           2.41044     1.81857     1.44569
 Zero-point vibrational energy     295740.4 (Joules/Mol)
                                   70.68366 (Kcal/Mol)
 Warning -- explicit consideration of  10 degrees of freedom as
           vibrations may cause significant error
 Vibrational temperatures:    198.66   242.55   313.71   340.61   427.69
          (Kelvin)            518.61   573.76   637.90   735.10   860.08
                              960.50   996.76  1064.48  1121.10  1208.73
                             1284.16  1326.41  1430.25  1504.03  1529.89
                             1581.20  1626.09  1781.03  1879.14  1940.79
                             2008.89  2022.39  2079.34  2136.42  2147.68
                             2160.49  2309.04  2336.24  4399.44  4466.50
                             4492.62  4552.40  4576.06  5368.10

 Zero-point correction=                           0.112642 (Hartree/Particle)
 Thermal correction to Energy=                    0.120338
 Thermal correction to Enthalpy=                  0.121282
 Thermal correction to Gibbs Free Energy=         0.080716
 Sum of electronic and zero-point Energies=           -450.066961
 Sum of electronic and thermal Energies=              -450.059265
 Sum of electronic and thermal Enthalpies=            -450.058320
 Sum of electronic and thermal Free Energies=         -450.098887

                     E (Thermal)             CV                S
                      KCal/Mol        Cal/Mol-Kelvin    Cal/Mol-Kelvin
 Total                   75.513             29.091             85.379
 Electronic               0.000              0.000              0.000
 Translational            0.889              2.981             40.408
 Rotational               0.889              2.981             28.319
 Vibrational             73.736             23.129             16.652
 Vibration     1          0.614              1.915              2.830
 Vibration     2          0.625              1.881              2.451
 Vibration     3          0.646              1.814              1.975
 Vibration     4          0.656              1.784              1.827
 Vibration     5          0.691              1.679              1.432
 Vibration     6          0.735              1.554              1.120
 Vibration     7          0.765              1.473              0.967
 Vibration     8          0.803              1.376              0.816
 Vibration     9          0.866              1.226              0.631
 Vibration    10          0.956              1.036              0.453

 Optimization completed.
    -- Stationary point found.
 Normal termination of Gaussian 16 at Sun Jul  3 13:31:38 2022.
