 Gaussian 16, Revision A.03,
 Gaussian 16:  ES64L-G16RevA.03 25-Dec-2016

 -----------------------------
 # opt freq b3lyp/6-31g(2df,p)
 -----------------------------

 -------------------
 Title Card Required
 -------------------
 Symbolic Z-matrix:
 Charge =  0 Multiplicity = 1

 SCF Done:  E(RB3LYP) =  -435.278219079     A.U. after   14 cycles
 SCF Done:  E(RB3LYP) =  -435.292936097     A.U. after   13 cycles
 SCF Done:  E(RB3LYP) =  -435.295203541     A.U. after   13 cycles
 SCF Done:  E(RB3LYP) =  -435.295593356     A.U. after   11 cycles
 SCF Done:  E(RB3LYP) =  -435.295657846     A.U. after   10 cycles
 SCF Done:  E(RB3LYP) =  -435.295669983     A.U. after   11 cycles
 SCF Done:  E(RB3LYP) =  -435.295690772     A.U. after   10 cycles
 SCF Done:  E(RB3LYP) =  -435.295693550     A.U. after    8 cycles
 Optimization completed.
    -- Stationary point found.
 Normal termination of Gaussian 16 at Sun Jul  3 11:54:40 2022.

 ----------------------------------------------------------------------
 #N Geom=AllCheck Guess=TCheck SCRF=Check GenChk RB3LYP/6-31G(2df,p) Fr
 eq
 ----------------------------------------------------------------------

 Structure from the checkpoint file:  "CC1NdNC2OC2CN1.chk"
 -------------------
 Title Card Required
 -------------------
 Charge =  0 Multiplicity = 1

                         Standard orientation:
 ---------------------------------------------------------------------
 Center     Atomic      Atomic             Coordinates (Angstroms)
 Number     Number       Type             X           Y           Z
 ---------------------------------------------------------------------
      1          6           0       -2.181685   -0.027080    0.902224
      2          6           0       -1.373929    0.155872   -0.400687
      3          7           0       -0.707787    1.532666   -0.246309
      4          7           0        0.511451    1.741999   -0.149690
      5          6           0        1.290492    0.521982   -0.340870
      6          8           0        2.361120    0.023492    0.436089
      7          6           0        1.035253   -0.539396    0.606226
      8          6           0        0.355980   -1.714753   -0.058922
      9          7           0       -0.661323   -1.042580   -0.905287
     10          1           0       -2.755226    0.875773    1.123920
     11          1           0       -1.540867   -0.239544    1.761594
     12          1           0       -2.877693   -0.862748    0.781011
     13          1           0       -2.099389    0.379606   -1.190863
     14          1           0        1.389332    0.293895   -1.399558
     15          1           0        0.623760   -0.250795    1.569733
     16          1           0       -0.062908   -2.406909    0.685132
     17          1           0        1.033654   -2.280645   -0.707407
     18          1           0       -1.352671   -1.700914   -1.251101
 ---------------------------------------------------------------------

 SCF Done:  E(RB3LYP) =  -435.295693550     A.U. after    1 cycles

 The electronic state is 1-A.
 Alpha  occ. eigenvalues --  -19.17109 -14.38604 -14.38431 -14.33532 -10.25910
 Alpha  occ. eigenvalues --  -10.25824 -10.24349 -10.23075 -10.19275  -1.09191
 Alpha  occ. eigenvalues --   -1.02959  -0.91751  -0.79177  -0.72909  -0.71207
 Alpha  occ. eigenvalues --   -0.66157  -0.60881  -0.56505  -0.52408  -0.51618
 Alpha  occ. eigenvalues --   -0.48171  -0.46788  -0.44097  -0.42838  -0.41502
 Alpha  occ. eigenvalues --   -0.40351  -0.39728  -0.39028  -0.36301  -0.34652
 Alpha  occ. eigenvalues --   -0.30432  -0.28003  -0.25016  -0.21751
 Alpha virt. eigenvalues --   -0.04795   0.05424   0.06861   0.08751   0.11764
 Alpha virt. eigenvalues --    0.12579   0.13333   0.14198   0.14699   0.15706
 Alpha virt. eigenvalues --    0.17592   0.18261   0.18386   0.20405   0.21514

 Mulliken charges:
               1
     1  C   -0.387078
     2  C    0.059274
     3  N   -0.101066
     4  N   -0.162176
     5  C    0.150899
     6  O   -0.266983
     7  C    0.043810
     8  C   -0.222819
     9  N   -0.316685
    10  H    0.145955
    11  H    0.128483
    12  H    0.116527
    13  H    0.112916
    14  H    0.135542
    15  H    0.114170
    16  H    0.101297
    17  H    0.126691
    18  H    0.221244
 Sum of Mulliken charges =  -0.00000

 Dipole moment (field-independent basis, Debye):
    X=             -2.5483    Y=             -3.4213    Z=             -0.3055  Tot=              4.2769
 Quadrupole moment (field-independent basis, Debye-Ang):
   XX=            -55.2416   YY=            -56.6243   ZZ=            -51.3051
   XY=              1.2289   XZ=             -1.2264   YZ=              0.1668

  Exact polarizability:  83.325   1.899  73.481  -0.366  -0.404  60.154
 Approx polarizability: 130.372   6.556 111.006   3.329  -1.918  94.547

                      1                      2                      3
                      A                      A                      A
 Frequencies --    143.9407               184.2972               192.5357
 Red. masses --      3.7609                 1.1814                 2.3172
 Frc consts  --      0.0459                 0.0236                 0.0506
 IR Inten    --      0.4650                 0.0370                 1.3369

                      4                      5                      6
                      A                      A                      A
 Frequencies --    247.6255               334.0105               364.8254
 Red. masses --      2.9437                 3.8265                 2.7080
 Frc consts  --      0.1064                 0.2515                 0.2124
 IR Inten    --      1.4939                 6.5625                 9.4303

                      7                      8                      9
                      A                      A                      A
 Frequencies --    409.7977               435.5772               474.2464
 Red. masses --      4.9143                 4.3634                 3.6346
 Frc consts  --      0.4862                 0.4878                 0.4816
 IR Inten    --      2.3850                 1.2848                 0.6089

                     10                     11                     12
                      A                      A                      A
 Frequencies --    554.2054               578.8133               630.1670
 Red. masses --      3.4189                 2.3250                 3.7418
 Frc consts  --      0.6187                 0.4589                 0.8755
 IR Inten    --     39.8415                50.4451                 8.0888

                     13                     14                     15
                      A                      A                      A
 Frequencies --    661.9037               812.8579               823.8956
 Red. masses --      5.0626                 2.8720                 3.0031
 Frc consts  --      1.3068                 1.1181                 1.2011
 IR Inten    --      2.8672                 7.0379                 3.7410

                     16                     17                     18
                      A                      A                      A
 Frequencies --    890.4117               934.2208               956.9524
 Red. masses --      2.0864                 5.4187                 2.2171
 Frc consts  --      0.9746                 2.7864                 1.1962
 IR Inten    --     21.1343                20.7746                26.2697

                     19                     20                     21
                      A                      A                      A
 Frequencies --    974.7351              1018.4529              1062.4889
 Red. masses --      2.9321                 2.4045                 1.8365
 Frc consts  --      1.6414                 1.4695                 1.2215
 IR Inten    --     38.3213                 8.8915                25.4455

                     22                     23                     24
                      A                      A                      A
 Frequencies --   1075.7074              1092.7082              1103.7939
 Red. masses --      3.6611                 1.8188                 1.7779
 Frc consts  --      2.4960                 1.2795                 1.2762
 IR Inten    --      6.6939                 3.6660                 3.6819

                     25                     26                     27
                      A                      A                      A
 Frequencies --   1137.1174              1149.7109              1213.9847
 Red. masses --      2.5367                 2.0129                 1.1721
 Frc consts  --      1.9325                 1.5676                 1.0178
 IR Inten    --     39.4008                22.4847                 4.1116

                     28                     29                     30
                      A                      A                      A
 Frequencies --   1290.4462              1307.8441              1329.8956
 Red. masses --      1.1898                 1.3322                 1.2687
 Frc consts  --      1.1674                 1.3425                 1.3220
 IR Inten    --      1.5701                 5.7665                 6.7176

                     31                     32                     33
                      A                      A                      A
 Frequencies --   1372.6266              1396.2104              1397.7225
 Red. masses --      1.1457                 1.2324                 1.2475
 Frc consts  --      1.2718                 1.4155                 1.4359
 IR Inten    --     14.9143                 3.0155                 4.5397

                     34                     35                     36
                      A                      A                      A
 Frequencies --   1464.4306              1479.3981              1485.8397
 Red. masses --      1.5133                 1.9896                 1.0513
 Frc consts  --      1.9121                 2.5655                 1.3674
 IR Inten    --      3.1307                44.0317                 1.9981

                     37                     38                     39
                      A                      A                      A
 Frequencies --   1498.2749              1510.1655              1628.9356
 Red. masses --      1.1222                 1.0959                10.3637
 Frc consts  --      1.4843                 1.4726                16.2021
 IR Inten    --      4.1566                 0.2372                20.8517

                     40                     41                     42
                      A                      A                      A
 Frequencies --   2999.7663              3045.4458              3047.0272
 Red. masses --      1.0663                 1.0840                 1.0362
 Frc consts  --      5.6536                 5.9234                 5.6684
 IR Inten    --     58.2577                10.1848                15.1704

                     43                     44                     45
                      A                      A                      A
 Frequencies --   3065.3662              3118.8903              3132.7505
 Red. masses --      1.0966                 1.1007                 1.1009
 Frc consts  --      6.0709                 6.3081                 6.3657
 IR Inten    --     15.7054                18.2800                16.3915

                     46                     47                     48
                      A                      A                      A
 Frequencies --   3137.8367              3147.6461              3512.5556
 Red. masses --      1.0876                 1.0869                 1.0743
 Frc consts  --      6.3092                 6.3445                 7.8096
 IR Inten    --      2.0189                17.6301                 0.5624

 - Thermochemistry -
 -------------------
 Temperature   298.150 Kelvin.  Pressure   1.00000 Atm.
 Atom     1 has atomic number  6 and mass  12.00000

 Molecular mass:   127.07456 amu.
 Principal axes and moments of inertia in atomic units:
                           1         2         3
     Eigenvalues --   696.511221051.363831415.75061
           X            0.99960   0.00392  -0.02800
           Y           -0.00374   0.99997   0.00628
           Z            0.02803  -0.00617   0.99959
 This molecule is an asymmetric top.
 Rotational symmetry number  1.
 Warning -- assumption of classical behavior for rotation
           may cause significant error
 Rotational temperatures (Kelvin)      0.12435     0.08238     0.06118
 Rotational constants (GHZ):           2.59112     1.71657     1.27476
 Zero-point vibrational energy     387757.9 (Joules/Mol)
                                   92.67636 (Kcal/Mol)
 Warning -- explicit consideration of  11 degrees of freedom as
           vibrations may cause significant error
 Vibrational temperatures:    207.10   265.16   277.02   356.28   480.57
          (Kelvin)            524.90   589.61   626.70   682.33   797.38
                              832.78   906.67   952.33  1169.52  1185.40
                             1281.10  1344.14  1376.84  1402.43  1465.33
                             1528.68  1547.70  1572.16  1588.11  1636.06
                             1654.18  1746.65  1856.66  1881.70  1913.42
                             1974.90  2008.84  2011.01  2106.99  2128.52
                             2137.79  2155.68  2172.79  2343.68  4315.99
                             4381.72  4383.99  4410.38  4487.39  4507.33
                             4514.65  4528.76  5053.78

 Zero-point correction=                           0.147689 (Hartree/Particle)
 Thermal correction to Energy=                    0.155618
 Thermal correction to Enthalpy=                  0.156562
 Thermal correction to Gibbs Free Energy=         0.115686
 Sum of electronic and zero-point Energies=           -435.148004
 Sum of electronic and thermal Energies=              -435.140076
 Sum of electronic and thermal Enthalpies=            -435.139132
 Sum of electronic and thermal Free Energies=         -435.180008

                     E (Thermal)             CV                S
                      KCal/Mol        Cal/Mol-Kelvin    Cal/Mol-Kelvin
 Total                   97.652             31.195             86.031
 Electronic               0.000              0.000              0.000
 Translational            0.889              2.981             40.432
 Rotational               0.889              2.981             28.429
 Vibrational             95.874             25.234             17.169
 Vibration     1          0.616              1.909              2.751
 Vibration     2          0.631              1.861              2.284
 Vibration     3          0.635              1.850              2.203
 Vibration     4          0.661              1.767              1.747
 Vibration     5          0.716              1.608              1.241
 Vibration     6          0.738              1.545              1.101
 Vibration     7          0.774              1.449              0.927
 Vibration     8          0.796              1.393              0.841
 Vibration     9          0.831              1.307              0.726
 Vibration    10          0.910              1.130              0.536
 Vibration    11          0.935              1.077              0.488

                           ! Non-Optimized Parameters !
 Normal termination of Gaussian 16 at Sun Jul  3 12:21:51 2022.
