 Gaussian 16, Revision A.03,
 Gaussian 16:  ES64L-G16RevA.03 25-Dec-2016

 -----------------------------
 # opt freq b3lyp/6-31g(2df,p)
 -----------------------------

 -------------------
 Title Card Required
 -------------------
 Symbolic Z-matrix:
 Charge =  0 Multiplicity = 1

 SCF Done:  E(RB3LYP) =  -421.753098659     A.U. after   13 cycles
 SCF Done:  E(RB3LYP) =  -421.759028786     A.U. after   12 cycles
 SCF Done:  E(RB3LYP) =  -421.760819797     A.U. after   11 cycles
 SCF Done:  E(RB3LYP) =  -421.761112259     A.U. after   10 cycles
 SCF Done:  E(RB3LYP) =  -421.761147467     A.U. after   10 cycles
 SCF Done:  E(RB3LYP) =  -421.761155866     A.U. after    9 cycles
 SCF Done:  E(RB3LYP) =  -421.761157573     A.U. after    8 cycles
 Optimization completed.
    -- Stationary point found.
 Normal termination of Gaussian 16 at Wed Aug  3 23:40:01 2022.

 ----------------------------------------------------------------------
 #N Geom=AllCheck Guess=TCheck SCRF=Check GenChk RB3LYP/6-31G(2df,p) Fr
 eq
 ----------------------------------------------------------------------

 Structure from the checkpoint file:  "CC1NCCCC1ON.chk"
 -------------------
 Title Card Required
 -------------------
 Charge =  0 Multiplicity = 1

                         Standard orientation:
 ---------------------------------------------------------------------
 Center     Atomic      Atomic             Coordinates (Angstroms)
 Number     Number       Type             X           Y           Z
 ---------------------------------------------------------------------
      1          6           0        0.807236    2.076103    0.745790
      2          6           0        0.047350    1.079739   -0.152192
      3          7           0        0.854195    0.448737   -1.203781
      4          6           0        1.866313   -0.492033   -0.723623
      5          6           0        1.179470   -1.633847    0.029223
      6          6           0        0.325951   -1.078151    1.178123
      7          6           0       -0.655627   -0.013264    0.678259
      8          8           0       -1.624242   -0.733244   -0.084873
      9          7           0       -2.685860    0.143055   -0.490791
     10          1           0        1.254929    2.868199    0.135570
     11          1           0        1.612330    1.603241    1.316117
     12          1           0        0.128415    2.553674    1.460773
     13          1           0       -0.748657    1.639515   -0.654954
     14          1           0        1.285433    1.165146   -1.777308
     15          1           0        2.624821   -0.029807   -0.063437
     16          1           0        2.405320   -0.881537   -1.594311
     17          1           0        1.928873   -2.333345    0.415191
     18          1           0        0.536454   -2.180943   -0.666943
     19          1           0        0.972282   -0.627853    1.940965
     20          1           0       -0.239383   -1.876695    1.668988
     21          1           0       -1.162159    0.468930    1.526276
     22          1           0       -3.525726   -0.351610   -0.190664
     23          1           0       -2.681501    0.075216   -1.508753
 ---------------------------------------------------------------------

 SCF Done:  E(RB3LYP) =  -421.761157573     A.U. after    1 cycles

 The electronic state is 1-A.
 Alpha  occ. eigenvalues --  -19.14974 -14.35578 -14.29965 -10.21622 -10.19628
 Alpha  occ. eigenvalues --  -10.19392 -10.17247 -10.16797 -10.16795  -1.04703
 Alpha  occ. eigenvalues --   -0.89670  -0.81929  -0.76260  -0.74454  -0.67456
 Alpha  occ. eigenvalues --   -0.61545  -0.60241  -0.52379  -0.50733  -0.49279
 Alpha  occ. eigenvalues --   -0.47793  -0.45034  -0.42757  -0.41173  -0.40152
 Alpha  occ. eigenvalues --   -0.39974  -0.39128  -0.37525  -0.36138  -0.34521
 Alpha  occ. eigenvalues --   -0.32583  -0.30953  -0.30272  -0.24879  -0.24621
 Alpha  occ. eigenvalues --   -0.20850
 Alpha virt. eigenvalues --    0.07685   0.08485   0.11084   0.12303   0.13096
 Alpha virt. eigenvalues --    0.14144   0.15121   0.15568   0.15670   0.17040
 Alpha virt. eigenvalues --    0.17635   0.18974   0.19981   0.20708   0.21302

 Mulliken charges:
               1
     1  C   -0.411634
     2  C    0.010587
     3  N   -0.291988
     4  C   -0.154211
     5  C   -0.168617
     6  C   -0.236004
     7  C    0.193719
     8  O   -0.285119
     9  N   -0.397191
    10  H    0.104741
    11  H    0.116840
    12  H    0.114906
    13  H    0.084090
    14  H    0.208096
    15  H    0.071043
    16  H    0.091822
    17  H    0.083020
    18  H    0.115088
    19  H    0.095418
    20  H    0.099425
    21  H    0.056533
    22  H    0.247014
    23  H    0.252426
 Sum of Mulliken charges =  -0.00000

 Dipole moment (field-independent basis, Debye):
    X=             -0.0113    Y=              0.4338    Z=             -0.1277  Tot=              0.4524
 Quadrupole moment (field-independent basis, Debye-Ang):
   XX=            -50.1776   YY=            -56.6704   ZZ=            -54.3759
   XY=              1.5793   XZ=              1.1355   YZ=             -1.5561

  Exact polarizability:  89.931  -2.115  81.340   0.512  -0.756  76.329
 Approx polarizability: 120.119  -3.077 112.111   2.493  -1.352 113.477

                      1                      2                      3
                      A                      A                      A
 Frequencies --     76.8767               151.9459               169.8788
 Red. masses --      3.3064                 3.4424                 2.6742
 Frc consts  --      0.0115                 0.0468                 0.0455
 IR Inten    --      2.9298                 0.2930                 1.2169

                      4                      5                      6
                      A                      A                      A
 Frequencies --    201.1283               211.2109               245.6830
 Red. masses --      1.1940                 1.0641                 2.7576
 Frc consts  --      0.0285                 0.0280                 0.0981
 IR Inten    --     28.5109                 2.4336                 8.3678

                      7                      8                      9
                      A                      A                      A
 Frequencies --    260.0051               339.5693               391.4436
 Red. masses --      2.5629                 2.4346                 2.2699
 Frc consts  --      0.1021                 0.1654                 0.2049
 IR Inten    --      1.4483                 4.2120                 0.3464

                     10                     11                     12
                      A                      A                      A
 Frequencies --    402.1690               486.5367               534.8909
 Red. masses --      2.6033                 2.1823                 3.9157
 Frc consts  --      0.2481                 0.3044                 0.6601
 IR Inten    --      7.7692                 5.6699                20.6297

                     13                     14                     15
                      A                      A                      A
 Frequencies --    542.7063               659.1549               740.8728
 Red. masses --      3.3168                 2.1184                 1.9142
 Frc consts  --      0.5756                 0.5423                 0.6191
 IR Inten    --      5.8106                22.8799                58.3562

                     16                     17                     18
                      A                      A                      A
 Frequencies --    794.7948               856.7323               861.6139
 Red. masses --      2.4682                 1.8476                 2.4537
 Frc consts  --      0.9186                 0.7990                 1.0732
 IR Inten    --      3.9889                 4.4598                 0.9395

                     19                     20                     21
                      A                      A                      A
 Frequencies --    893.4671               941.0171               959.7032
 Red. masses --      1.7426                 3.3618                 2.1045
 Frc consts  --      0.8196                 1.7539                 1.1420
 IR Inten    --      1.5598                 3.1326                 1.6405

                     22                     23                     24
                      A                      A                      A
 Frequencies --    971.9223               989.9463              1050.9266
 Red. masses --      2.2977                 1.4726                 3.2104
 Frc consts  --      1.2788                 0.8503                 2.0891
 IR Inten    --     51.0684                 7.8998                 9.6135

                     25                     26                     27
                      A                      A                      A
 Frequencies --   1059.3304              1094.9130              1105.5249
 Red. masses --      1.8807                 1.9243                 1.5894
 Frc consts  --      1.2434                 1.3592                 1.1445
 IR Inten    --      5.9151                14.8166                 2.7701

                     28                     29                     30
                      A                      A                      A
 Frequencies --   1144.7563              1178.0005              1198.6500
 Red. masses --      2.1237                 1.7987                 1.6030
 Frc consts  --      1.6397                 1.4706                 1.3570
 IR Inten    --      5.7779                19.1769                11.7852

                     31                     32                     33
                      A                      A                      A
 Frequencies --   1209.2165              1248.2986              1295.4228
 Red. masses --      1.3690                 1.5618                 1.1953
 Frc consts  --      1.1794                 1.4339                 1.1819
 IR Inten    --     47.1742                32.6653                 6.2930

                     34                     35                     36
                      A                      A                      A
 Frequencies --   1317.3315              1329.0936              1350.5859
 Red. masses --      1.1453                 1.4033                 1.3154
 Frc consts  --      1.1710                 1.4605                 1.4137
 IR Inten    --      0.6034                 5.3731                 4.4993

                     37                     38                     39
                      A                      A                      A
 Frequencies --   1359.9176              1375.1503              1384.2377
 Red. masses --      1.2371                 1.5930                 1.4789
 Frc consts  --      1.3480                 1.7749                 1.6696
 IR Inten    --      3.5323                 5.5048                 1.7887

                     40                     41                     42
                      A                      A                      A
 Frequencies --   1393.2007              1401.7424              1420.2132
 Red. masses --      1.3150                 1.2388                 1.3858
 Frc consts  --      1.5039                 1.4341                 1.6469
 IR Inten    --     19.2756                 7.8192                 3.3320

                     43                     44                     45
                      A                      A                      A
 Frequencies --   1473.1189              1478.8525              1487.2151
 Red. masses --      1.0817                 1.1265                 1.1233
 Frc consts  --      1.3830                 1.4515                 1.4639
 IR Inten    --      4.3354                 7.8953                 0.8659

                     46                     47                     48
                      A                      A                      A
 Frequencies --   1498.9240              1503.3781              1517.8864
 Red. masses --      1.1183                 1.1180                 1.1157
 Frc consts  --      1.4804                 1.4888                 1.5145
 IR Inten    --      3.2367                 5.5280                 1.4234

                     49                     50                     51
                      A                      A                      A
 Frequencies --   1651.7101              2914.2253              2999.0004
 Red. masses --      1.0667                 1.0728                 1.0829
 Frc consts  --      1.7145                 5.3682                 5.7382
 IR Inten    --     16.2868                76.0703                33.8595

                     52                     53                     54
                      A                      A                      A
 Frequencies --   3029.4782              3037.2315              3042.0546
 Red. masses --      1.0376                 1.0619                 1.0659
 Frc consts  --      5.6109                 5.7714                 5.8115
 IR Inten    --     17.7743                35.1502                26.7071

                     55                     56                     57
                      A                      A                      A
 Frequencies --   3047.2614              3055.8966              3078.2405
 Red. masses --      1.0839                 1.0828                 1.1000
 Frc consts  --      5.9299                 5.9576                 6.1410
 IR Inten    --     17.5591                55.1782                30.5275

                     58                     59                     60
                      A                      A                      A
 Frequencies --   3092.8106              3095.6795              3107.9421
 Red. masses --      1.1011                 1.1026                 1.0998
 Frc consts  --      6.2055                 6.2254                 6.2589
 IR Inten    --     30.4797                31.7470                39.3152

                     61                     62                     63
                      A                      A                      A
 Frequencies --   3427.1185              3508.4639              3524.2652
 Red. masses --      1.0473                 1.0957                 1.0741
 Frc consts  --      7.2472                 7.9463                 7.8604
 IR Inten    --      1.9771                 0.1834                 0.7814

 - Thermochemistry -
 -------------------
 Temperature   298.150 Kelvin.  Pressure   1.00000 Atm.
 Atom     1 has atomic number  6 and mass  12.00000

 Molecular mass:   130.11061 amu.
 Principal axes and moments of inertia in atomic units:
                           1         2         3
     Eigenvalues --   872.498291259.250161552.25068
           X            0.99994  -0.00646   0.00842
           Y            0.00632   0.99985   0.01602
           Z           -0.00852  -0.01597   0.99984
 This molecule is an asymmetric top.
 Rotational symmetry number  1.
 Warning -- assumption of classical behavior for rotation
           may cause significant error
 Rotational temperatures (Kelvin)      0.09927     0.06878     0.05580
 Rotational constants (GHZ):           2.06848     1.43319     1.16266
 Zero-point vibrational energy     545320.9 (Joules/Mol)
                                  130.33482 (Kcal/Mol)
 Warning -- explicit consideration of  13 degrees of freedom as
           vibrations may cause significant error
 Vibrational temperatures:    110.61   218.62   244.42   289.38   303.89
          (Kelvin)            353.48   374.09   488.56   563.20   578.63
                              700.02   769.59   780.83   948.38  1065.95
                             1143.53  1232.65  1239.67  1285.50  1353.91
                             1380.80  1398.38  1424.31  1512.05  1524.14
                             1575.34  1590.60  1647.05  1694.88  1724.59
                             1739.79  1796.02  1863.82  1895.35  1912.27
                             1943.19  1956.62  1978.53  1991.61  2004.50
                             2016.79  2043.37  2119.49  2127.74  2139.77
                             2156.62  2163.03  2183.90  2376.44  4192.92
                             4314.89  4358.74  4369.90  4376.84  4384.33
                             4396.75  4428.90  4449.86  4453.99  4471.64
                             4930.86  5047.90  5070.63

 Zero-point correction=                           0.207702 (Hartree/Particle)
 Thermal correction to Energy=                    0.217231
 Thermal correction to Enthalpy=                  0.218175
 Thermal correction to Gibbs Free Energy=         0.173720
 Sum of electronic and zero-point Energies=           -421.553456
 Sum of electronic and thermal Energies=              -421.543927
 Sum of electronic and thermal Enthalpies=            -421.542983
 Sum of electronic and thermal Free Energies=         -421.587438

                     E (Thermal)             CV                S
                      KCal/Mol        Cal/Mol-Kelvin    Cal/Mol-Kelvin
 Total                  136.314             36.618             93.563
 Electronic               0.000              0.000              0.000
 Translational            0.889              2.981             40.503
 Rotational               0.889              2.981             28.924
 Vibrational            134.537             30.656             24.137
 Vibration     1          0.599              1.965              3.969
 Vibration     2          0.619              1.901              2.648
 Vibration     3          0.625              1.880              2.437
 Vibration     4          0.638              1.838              2.123
 Vibration     5          0.643              1.824              2.033
 Vibration     6          0.660              1.770              1.761
 Vibration     7          0.668              1.746              1.662
 Vibration     8          0.719              1.596              1.214
 Vibration     9          0.759              1.488              0.995
 Vibration    10          0.768              1.465              0.955
 Vibration    11          0.843              1.280              0.693
 Vibration    12          0.890              1.173              0.576
 Vibration    13          0.898              1.156              0.559

                           ! Non-Optimized Parameters !
 Normal termination of Gaussian 16 at Thu Aug  4 00:24:56 2022.
