 Gaussian 16, Revision A.03,
 Gaussian 16:  ES64L-G16RevA.03 25-Dec-2016

 -----------------------------
 # opt freq b3lyp/6-31g(2df,p)
 -----------------------------

 -------------------
 Title Card Required
 -------------------
 Symbolic Z-matrix:
 Charge =  0 Multiplicity = 1

 SCF Done:  E(RB3LYP) =  -434.181688385     A.U. after   14 cycles
 SCF Done:  E(RB3LYP) =  -434.185467013     A.U. after   12 cycles
 SCF Done:  E(RB3LYP) =  -434.186508903     A.U. after   12 cycles
 SCF Done:  E(RB3LYP) =  -434.186898772     A.U. after   12 cycles
 SCF Done:  E(RB3LYP) =  -434.186931382     A.U. after   10 cycles
 SCF Done:  E(RB3LYP) =  -434.186941978     A.U. after    8 cycles
 SCF Done:  E(RB3LYP) =  -434.186942872     A.U. after    8 cycles
 SCF Done:  E(RB3LYP) =  -434.186943023     A.U. after    7 cycles
 Optimization completed.
    -- Stationary point found.
 Normal termination of Gaussian 16 at Sun Jul  3 09:12:49 2022.

 ----------------------------------------------------------------------
 #N Geom=AllCheck Guess=TCheck SCRF=Check GenChk RB3LYP/6-31G(2df,p) Fr
 eq
 ----------------------------------------------------------------------

 Structure from the checkpoint file:  "Cc1nccpONpcn1.chk"
 -------------------
 Title Card Required
 -------------------
 Charge =  0 Multiplicity = 1

                         Standard orientation:
 ---------------------------------------------------------------------
 Center     Atomic      Atomic             Coordinates (Angstroms)
 Number     Number       Type             X           Y           Z
 ---------------------------------------------------------------------
      1          6           0        3.227760   -0.292396    0.000165
      2          6           0        1.737478   -0.086376   -0.000817
      3          7           0        1.281334    1.173983   -0.001118
      4          6           0       -0.037642    1.341092   -0.000309
      5          6           0       -0.922703    0.264217    0.000845
      6          8           0       -2.254953    0.564289    0.002421
      7          7           0       -3.089437   -0.609013   -0.001923
      8          6           0       -0.355309   -1.008287    0.000624
      9          7           0        0.966622   -1.179384   -0.000302
     10          1           0        3.741860    0.668802   -0.023069
     11          1           0        3.532191   -0.889314   -0.865298
     12          1           0        3.536750   -0.846164    0.892679
     13          1           0       -0.420817    2.359252   -0.000792
     14          1           0       -3.687544   -0.458657   -0.814046
     15          1           0       -3.688060   -0.464570    0.810884
     16          1           0       -0.981905   -1.892267    0.000619
 ---------------------------------------------------------------------

 SCF Done:  E(RB3LYP) =  -434.186943023     A.U. after    1 cycles

 The electronic state is 1-A.
 Alpha  occ. eigenvalues --  -19.20805 -14.39400 -14.32411 -14.32225 -10.24868
 Alpha  occ. eigenvalues --  -10.24097 -10.22451 -10.22178 -10.17085  -1.10417
 Alpha  occ. eigenvalues --   -0.97528  -0.87673  -0.86248  -0.77561  -0.69898
 Alpha  occ. eigenvalues --   -0.65744  -0.60947  -0.54287  -0.53233  -0.51999
 Alpha  occ. eigenvalues --   -0.48708  -0.44267  -0.43843  -0.41356  -0.39815
 Alpha  occ. eigenvalues --   -0.38676  -0.37767  -0.35111  -0.30670  -0.30359
 Alpha  occ. eigenvalues --   -0.28472  -0.23523  -0.23491
 Alpha virt. eigenvalues --   -0.03071  -0.00141   0.05547   0.07969   0.12989
 Alpha virt. eigenvalues --    0.13008   0.13590   0.14217   0.16515   0.18231
 Alpha virt. eigenvalues --    0.19942   0.21816   0.22989   0.25603   0.28749

 Mulliken charges:
               1
     1  C   -0.459189
     2  C    0.344518
     3  N   -0.273863
     4  C   -0.069731
     5  C    0.315051
     6  O   -0.296200
     7  N   -0.376708
     8  C   -0.090109
     9  N   -0.277813
    10  H    0.133285
    11  H    0.136046
    12  H    0.136081
    13  H    0.115931
    14  H    0.266050
    15  H    0.266047
    16  H    0.130604
 Sum of Mulliken charges =  -0.00000

 Dipole moment (field-independent basis, Debye):
    X=             -3.4520    Y=             -0.0520    Z=              0.0032  Tot=              3.4524
 Quadrupole moment (field-independent basis, Debye-Ang):
   XX=            -38.2651   YY=            -55.7332   ZZ=            -50.2385
   XY=              0.4615   XZ=              0.0159   YZ=             -0.0124

  Exact polarizability: 113.095   0.905  74.043   0.035  -0.019  43.367
 Approx polarizability: 159.327   0.369 135.461   0.026  -0.028  68.412

 ******    1 imaginary frequencies (negative Signs) ******

                      1                      2                      3
                      A                      A                      A
 Frequencies --    -13.1913                68.2203               121.7464
 Red. masses --      1.0510                 4.4610                 2.7803
 Frc consts  --      0.0001                 0.0122                 0.0243
 IR Inten    --      0.3779                 0.7871                 7.6789

                      4                      5                      6
                      A                      A                      A
 Frequencies --    160.5800               227.9477               363.2583
 Red. masses --      1.2155                 3.8705                 4.0345
 Frc consts  --      0.0185                 0.1185                 0.3137
 IR Inten    --     33.4479                 3.3609                 9.6183

                      7                      8                      9
                      A                      A                      A
 Frequencies --    363.7781               432.0816               438.3451
 Red. masses --      3.2589                 4.5363                 5.3001
 Frc consts  --      0.2541                 0.4990                 0.6000
 IR Inten    --      2.2388                 0.0080                 3.7796

                     10                     11                     12
                      A                      A                      A
 Frequencies --    524.2986               579.7799               648.9666
 Red. masses --      3.2103                 5.7727                 8.9752
 Frc consts  --      0.5199                 1.1433                 2.2271
 IR Inten    --      0.8367                17.8847                 8.1251

                     13                     14                     15
                      A                      A                      A
 Frequencies --    754.5797               776.1823               863.1645
 Red. masses --      5.1263                 3.1775                 7.4446
 Frc consts  --      1.7197                 1.1279                 3.2680
 IR Inten    --      9.7680                 7.7248                 0.7086

                     16                     17                     18
                      A                      A                      A
 Frequencies --    947.5164               954.9878               987.5119
 Red. masses --      7.3172                 1.6782                 1.3376
 Frc consts  --      3.8705                 0.9018                 0.7685
 IR Inten    --     10.6449                 6.7905                 0.4458

                     19                     20                     21
                      A                      A                      A
 Frequencies --   1008.7144              1045.3694              1067.8378
 Red. masses --      1.5106                 3.2014                 1.6463
 Frc consts  --      0.9056                 2.0612                 1.1060
 IR Inten    --      3.6604                 5.2058                 7.0942

                     22                     23                     24
                      A                      A                      A
 Frequencies --   1174.9896              1241.8345              1281.1910
 Red. masses --      1.5986                 7.2256                 1.5689
 Frc consts  --      1.3003                 6.5653                 1.5173
 IR Inten    --     77.4792                 8.1918                12.8279

                     25                     26                     27
                      A                      A                      A
 Frequencies --   1303.1006              1316.0212              1335.4370
 Red. masses --      1.9209                 3.6986                 1.1085
 Frc consts  --      1.9218                 3.7741                 1.1647
 IR Inten    --     41.2965                64.4052                 0.7252

                     28                     29                     30
                      A                      A                      A
 Frequencies --   1405.9778              1418.6727              1471.2261
 Red. masses --      1.3514                 2.6923                 1.7873
 Frc consts  --      1.5739                 3.1925                 2.2793
 IR Inten    --      2.5344                 0.0872               159.3349

                     31                     32                     33
                      A                      A                      A
 Frequencies --   1480.5454              1488.6140              1591.4971
 Red. masses --      1.0466                 1.6744                 6.1725
 Frc consts  --      1.3517                 2.1861                 9.2113
 IR Inten    --      4.8153               149.2133                45.0318

                     34                     35                     36
                      A                      A                      A
 Frequencies --   1619.9453              1660.0507              3045.3215
 Red. masses --      5.3511                 1.1288                 1.0376
 Frc consts  --      8.2736                 1.8328                 5.6697
 IR Inten    --      0.0037                34.3198                14.7191

                     37                     38                     39
                      A                      A                      A
 Frequencies --   3101.0161              3152.1314              3153.5450
 Red. masses --      1.0992                 1.1003                 1.0910
 Frc consts  --      6.2276                 6.4414                 6.3923
 IR Inten    --     11.5738                10.6929                14.1297

                     40                     41                     42
                      A                      A                      A
 Frequencies --   3204.2948              3441.1394              3525.2673
 Red. masses --      1.0904                 1.0478                 1.0957
 Frc consts  --      6.5962                 7.3105                 8.0229
 IR Inten    --      5.6056                 1.4332                 3.0954

 - Thermochemistry -
 -------------------
 Temperature   298.150 Kelvin.  Pressure   1.00000 Atm.
 Atom     1 has atomic number  6 and mass  12.00000

 Molecular mass:   125.05891 amu.
 Principal axes and moments of inertia in atomic units:
                           1         2         3
     Eigenvalues --   354.558041766.845782100.77044
           X            1.00000   0.00151   0.00005
           Y           -0.00151   1.00000  -0.00008
           Z           -0.00005   0.00008   1.00000
 This molecule is an asymmetric top.
 Rotational symmetry number  1.
 Rotational temperatures (Kelvin)      0.24429     0.04902     0.04123
 Rotational constants (GHZ):           5.09012     1.02145     0.85909
    1 imaginary frequencies ignored.
 Zero-point vibrational energy     327457.9 (Joules/Mol)
                                   78.26432 (Kcal/Mol)
 Warning -- explicit consideration of  10 degrees of freedom as
           vibrations may cause significant error
 Vibrational temperatures:     98.15   175.17   231.04   327.97   522.65
          (Kelvin)            523.40   621.67   630.68   754.35   834.17
                              933.72  1085.67  1116.75  1241.90  1363.26
                             1374.01  1420.81  1451.32  1504.05  1536.38
                             1690.55  1786.72  1843.35  1874.87  1893.46
                             1921.40  2022.89  2041.15  2116.77  2130.17
                             2141.78  2289.81  2330.74  2388.44  4381.54
                             4461.67  4535.21  4537.25  4610.27  4951.03
                             5072.07

 Zero-point correction=                           0.124722 (Hartree/Particle)
 Thermal correction to Energy=                    0.132526
 Thermal correction to Enthalpy=                  0.133470
 Thermal correction to Gibbs Free Energy=         0.091847
 Sum of electronic and zero-point Energies=           -434.062221
 Sum of electronic and thermal Energies=              -434.054417
 Sum of electronic and thermal Enthalpies=            -434.053473
 Sum of electronic and thermal Free Energies=         -434.095096

                     E (Thermal)             CV                S
                      KCal/Mol        Cal/Mol-Kelvin    Cal/Mol-Kelvin
 Total                   83.161             28.438             87.604
 Electronic               0.000              0.000              0.000
 Translational            0.889              2.981             40.385
 Rotational               0.889              2.981             28.666
 Vibrational             81.384             22.476             18.553
 Vibration     1          0.598              1.969              4.204
 Vibration     2          0.609              1.931              3.072
 Vibration     3          0.622              1.891              2.543
 Vibration     4          0.651              1.798              1.895
 Vibration     5          0.737              1.548              1.108
 Vibration     6          0.737              1.547              1.106
 Vibration     7          0.793              1.400              0.852
 Vibration     8          0.799              1.387              0.832
 Vibration     9          0.879              1.196              0.600
 Vibration    10          0.936              1.075              0.486

                           ! Non-Optimized Parameters !
 Normal termination of Gaussian 16 at Sun Jul  3 09:33:02 2022.
