 Gaussian 16, Revision A.03,
 Gaussian 16:  ES64L-G16RevA.03 25-Dec-2016

 -----------------------------
 # opt freq b3lyp/6-31g(2df,p)
 -----------------------------

 -------------------
 Title Card Required
 -------------------
 Symbolic Z-matrix:
 Charge =  0 Multiplicity = 1

 SCF Done:  E(RB3LYP) =  -383.398713214     A.U. after   14 cycles
 SCF Done:  E(RB3LYP) =  -383.411370205     A.U. after   12 cycles
 SCF Done:  E(RB3LYP) =  -383.412977928     A.U. after   11 cycles
 SCF Done:  E(RB3LYP) =  -383.413682737     A.U. after   11 cycles
 SCF Done:  E(RB3LYP) =  -383.414599985     A.U. after   12 cycles
 SCF Done:  E(RB3LYP) =  -383.414868656     A.U. after   12 cycles
 SCF Done:  E(RB3LYP) =  -383.414945043     A.U. after   12 cycles
 SCF Done:  E(RB3LYP) =  -383.415551368     A.U. after   11 cycles
 SCF Done:  E(RB3LYP) =  -383.417133893     A.U. after   13 cycles
 SCF Done:  E(RB3LYP) =  -383.416857126     A.U. after   12 cycles
 SCF Done:  E(RB3LYP) =  -383.420181116     A.U. after   12 cycles
 SCF Done:  E(RB3LYP) =  -383.420311324     A.U. after   11 cycles
 SCF Done:  E(RB3LYP) =  -383.420281634     A.U. after   12 cycles
 SCF Done:  E(RB3LYP) =  -383.420377882     A.U. after   12 cycles
 SCF Done:  E(RB3LYP) =  -383.420407145     A.U. after   11 cycles
 SCF Done:  E(RB3LYP) =  -383.420414004     A.U. after   12 cycles
 SCF Done:  E(RB3LYP) =  -383.420426960     A.U. after   11 cycles
 SCF Done:  E(RB3LYP) =  -383.420428404     A.U. after    9 cycles
 SCF Done:  E(RB3LYP) =  -383.420428500     A.U. after    8 cycles
 Optimization completed.
    -- Stationary point found.
 Normal termination of Gaussian 16 at Thu Aug  4 11:09:07 2022.

 ----------------------------------------------------------------------
 #N Geom=AllCheck Guess=TCheck SCRF=Check GenChk RB3LYP/6-31G(2df,p) Fr
 eq
 ----------------------------------------------------------------------

 Structure from the checkpoint file:  "CC1NCC1dCCCdN.chk"
 -------------------
 Title Card Required
 -------------------
 Charge =  0 Multiplicity = 1

                         Standard orientation:
 ---------------------------------------------------------------------
 Center     Atomic      Atomic             Coordinates (Angstroms)
 Number     Number       Type             X           Y           Z
 ---------------------------------------------------------------------
      1          6           0       -1.946605    1.738560   -0.300151
      2          6           0       -1.532066    0.515620    0.519176
      3          7           0       -2.581005   -0.540226    0.668103
      4          6           0       -1.853541   -1.451291   -0.261091
      5          6           0       -0.666548   -0.508657   -0.206633
      6          6           0        0.599648   -0.581149   -0.590793
      7          6           0        1.640703    0.487624   -0.363672
      8          6           0        2.765916   -0.009728    0.521940
      9          7           0        4.000123   -0.100060    0.244068
     10          1           0       -2.756575    2.277069    0.205183
     11          1           0       -2.293831    1.447192   -1.297068
     12          1           0       -1.111001    2.435331   -0.423309
     13          1           0       -1.145369    0.845484    1.492849
     14          1           0       -3.492116   -0.250085    0.328388
     15          1           0       -2.298365   -1.547897   -1.262168
     16          1           0       -1.700059   -2.460007    0.140385
     17          1           0        0.948634   -1.485771   -1.086948
     18          1           0        1.177141    1.358617    0.116076
     19          1           0        2.065498    0.826552   -1.318318
     20          1           0        2.450112   -0.339329    1.518389
     21          1           0        4.177069    0.228968   -0.711314
 ---------------------------------------------------------------------

 SCF Done:  E(RB3LYP) =  -383.420428500     A.U. after    1 cycles

 The electronic state is 1-A.
 Alpha  occ. eigenvalues --  -14.31393 -14.31277 -10.22783 -10.21885 -10.21187
 Alpha  occ. eigenvalues --  -10.20063 -10.19300 -10.18813 -10.18634  -0.92993
 Alpha  occ. eigenvalues --   -0.89953  -0.79431  -0.74364  -0.71699  -0.64631
 Alpha  occ. eigenvalues --   -0.62770  -0.58498  -0.51898  -0.50091  -0.47211
 Alpha  occ. eigenvalues --   -0.46499  -0.45403  -0.42938  -0.41076  -0.40328
 Alpha  occ. eigenvalues --   -0.38452  -0.38093  -0.36727  -0.35286  -0.31829
 Alpha  occ. eigenvalues --   -0.30267  -0.26825  -0.25105  -0.22292
 Alpha virt. eigenvalues --   -0.01105   0.02510   0.07652   0.09356   0.10620
 Alpha virt. eigenvalues --    0.11504   0.13363   0.13884   0.14830   0.15024
 Alpha virt. eigenvalues --    0.15995   0.16515   0.17928   0.18815   0.19868

 Mulliken charges:
               1
     1  C   -0.404201
     2  C   -0.037661
     3  N   -0.327323
     4  C   -0.258210
     5  C    0.349552
     6  C   -0.225285
     7  C   -0.308905
     8  C    0.077104
     9  N   -0.385330
    10  H    0.120660
    11  H    0.116616
    12  H    0.122474
    13  H    0.085034
    14  H    0.213486
    15  H    0.104641
    16  H    0.117370
    17  H    0.092184
    18  H    0.117672
    19  H    0.105370
    20  H    0.111209
    21  H    0.213544
 Sum of Mulliken charges =   0.00000

 Dipole moment (field-independent basis, Debye):
    X=             -2.2726    Y=              1.2195    Z=             -2.0692  Tot=              3.3066
 Quadrupole moment (field-independent basis, Debye-Ang):
   XX=            -65.2092   YY=            -53.7286   ZZ=            -55.9057
   XY=              1.1319   XZ=             -2.0274   YZ=              1.8681

  Exact polarizability: 123.030   0.045  77.987  -6.178   1.785  68.701
 Approx polarizability: 166.336  -0.344 109.652 -13.510   3.426 106.125

                      1                      2                      3
                      A                      A                      A
 Frequencies --     46.1006                63.8891                86.8721
 Red. masses --      3.7090                 3.7079                 2.4883
 Frc consts  --      0.0046                 0.0089                 0.0111
 IR Inten    --      1.1733                 0.8359                 1.7809

                      4                      5                      6
                      A                      A                      A
 Frequencies --    152.9734               163.9305               228.8968
 Red. masses --      2.7989                 2.2343                 2.1224
 Frc consts  --      0.0386                 0.0354                 0.0655
 IR Inten    --      1.8022                 1.3105                 1.1291

                      7                      8                      9
                      A                      A                      A
 Frequencies --    251.2281               358.0900               371.6584
 Red. masses --      1.1755                 3.0137                 2.3578
 Frc consts  --      0.0437                 0.2277                 0.1919
 IR Inten    --      0.7811                 2.3711                 3.1705

                     10                     11                     12
                      A                      A                      A
 Frequencies --    423.1137               508.2078               550.5452
 Red. masses --      2.9001                 1.9844                 2.6293
 Frc consts  --      0.3059                 0.3020                 0.4696
 IR Inten    --      5.3555                 3.7016                 5.3171

                     13                     14                     15
                      A                      A                      A
 Frequencies --    670.5354               737.6328               770.4325
 Red. masses --      3.1969                 1.9358                 1.8484
 Frc consts  --      0.8469                 0.6206                 0.6464
 IR Inten    --     12.8194                50.4072                26.0676

                     16                     17                     18
                      A                      A                      A
 Frequencies --    813.3537               855.9938               922.0997
 Red. masses --      2.3378                 1.3357                 1.9238
 Frc consts  --      0.9112                 0.5766                 0.9638
 IR Inten    --     11.8409                15.0843                17.1007

                     19                     20                     21
                      A                      A                      A
 Frequencies --    941.4562               977.1495              1013.8050
 Red. masses --      1.6896                 1.9206                 2.4617
 Frc consts  --      0.8823                 1.0804                 1.4907
 IR Inten    --      9.3209                 5.8416                 2.1597

                     22                     23                     24
                      A                      A                      A
 Frequencies --   1018.5453              1060.3264              1067.4185
 Red. masses --      1.8243                 2.2551                 2.9938
 Frc consts  --      1.1151                 1.4938                 2.0098
 IR Inten    --     12.1032                 5.6553                 1.8475

                     25                     26                     27
                      A                      A                      A
 Frequencies --   1095.5080              1108.5930              1122.0209
 Red. masses --      2.7128                 1.6295                 1.6527
 Frc consts  --      1.9183                 1.1799                 1.2259
 IR Inten    --     23.0445                 1.8290                11.5056

                     28                     29                     30
                      A                      A                      A
 Frequencies --   1149.4552              1172.5684              1201.9154
 Red. masses --      1.1408                 1.3924                 1.4526
 Frc consts  --      0.8880                 1.1280                 1.2363
 IR Inten    --     35.2576                 3.3606                18.8501

                     31                     32                     33
                      A                      A                      A
 Frequencies --   1264.8367              1277.3115              1302.4896
 Red. masses --      1.3235                 1.4110                 1.3432
 Frc consts  --      1.2475                 1.3563                 1.3426
 IR Inten    --      1.3320                25.4471                81.0017

                     34                     35                     36
                      A                      A                      A
 Frequencies --   1315.1739              1332.6262              1369.0341
 Red. masses --      1.3717                 1.2577                 1.4180
 Frc consts  --      1.3979                 1.3160                 1.5659
 IR Inten    --     14.7654                 1.4776                 1.1429

                     37                     38                     39
                      A                      A                      A
 Frequencies --   1389.0982              1403.7421              1417.3760
 Red. masses --      1.4249                 1.2338                 1.2132
 Frc consts  --      1.6199                 1.4324                 1.4360
 IR Inten    --     21.1956                 3.5086                29.1929

                     40                     41                     42
                      A                      A                      A
 Frequencies --   1462.4512              1490.1036              1492.9917
 Red. masses --      1.0939                 1.0563                 1.0460
 Frc consts  --      1.3785                 1.3819                 1.3738
 IR Inten    --      5.5109                 1.3553                 3.1660

                     43                     44                     45
                      A                      A                      A
 Frequencies --   1501.1723              1724.9699              1786.8809
 Red. masses --      1.0952                 8.5190                 9.0951
 Frc consts  --      1.4541                14.9348                17.1099
 IR Inten    --      0.6234                81.1140                 6.2840

                     46                     47                     48
                      A                      A                      A
 Frequencies --   2991.8874              3004.5808              3010.0915
 Red. masses --      1.0646                 1.0830                 1.0608
 Frc consts  --      5.6149                 5.7603                 5.6629
 IR Inten    --     68.2287                17.2863                19.4844

                     49                     50                     51
                      A                      A                      A
 Frequencies --   3025.5107              3043.5510              3055.7597
 Red. masses --      1.0348                 1.0986                 1.0949
 Frc consts  --      5.5809                 5.9959                 6.0235
 IR Inten    --     22.1500                34.9884                 7.7748

                     52                     53                     54
                      A                      A                      A
 Frequencies --   3075.0761              3094.9019              3103.4833
 Red. masses --      1.0921                 1.1011                 1.1019
 Frc consts  --      6.0843                 6.2140                 6.2528
 IR Inten    --     35.5561                25.7020                29.0077

                     55                     56                     57
                      A                      A                      A
 Frequencies --   3135.6466              3398.1398              3522.2138
 Red. masses --      1.0886                 1.0734                 1.0756
 Frc consts  --      6.3061                 7.3031                 7.8618
 IR Inten    --     14.4890                 5.5111                 0.9032

 - Thermochemistry -
 -------------------
 Temperature   298.150 Kelvin.  Pressure   1.00000 Atm.
 Atom     1 has atomic number  6 and mass  12.00000

 Molecular mass:   124.10005 amu.
 Principal axes and moments of inertia in atomic units:
                           1         2         3
     Eigenvalues --   499.403732376.770922637.48466
           X            0.99999  -0.00518  -0.00020
           Y            0.00518   0.99998   0.00398
           Z            0.00018  -0.00398   0.99999
 This molecule is an asymmetric top.
 Rotational symmetry number  1.
 Warning -- assumption of classical behavior for rotation
           may cause significant error
 Rotational temperatures (Kelvin)      0.17343     0.03644     0.03284
 Rotational constants (GHZ):           3.61379     0.75932     0.68427
 Zero-point vibrational energy     477880.7 (Joules/Mol)
                                  114.21623 (Kcal/Mol)
 Warning -- explicit consideration of  12 degrees of freedom as
           vibrations may cause significant error
 Vibrational temperatures:     66.33    91.92   124.99   220.09   235.86
          (Kelvin)            329.33   361.46   515.21   534.73   608.77
                              731.20   792.11   964.75  1061.29  1108.48
                             1170.23  1231.58  1326.70  1354.55  1405.90
                             1458.64  1465.46  1525.57  1535.78  1576.19
                             1595.02  1614.34  1653.81  1687.06  1729.29
                             1819.82  1837.77  1873.99  1892.24  1917.35
                             1969.73  1998.60  2019.67  2039.29  2104.14
                             2143.93  2148.08  2159.85  2481.85  2570.92
                             4304.66  4322.92  4330.85  4353.04  4378.99
                             4396.56  4424.35  4452.87  4465.22  4511.50
                             4889.17  5067.68

 Zero-point correction=                           0.182015 (Hartree/Particle)
 Thermal correction to Energy=                    0.191853
 Thermal correction to Enthalpy=                  0.192797
 Thermal correction to Gibbs Free Energy=         0.146042
 Sum of electronic and zero-point Energies=           -383.238413
 Sum of electronic and thermal Energies=              -383.228576
 Sum of electronic and thermal Enthalpies=            -383.227631
 Sum of electronic and thermal Free Energies=         -383.274386

                     E (Thermal)             CV                S
                      KCal/Mol        Cal/Mol-Kelvin    Cal/Mol-Kelvin
 Total                  120.389             35.335             98.404
 Electronic               0.000              0.000              0.000
 Translational            0.889              2.981             40.362
 Rotational               0.889              2.981             29.528
 Vibrational            118.612             29.373             28.515
 Vibration     1          0.595              1.979              4.978
 Vibration     2          0.597              1.972              4.333
 Vibration     3          0.601              1.958              3.729
 Vibration     4          0.619              1.899              2.635
 Vibration     5          0.623              1.887              2.504
 Vibration     6          0.652              1.797              1.888
 Vibration     7          0.663              1.761              1.722
 Vibration     8          0.733              1.559              1.130
 Vibration     9          0.743              1.530              1.073
 Vibration    10          0.785              1.420              0.881
 Vibration    11          0.863              1.232              0.638
 Vibration    12          0.906              1.138              0.543

 Optimization completed.
    -- Stationary point found.
 Normal termination of Gaussian 16 at Thu Aug  4 11:36:38 2022.
