 Gaussian 16, Revision A.03,
 Gaussian 16:  ES64L-G16RevA.03 25-Dec-2016

 -----------------------------
 # opt freq b3lyp/6-31g(2df,p)
 -----------------------------

 -------------------
 Title Card Required
 -------------------
 Symbolic Z-matrix:
 Charge =  0 Multiplicity = 1

 SCF Done:  E(RB3LYP) =  -358.898302101     A.U. after   15 cycles
 SCF Done:  E(RB3LYP) =  -358.904212901     A.U. after   14 cycles
 SCF Done:  E(RB3LYP) =  -358.905643479     A.U. after   14 cycles
 SCF Done:  E(RB3LYP) =  -358.907152130     A.U. after   15 cycles
 SCF Done:  E(RB3LYP) =  -358.909570111     A.U. after   15 cycles
 SCF Done:  E(RB3LYP) =  -358.912211017     A.U. after   14 cycles
 SCF Done:  E(RB3LYP) =  -358.918568424     A.U. after   15 cycles
 SCF Done:  E(RB3LYP) =  -358.922083445     A.U. after   14 cycles
 SCF Done:  E(RB3LYP) =  -358.922932936     A.U. after   13 cycles
 SCF Done:  E(RB3LYP) =  -358.922010400     A.U. after   14 cycles
 SCF Done:  E(RB3LYP) =  -358.923146991     A.U. after   11 cycles
 SCF Done:  E(RB3LYP) =  -358.923162738     A.U. after   11 cycles
 SCF Done:  E(RB3LYP) =  -358.923165536     A.U. after    8 cycles
 SCF Done:  E(RB3LYP) =  -358.923165980     A.U. after    8 cycles
 SCF Done:  E(RB3LYP) =  -358.923166040     A.U. after    7 cycles
 Optimization completed.
    -- Stationary point found.
 Normal termination of Gaussian 16 at Thu Aug  4 11:56:03 2022.

 ----------------------------------------------------------------------
 #N Geom=AllCheck Guess=TCheck SCRF=Check GenChk RB3LYP/6-31G(2df,p) Fr
 eq
 ----------------------------------------------------------------------

 Structure from the checkpoint file:  "CC1NdCCdCNdN1.chk"
 -------------------
 Title Card Required
 -------------------
 Charge =  0 Multiplicity = 1

                         Standard orientation:
 ---------------------------------------------------------------------
 Center     Atomic      Atomic             Coordinates (Angstroms)
 Number     Number       Type             X           Y           Z
 ---------------------------------------------------------------------
      1          6           0        1.582871   -0.030780    1.174903
      2          6           0        1.235579    0.152470   -0.305249
      3          7           0        0.455829    1.314992   -0.643483
      4          6           0       -0.762126    1.435553   -0.237132
      5          6           0       -1.587959    0.474117    0.443982
      6          6           0       -1.343702   -0.864545    0.439523
      7          7           0       -0.490660   -1.485022   -0.457004
      8          7           0        0.572522   -1.069809   -0.928548
      9          1           0        2.139225    0.847994    1.512181
     10          1           0        2.226984   -0.907715    1.287851
     11          1           0        0.711294   -0.151716    1.817101
     12          1           0        2.172858    0.229764   -0.861373
     13          1           0       -1.239492    2.389843   -0.473230
     14          1           0       -2.515592    0.831168    0.883857
     15          1           0       -2.007085   -1.561346    0.940692
 ---------------------------------------------------------------------

 SCF Done:  E(RB3LYP) =  -358.923166040     A.U. after    1 cycles

 The electronic state is 1-A.
 Alpha  occ. eigenvalues --  -14.39721 -14.39144 -14.33579 -10.24468 -10.24058
 Alpha  occ. eigenvalues --  -10.23671 -10.21346 -10.18849  -1.04946  -0.92776
 Alpha  occ. eigenvalues --   -0.83514  -0.76078  -0.71777  -0.67476  -0.57950
 Alpha  occ. eigenvalues --   -0.55787  -0.52981  -0.47065  -0.45980  -0.44162
 Alpha  occ. eigenvalues --   -0.43022  -0.40610  -0.39400  -0.38723  -0.34461
 Alpha  occ. eigenvalues --   -0.34237  -0.27468  -0.26300  -0.22325
 Alpha virt. eigenvalues --   -0.08539  -0.02558   0.05832   0.09230   0.11410
 Alpha virt. eigenvalues --    0.14332   0.14660   0.15872   0.16780   0.17975
 Alpha virt. eigenvalues --    0.19053   0.21266   0.23414   0.25746   0.29738

 Mulliken charges:
               1
     1  C   -0.408617
     2  C    0.048943
     3  N   -0.190107
     4  C    0.006153
     5  C   -0.089935
     6  C   -0.037195
     7  N   -0.067479
     8  N   -0.123575
     9  H    0.136498
    10  H    0.132147
    11  H    0.135027
    12  H    0.103873
    13  H    0.115222
    14  H    0.110879
    15  H    0.128167
 Sum of Mulliken charges =   0.00000

 Dipole moment (field-independent basis, Debye):
    X=             -1.2430    Y=              0.5930    Z=              2.6160  Tot=              2.9564
 Quadrupole moment (field-independent basis, Debye-Ang):
   XX=            -41.3209   YY=            -49.7944   ZZ=            -49.1207
   XY=             -1.7347   XZ=             -0.1443   YZ=             -1.6818

  Exact polarizability:  81.232  -3.172  77.020  -9.323  -0.478  52.343
 Approx polarizability: 136.894  -5.473 150.615 -30.101   3.771  88.562

                      1                      2                      3
                      A                      A                      A
 Frequencies --    181.9818               190.4339               227.0628
 Red. masses --      1.2787                 2.2536                 3.1048
 Frc consts  --      0.0249                 0.0482                 0.0943
 IR Inten    --      1.3792                 2.8326                 4.8103

                      4                      5                      6
                      A                      A                      A
 Frequencies --    320.5679               356.9289               419.0521
 Red. masses --      4.2508                 4.7332                 4.5034
 Frc consts  --      0.2574                 0.3553                 0.4659
 IR Inten    --      4.0882                10.5546                 7.6633

                      7                      8                      9
                      A                      A                      A
 Frequencies --    450.6161               546.8498               657.5419
 Red. masses --      4.4983                 3.9613                 4.0784
 Frc consts  --      0.5382                 0.6980                 1.0389
 IR Inten    --      0.2169                 3.7300                12.2566

                     10                     11                     12
                      A                      A                      A
 Frequencies --    721.3838               794.6327               816.2818
 Red. masses --      4.6843                 1.4282                 4.5314
 Frc consts  --      1.4362                 0.5313                 1.7789
 IR Inten    --      3.4296                27.6719                16.8298

                     13                     14                     15
                      A                      A                      A
 Frequencies --    844.8615               878.9284               950.6876
 Red. masses --      2.7337                 4.6943                 1.3708
 Frc consts  --      1.1496                 2.1366                 0.7300
 IR Inten    --      7.6964                 8.7329                 9.7143

                     16                     17                     18
                      A                      A                      A
 Frequencies --    978.0485               988.3295              1032.8310
 Red. masses --      3.4358                 1.6939                 2.0250
 Frc consts  --      1.9364                 0.9748                 1.2727
 IR Inten    --      1.6456                 2.0311                 1.9842

                     19                     20                     21
                      A                      A                      A
 Frequencies --   1059.7803              1116.4692              1134.8820
 Red. masses --      2.0599                 2.5329                 1.9934
 Frc consts  --      1.3631                 1.8602                 1.5127
 IR Inten    --     14.9593                11.9830                12.0208

                     22                     23                     24
                      A                      A                      A
 Frequencies --   1235.8518              1345.2424              1392.1602
 Red. masses --      1.2418                 1.1964                 1.2675
 Frc consts  --      1.1175                 1.2756                 1.4473
 IR Inten    --     13.8823                 6.0531                11.9629

                     25                     26                     27
                      A                      A                      A
 Frequencies --   1396.3009              1406.8648              1444.5240
 Red. masses --      1.2084                 1.2392                 1.5498
 Frc consts  --      1.3881                 1.4451                 1.9054
 IR Inten    --      5.8465                 3.9046                 8.1362

                     28                     29                     30
                      A                      A                      A
 Frequencies --   1487.8579              1497.5727              1548.7351
 Red. masses --      1.0495                 1.0514                 6.3350
 Frc consts  --      1.3689                 1.3893                 8.9527
 IR Inten    --      6.5175                 4.5982                43.7541

                     31                     32                     33
                      A                      A                      A
 Frequencies --   1639.1726              1660.9386              3054.8571
 Red. masses --      7.2844                 6.0944                 1.0382
 Frc consts  --     11.5318                 9.9058                 5.7086
 IR Inten    --     40.8675                44.7918                12.8777

                     34                     35                     36
                      A                      A                      A
 Frequencies --   3073.9690              3096.0351              3120.1721
 Red. masses --      1.0856                 1.0868                 1.1018
 Frc consts  --      6.0440                 6.1377                 6.3200
 IR Inten    --     37.9781                26.7198                 8.6884

                     37                     38                     39
                      A                      A                      A
 Frequencies --   3159.1017              3159.9976              3192.9162
 Red. masses --      1.0979                 1.0877                 1.0929
 Frc consts  --      6.4558                 6.3993                 6.5648
 IR Inten    --      9.3594                12.6592                 8.4605

 - Thermochemistry -
 -------------------
 Temperature   298.150 Kelvin.  Pressure   1.00000 Atm.
 Atom     1 has atomic number  6 and mass  12.00000

 Molecular mass:   109.06400 amu.
 Principal axes and moments of inertia in atomic units:
                           1         2         3
     Eigenvalues --   613.27035 709.15708 940.75722
           X            0.99788  -0.06089   0.02303
           Y            0.06164   0.99754  -0.03345
           Z           -0.02094   0.03480   0.99917
 This molecule is an asymmetric top.
 Rotational symmetry number  1.
 Warning -- assumption of classical behavior for rotation
           may cause significant error
 Rotational temperatures (Kelvin)      0.14123     0.12214     0.09207
 Rotational constants (GHZ):           2.94282     2.54491     1.91839
 Zero-point vibrational energy     314500.8 (Joules/Mol)
                                   75.16749 (Kcal/Mol)
 Warning -- explicit consideration of   8 degrees of freedom as
           vibrations may cause significant error
 Vibrational temperatures:    261.83   273.99   326.69   461.23   513.54
          (Kelvin)            602.92   648.34   786.79   946.06  1037.91
                             1143.30  1174.45  1215.57  1264.58  1367.83
                             1407.19  1421.99  1486.01  1524.79  1606.35
                             1632.84  1778.12  1935.50  2003.01  2008.97
                             2024.16  2078.35  2140.70  2154.67  2228.28
                             2358.40  2389.72  4395.26  4422.76  4454.50
                             4489.23  4545.24  4546.53  4593.89

 Zero-point correction=                           0.119787 (Hartree/Particle)
 Thermal correction to Energy=                    0.126615
 Thermal correction to Enthalpy=                  0.127559
 Thermal correction to Gibbs Free Energy=         0.089203
 Sum of electronic and zero-point Energies=           -358.803379
 Sum of electronic and thermal Energies=              -358.796551
 Sum of electronic and thermal Enthalpies=            -358.795607
 Sum of electronic and thermal Free Energies=         -358.833963

                     E (Thermal)             CV                S
                      KCal/Mol        Cal/Mol-Kelvin    Cal/Mol-Kelvin
 Total                   79.452             26.132             80.728
 Electronic               0.000              0.000              0.000
 Translational            0.889              2.981             39.977
 Rotational               0.889              2.981             27.506
 Vibrational             77.675             20.170             13.246
 Vibration     1          0.630              1.864              2.308
 Vibration     2          0.634              1.853              2.224
 Vibration     3          0.651              1.800              1.902
 Vibration     4          0.706              1.634              1.307
 Vibration     5          0.732              1.561              1.135
 Vibration     6          0.782              1.429              0.895
 Vibration     7          0.809              1.360              0.794
 Vibration     8          0.902              1.147              0.551

 Optimization completed.
    -- Stationary point found.
 Normal termination of Gaussian 16 at Thu Aug  4 12:15:51 2022.
