 Gaussian 16, Revision A.03,
 Gaussian 16:  ES64L-G16RevA.03 25-Dec-2016

 -----------------------------
 # opt freq b3lyp/6-31g(2df,p)
 -----------------------------

 -------------------
 Title Card Required
 -------------------
 Symbolic Z-matrix:
 Charge =  0 Multiplicity = 1

 SCF Done:  E(RB3LYP) =  -390.900098510     A.U. after   17 cycles
 SCF Done:  E(RB3LYP) =  -390.910351203     A.U. after   15 cycles
 SCF Done:  E(RB3LYP) =  -390.912392297     A.U. after   15 cycles
 SCF Done:  E(RB3LYP) =  -390.913328865     A.U. after   15 cycles
 SCF Done:  E(RB3LYP) =  -390.915845839     A.U. after   16 cycles
 SCF Done:  E(RB3LYP) =  -390.918526527     A.U. after   15 cycles
 SCF Done:  E(RB3LYP) =  -390.924118094     A.U. after   16 cycles
 SCF Done:  E(RB3LYP) =  -390.926995752     A.U. after   16 cycles
 SCF Done:  E(RB3LYP) =  -390.935622772     A.U. after   14 cycles
 SCF Done:  E(RB3LYP) =  -390.938957355     A.U. after   15 cycles
 SCF Done:  E(RB3LYP) =  -390.939543078     A.U. after   14 cycles
 SCF Done:  E(RB3LYP) =  -390.940017149     A.U. after   14 cycles
 SCF Done:  E(RB3LYP) =  -390.940248364     A.U. after   12 cycles
 SCF Done:  E(RB3LYP) =  -390.940280477     A.U. after   11 cycles
 SCF Done:  E(RB3LYP) =  -390.940284503     A.U. after   10 cycles
 SCF Done:  E(RB3LYP) =  -390.940285257     A.U. after    9 cycles
 Optimization completed.
    -- Stationary point found.
 Normal termination of Gaussian 16 at Sun Jul  3 23:33:55 2022.

 ----------------------------------------------------------------------
 #N Geom=AllCheck Guess=TCheck SCRF=Check GenChk RB3LYP/6-31G(2df,p) Fr
 eq
 ----------------------------------------------------------------------

 Structure from the checkpoint file:  "CC1NdNCdNNdN1.chk"
 -------------------
 Title Card Required
 -------------------
 Charge =  0 Multiplicity = 1

                         Standard orientation:
 ---------------------------------------------------------------------
 Center     Atomic      Atomic             Coordinates (Angstroms)
 Number     Number       Type             X           Y           Z
 ---------------------------------------------------------------------
      1          6           0       -1.574518   -0.044639    1.144295
      2          6           0       -1.183098    0.003266   -0.334440
      3          7           0       -0.419385   -1.147854   -0.888661
      4          7           0        0.697464   -1.419054   -0.402280
      5          6           0        1.342163   -0.613558    0.531783
      6          7           0        1.371232    0.678469    0.604808
      7          7           0        0.714649    1.436684   -0.342568
      8          7           0       -0.410625    1.196234   -0.801674
      9          1           0       -2.206840   -0.921745    1.307746
     10          1           0       -2.168444    0.845449    1.369075
     11          1           0       -0.739188   -0.078785    1.839622
     12          1           0       -2.098489    0.031327   -0.926436
     13          1           0        2.032337   -1.158014    1.172799
 ---------------------------------------------------------------------

 SCF Done:  E(RB3LYP) =  -390.940285257     A.U. after    1 cycles

 The electronic state is 1-A.
 Alpha  occ. eigenvalues --  -14.43629 -14.42025 -14.41390 -14.40743 -14.39079
 Alpha  occ. eigenvalues --  -10.28730 -10.27176 -10.21317  -1.10551  -1.05330
 Alpha  occ. eigenvalues --   -0.94654  -0.82327  -0.77794  -0.72048  -0.64279
 Alpha  occ. eigenvalues --   -0.60227  -0.54059  -0.50770  -0.49758  -0.43996
 Alpha  occ. eigenvalues --   -0.43343  -0.41758  -0.41052  -0.40233  -0.38139
 Alpha  occ. eigenvalues --   -0.33501  -0.31456  -0.26622  -0.24380
 Alpha virt. eigenvalues --   -0.11049  -0.07036   0.00983   0.09093   0.11285
 Alpha virt. eigenvalues --    0.12558   0.13556   0.14193   0.15987   0.17591
 Alpha virt. eigenvalues --    0.20396   0.23225   0.27349   0.30816   0.37197

 Mulliken charges:
               1
     1  C   -0.421709
     2  C    0.052501
     3  N   -0.096720
     4  N   -0.093114
     5  C    0.093305
     6  N   -0.167581
     7  N   -0.017121
     8  N   -0.082845
     9  H    0.147876
    10  H    0.151892
    11  H    0.153979
    12  H    0.126833
    13  H    0.152703
 Sum of Mulliken charges =  -0.00000

 Dipole moment (field-independent basis, Debye):
    X=             -1.6533    Y=             -1.2686    Z=              2.3176  Tot=              3.1167
 Quadrupole moment (field-independent basis, Debye-Ang):
   XX=            -42.6231   YY=            -52.0705   ZZ=            -47.0177
   XY=             -2.8238   XZ=             -0.6831   YZ=             -2.0108

  Exact polarizability:  68.450  -1.981  65.591   7.726  -1.313  50.681
 Approx polarizability: 118.283   0.111 136.723  26.977   0.026  88.082

                      1                      2                      3
                      A                      A                      A
 Frequencies --    120.7172               206.4668               219.2307
 Red. masses --      1.0481                 3.5914                 4.3916
 Frc consts  --      0.0090                 0.0902                 0.1244
 IR Inten    --      0.0788                 6.4359                 3.8574

                      4                      5                      6
                      A                      A                      A
 Frequencies --    322.6408               353.0779               391.0240
 Red. masses --      5.2131                 6.8838                 7.3369
 Frc consts  --      0.3197                 0.5056                 0.6610
 IR Inten    --     11.4050                 8.3267                10.3154

                      7                      8                      9
                      A                      A                      A
 Frequencies --    449.5805               548.7471               709.8704
 Red. masses --      5.0178                 5.0554                 5.1073
 Frc consts  --      0.5976                 0.8969                 1.5163
 IR Inten    --     13.3003                 2.6735                16.4681

                     10                     11                     12
                      A                      A                      A
 Frequencies --    754.8836               774.3024               811.9513
 Red. masses --      4.2719                 6.4320                 4.8788
 Frc consts  --      1.4343                 2.2720                 1.8951
 IR Inten    --      4.0352                 6.0792                 9.0270

                     13                     14                     15
                      A                      A                      A
 Frequencies --    879.1992               923.0505               958.7613
 Red. masses --      4.0552                 7.0865                 1.6881
 Frc consts  --      1.8469                 3.5574                 0.9143
 IR Inten    --     11.7455                15.4070                 2.8263

                     16                     17                     18
                      A                      A                      A
 Frequencies --   1034.6702              1057.9687              1082.3430
 Red. masses --      2.9598                 3.4049                 1.9887
 Frc consts  --      1.8669                 2.2454                 1.3726
 IR Inten    --     24.7853                16.1945                 5.5924

                     19                     20                     21
                      A                      A                      A
 Frequencies --   1139.3556              1320.0111              1372.1879
 Red. masses --      2.2998                 1.2452                 1.3079
 Frc consts  --      1.7590                 1.2783                 1.4509
 IR Inten    --     23.3535                22.9188                 5.1427

                     22                     23                     24
                      A                      A                      A
 Frequencies --   1390.4374              1404.7529              1489.7429
 Red. masses --      1.2292                 1.1948                 1.0499
 Frc consts  --      1.4002                 1.3891                 1.3728
 IR Inten    --      4.8693                 5.9527                 8.4624

                     25                     26                     27
                      A                      A                      A
 Frequencies --   1497.5793              1513.3640              1573.5440
 Red. masses --      1.0645                 7.7497                 6.4101
 Frc consts  --      1.4067                10.4574                 9.3513
 IR Inten    --      6.2996                20.0035                51.0900

                     28                     29                     30
                      A                      A                      A
 Frequencies --   1611.7329              3061.0362              3106.9704
 Red. masses --      6.7357                 1.0394                 1.0872
 Frc consts  --     10.3091                 5.7383                 6.1835
 IR Inten    --     23.8741                 9.1545                14.8995

                     31                     32                     33
                      A                      A                      A
 Frequencies --   3124.1589              3160.7286              3179.0011
 Red. masses --      1.1017                 1.0896                 1.0972
 Frc consts  --      6.3355                 6.4132                 6.5333
 IR Inten    --      4.7190                 8.4294                 5.9239

 - Thermochemistry -
 -------------------
 Temperature   298.150 Kelvin.  Pressure   1.00000 Atm.
 Atom     1 has atomic number  6 and mass  12.00000

 Molecular mass:   111.05450 amu.
 Principal axes and moments of inertia in atomic units:
                           1         2         3
     Eigenvalues --   599.13250 680.68111 862.46162
           X            0.99454  -0.09587  -0.04114
           Y            0.09467   0.99505  -0.03007
           Z            0.04382   0.02601   0.99870
 This molecule is an asymmetric top.
 Rotational symmetry number  1.
 Warning -- assumption of classical behavior for rotation
           may cause significant error
 Rotational temperatures (Kelvin)      0.14457     0.12725     0.10043
 Rotational constants (GHZ):           3.01226     2.65138     2.09255
 Zero-point vibrational energy     248482.9 (Joules/Mol)
                                   59.38883 (Kcal/Mol)
 Warning -- explicit consideration of   8 degrees of freedom as
           vibrations may cause significant error
 Vibrational temperatures:    173.69   297.06   315.42   464.21   508.00
          (Kelvin)            562.60   646.85   789.52  1021.35  1086.11
                             1114.05  1168.22  1264.97  1328.06  1379.44
                             1488.66  1522.18  1557.25  1639.28  1899.20
                             1974.27  2000.53  2021.13  2143.41  2154.68
                             2177.39  2263.98  2318.92  4404.15  4470.24
                             4494.97  4547.58  4573.87

 Zero-point correction=                           0.094642 (Hartree/Particle)
 Thermal correction to Energy=                    0.101454
 Thermal correction to Enthalpy=                  0.102398
 Thermal correction to Gibbs Free Energy=         0.063879
 Sum of electronic and zero-point Energies=           -390.845643
 Sum of electronic and thermal Energies=              -390.838831
 Sum of electronic and thermal Enthalpies=            -390.837887
 Sum of electronic and thermal Free Energies=         -390.876407

                     E (Thermal)             CV                S
                      KCal/Mol        Cal/Mol-Kelvin    Cal/Mol-Kelvin
 Total                   63.663             25.019             81.071
 Electronic               0.000              0.000              0.000
 Translational            0.889              2.981             40.031
 Rotational               0.889              2.981             27.355
 Vibrational             61.886             19.058             13.685
 Vibration     1          0.609              1.932              3.089
 Vibration     2          0.641              1.831              2.075
 Vibration     3          0.647              1.812              1.965
 Vibration     4          0.708              1.630              1.297
 Vibration     5          0.729              1.569              1.152
 Vibration     6          0.759              1.489              0.996
 Vibration     7          0.808              1.362              0.797
 Vibration     8          0.904              1.142              0.547

                           ! Non-Optimized Parameters !
 Normal termination of Gaussian 16 at Sun Jul  3 23:49:51 2022.
