 Gaussian 16, Revision A.03,
 Gaussian 16:  ES64L-G16RevA.03 25-Dec-2016

 -----------------------------
 # opt freq b3lyp/6-31g(2df,p)
 -----------------------------

 -------------------
 Title Card Required
 -------------------
 Symbolic Z-matrix:
 Charge =  0 Multiplicity = 1

 SCF Done:  E(RB3LYP) =  -384.639639805     A.U. after   13 cycles
 SCF Done:  E(RB3LYP) =  -384.650049842     A.U. after   11 cycles
 SCF Done:  E(RB3LYP) =  -384.651239974     A.U. after   11 cycles
 SCF Done:  E(RB3LYP) =  -384.651765987     A.U. after   10 cycles
 SCF Done:  E(RB3LYP) =  -384.652127016     A.U. after   11 cycles
 SCF Done:  E(RB3LYP) =  -384.652205673     A.U. after   10 cycles
 SCF Done:  E(RB3LYP) =  -384.652454125     A.U. after   11 cycles
 SCF Done:  E(RB3LYP) =  -384.652507069     A.U. after   13 cycles
 SCF Done:  E(RB3LYP) =  -384.654308123     A.U. after   11 cycles
 SCF Done:  E(RB3LYP) =  -384.656006787     A.U. after   12 cycles
 SCF Done:  E(RB3LYP) =  -384.657222475     A.U. after   12 cycles
 SCF Done:  E(RB3LYP) =  -384.657102320     A.U. after   11 cycles
 SCF Done:  E(RB3LYP) =  -384.657252778     A.U. after   11 cycles
 SCF Done:  E(RB3LYP) =  -384.657221860     A.U. after   10 cycles
 SCF Done:  E(RB3LYP) =  -384.657264065     A.U. after   10 cycles
 SCF Done:  E(RB3LYP) =  -384.657263159     A.U. after    9 cycles
 SCF Done:  E(RB3LYP) =  -384.657265713     A.U. after    9 cycles
 SCF Done:  E(RB3LYP) =  -384.657265668     A.U. after    7 cycles
 SCF Done:  E(RB3LYP) =  -384.657265814     A.U. after    7 cycles
 Optimization completed.
    -- Stationary point found.
 Normal termination of Gaussian 16 at Sun Jul  3 20:51:04 2022.

 ----------------------------------------------------------------------
 #N Geom=AllCheck Guess=TCheck SCRF=Check GenChk RB3LYP/6-31G(2df,p) Fr
 eq
 ----------------------------------------------------------------------

 Structure from the checkpoint file:  "CC1NCpCpC1CCdN.chk"
 -------------------
 Title Card Required
 -------------------
 Charge =  0 Multiplicity = 1

                         Standard orientation:
 ---------------------------------------------------------------------
 Center     Atomic      Atomic             Coordinates (Angstroms)
 Number     Number       Type             X           Y           Z
 ---------------------------------------------------------------------
      1          6           0        0.730036    2.444051    0.340132
      2          6           0        0.402967    1.126397   -0.354928
      3          7           0        1.565145    0.364500   -0.883054
      4          6           0        1.549243   -0.551639    0.283772
      5          6           0        1.838600   -2.010317   -0.031190
      6          6           0        0.096065   -0.068425    0.594721
      7          6           0       -1.045713   -0.979008    0.126484
      8          6           0       -2.391825   -0.345696    0.370878
      9          7           0       -3.275660   -0.017200   -0.479176
     10          1           0        1.143029    3.167196   -0.372408
     11          1           0        1.462701    2.303115    1.142963
     12          1           0       -0.170999    2.888166    0.777630
     13          1           0       -0.361517    1.304028   -1.122685
     14          1           0        2.415866    0.906154   -1.002319
     15          1           0        2.221140   -0.226954    1.093185
     16          1           0        1.196676   -2.381017   -0.834481
     17          1           0        1.697346   -2.640561    0.854271
     18          1           0        2.877876   -2.126083   -0.357768
     19          1           0       -0.066068    0.215449    1.639045
     20          1           0       -1.001268   -1.927921    0.679512
     21          1           0       -0.936062   -1.213592   -0.938246
     22          1           0       -2.618147   -0.134806    1.424100
     23          1           0       -2.963203   -0.256449   -1.426400
 ---------------------------------------------------------------------

 SCF Done:  E(RB3LYP) =  -384.657265814     A.U. after    1 cycles

 The electronic state is 1-A.
 Alpha  occ. eigenvalues --  -14.31162 -14.30763 -10.22555 -10.21344 -10.21075
 Alpha  occ. eigenvalues --  -10.19356 -10.19234 -10.17885 -10.17381  -0.92802
 Alpha  occ. eigenvalues --   -0.89639  -0.77067  -0.75235  -0.71377  -0.66430
 Alpha  occ. eigenvalues --   -0.60500  -0.58427  -0.53654  -0.50231  -0.46925
 Alpha  occ. eigenvalues --   -0.46403  -0.44879  -0.42625  -0.40460  -0.40195
 Alpha  occ. eigenvalues --   -0.39755  -0.38186  -0.36644  -0.35149  -0.34187
 Alpha  occ. eigenvalues --   -0.33090  -0.30337  -0.29704  -0.25320  -0.22395
 Alpha virt. eigenvalues --    0.00361   0.07278   0.09171   0.10187   0.11717
 Alpha virt. eigenvalues --    0.12660   0.13746   0.14023   0.15116   0.15668
 Alpha virt. eigenvalues --    0.16492   0.16705   0.17422   0.18137   0.18819

 Mulliken charges:
               1
     1  C   -0.415106
     2  C    0.068432
     3  N   -0.330999
     4  C    0.044574
     5  C   -0.396288
     6  C   -0.022272
     7  C   -0.271799
     8  C    0.068416
     9  N   -0.391654
    10  H    0.116124
    11  H    0.112915
    12  H    0.123006
    13  H    0.070568
    14  H    0.207580
    15  H    0.061179
    16  H    0.121252
    17  H    0.109916
    18  H    0.114093
    19  H    0.069786
    20  H    0.111134
    21  H    0.112135
    22  H    0.101585
    23  H    0.215426
 Sum of Mulliken charges =  -0.00000

 Dipole moment (field-independent basis, Debye):
    X=              2.5800    Y=             -0.2627    Z=              1.0100  Tot=              2.7831
 Quadrupole moment (field-independent basis, Debye-Ang):
   XX=            -66.2089   YY=            -54.9881   ZZ=            -55.5583
   XY=              3.3664   XZ=              0.5775   YZ=             -0.4873

  Exact polarizability:  96.759  -4.944  86.743   3.261  -1.565  78.072
 Approx polarizability: 130.961  -7.777 114.822   8.106  -4.797 126.443

                      1                      2                      3
                      A                      A                      A
 Frequencies --     65.1958                75.8390                93.1136
 Red. masses --      3.8164                 3.0766                 2.4134
 Frc consts  --      0.0096                 0.0104                 0.0123
 IR Inten    --      0.8655                 0.9641                 2.6012

                      4                      5                      6
                      A                      A                      A
 Frequencies --    159.4566               217.4874               234.3583
 Red. masses --      2.5492                 1.2207                 1.6730
 Frc consts  --      0.0382                 0.0340                 0.0541
 IR Inten    --      1.2636                 0.2264                 0.4277

                      7                      8                      9
                      A                      A                      A
 Frequencies --    248.7291               261.8087               329.8088
 Red. masses --      1.5930                 1.5518                 2.4569
 Frc consts  --      0.0581                 0.0627                 0.1575
 IR Inten    --      0.4211                 1.2155                 3.0476

                     10                     11                     12
                      A                      A                      A
 Frequencies --    395.7625               432.3322               480.1548
 Red. masses --      2.5563                 2.7820                 2.2365
 Frc consts  --      0.2359                 0.3064                 0.3038
 IR Inten    --      5.2970                 3.1641                14.4434

                     13                     14                     15
                      A                      A                      A
 Frequencies --    555.4421               654.5918               733.7941
 Red. masses --      2.3614                 2.5875                 1.7458
 Frc consts  --      0.4292                 0.6532                 0.5538
 IR Inten    --      0.2907                30.4862                 6.7623

                     16                     17                     18
                      A                      A                      A
 Frequencies --    784.8393               824.1343               879.7925
 Red. masses --      2.0296                 2.0522                 2.3713
 Frc consts  --      0.7366                 0.8212                 1.0814
 IR Inten    --     44.6688                 1.7727                 2.1395

                     19                     20                     21
                      A                      A                      A
 Frequencies --    923.8231               955.8428               969.5643
 Red. masses --      2.2932                 1.5344                 1.7024
 Frc consts  --      1.1531                 0.8259                 0.9429
 IR Inten    --      2.4527                 9.5150                10.5274

                     22                     23                     24
                      A                      A                      A
 Frequencies --    988.1542              1026.0494              1056.3270
 Red. masses --      1.5983                 2.1003                 2.1079
 Frc consts  --      0.9195                 1.3028                 1.3858
 IR Inten    --      7.9374                 4.9510                 7.2661

                     25                     26                     27
                      A                      A                      A
 Frequencies --   1090.4005              1102.1335              1117.1827
 Red. masses --      1.6189                 1.9416                 2.5008
 Frc consts  --      1.1340                 1.3896                 1.8390
 IR Inten    --      5.4833                 6.9359                25.8349

                     28                     29                     30
                      A                      A                      A
 Frequencies --   1131.0445              1152.8708              1164.7995
 Red. masses --      1.4768                 1.1282                 2.1907
 Frc consts  --      1.1131                 0.8835                 1.7512
 IR Inten    --      6.5580                40.4604                 3.0281

                     31                     32                     33
                      A                      A                      A
 Frequencies --   1199.3158              1212.0210              1274.5146
 Red. masses --      1.6378                 1.3704                 1.3561
 Frc consts  --      1.3880                 1.1861                 1.2979
 IR Inten    --      3.6921                 9.0492                25.5791

                     34                     35                     36
                      A                      A                      A
 Frequencies --   1294.7517              1303.4432              1326.4676
 Red. masses --      1.3886                 1.3373                 1.5670
 Frc consts  --      1.3715                 1.3387                 1.6245
 IR Inten    --     28.1910                28.7437                 3.2869

                     37                     38                     39
                      A                      A                      A
 Frequencies --   1349.9439              1373.5843              1387.3461
 Red. masses --      1.2727                 1.4493                 1.3382
 Frc consts  --      1.3665                 1.6111                 1.5175
 IR Inten    --      2.5955                22.0717                15.1155

                     40                     41                     42
                      A                      A                      A
 Frequencies --   1404.3295              1405.9530              1419.5922
 Red. masses --      1.2646                 1.3468                 1.3892
 Frc consts  --      1.4693                 1.5685                 1.6495
 IR Inten    --      8.2475                20.6570                 1.5976

                     43                     44                     45
                      A                      A                      A
 Frequencies --   1426.1384              1473.9041              1486.0205
 Red. masses --      1.2282                 1.0960                 1.0535
 Frc consts  --      1.4717                 1.4028                 1.3707
 IR Inten    --     21.4623                 7.2114                 3.3487

                     46                     47                     48
                      A                      A                      A
 Frequencies --   1492.1459              1495.9940              1498.9577
 Red. masses --      1.0560                 1.0466                 1.0512
 Frc consts  --      1.3853                 1.3801                 1.3916
 IR Inten    --      2.1366                 3.2119                 2.7950

                     49                     50                     51
                      A                      A                      A
 Frequencies --   1728.0281              2968.1221              3008.3733
 Red. masses --      8.2979                 1.0831                 1.0802
 Frc consts  --     14.5989                 5.6219                 5.7600
 IR Inten    --     68.4739                50.7352                36.5491

                     52                     53                     54
                      A                      A                      A
 Frequencies --   3010.2878              3021.7994              3031.0589
 Red. masses --      1.0671                 1.0350                 1.0370
 Frc consts  --      5.6975                 5.5684                 5.6133
 IR Inten    --     17.3526                21.4057                23.7420

                     55                     56                     57
                      A                      A                      A
 Frequencies --   3047.1140              3054.1224              3076.7218
 Red. masses --      1.0855                 1.0866                 1.0978
 Frc consts  --      5.9383                 5.9714                 6.1231
 IR Inten    --     16.4503                13.2277                38.6481

                     58                     59                     60
                      A                      A                      A
 Frequencies --   3090.7176              3092.9095              3095.0908
 Red. masses --      1.1013                 1.1005                 1.1013
 Frc consts  --      6.1981                 6.2025                 6.2159
 IR Inten    --     30.6398                26.5311                32.5426

                     61                     62                     63
                      A                      A                      A
 Frequencies --   3118.7899              3400.3865              3507.4869
 Red. masses --      1.1002                 1.0734                 1.0755
 Frc consts  --      6.3053                 7.3125                 7.7958
 IR Inten    --     29.0819                 4.4151                 1.6425

 - Thermochemistry -
 -------------------
 Temperature   298.150 Kelvin.  Pressure   1.00000 Atm.
 Atom     1 has atomic number  6 and mass  12.00000

 Molecular mass:   126.11570 amu.
 Principal axes and moments of inertia in atomic units:
                           1         2         3
     Eigenvalues --   865.473911528.933112113.54297
           X            0.99995  -0.00855   0.00448
           Y            0.00850   0.99990   0.01163
           Z           -0.00457  -0.01159   0.99992
 This molecule is an asymmetric top.
 Rotational symmetry number  1.
 Warning -- assumption of classical behavior for rotation
           may cause significant error
 Rotational temperatures (Kelvin)      0.10008     0.05665     0.04098
 Rotational constants (GHZ):           2.08526     1.18039     0.85389
 Zero-point vibrational energy     539397.8 (Joules/Mol)
                                  128.91916 (Kcal/Mol)
 Warning -- explicit consideration of  13 degrees of freedom as
           vibrations may cause significant error
 Vibrational temperatures:     93.80   109.12   133.97   229.42   312.92
          (Kelvin)            337.19   357.87   376.68   474.52   569.41
                              622.03   690.84   799.16   941.81  1055.77
                             1129.21  1185.75  1265.83  1329.18  1375.24
                             1394.99  1421.73  1476.26  1519.82  1568.84
                             1585.72  1607.38  1627.32  1658.72  1675.89
                             1725.55  1743.83  1833.74  1862.86  1875.36
                             1908.49  1942.27  1976.28  1996.08  2020.52
                             2022.85  2042.48  2051.90  2120.62  2138.05
                             2146.87  2152.40  2156.67  2486.25  4270.47
                             4328.38  4331.13  4347.70  4361.02  4384.12
                             4394.20  4426.72  4446.85  4450.01  4453.15
                             4487.24  4892.40  5046.49

 Zero-point correction=                           0.205446 (Hartree/Particle)
 Thermal correction to Energy=                    0.215617
 Thermal correction to Enthalpy=                  0.216561
 Thermal correction to Gibbs Free Energy=         0.169842
 Sum of electronic and zero-point Energies=           -384.451820
 Sum of electronic and thermal Energies=              -384.441649
 Sum of electronic and thermal Enthalpies=            -384.440705
 Sum of electronic and thermal Free Energies=         -384.487424

                     E (Thermal)             CV                S
                      KCal/Mol        Cal/Mol-Kelvin    Cal/Mol-Kelvin
 Total                  135.302             37.368             98.329
 Electronic               0.000              0.000              0.000
 Translational            0.889              2.981             40.410
 Rotational               0.889              2.981             29.415
 Vibrational            133.524             31.406             28.504
 Vibration     1          0.597              1.971              4.293
 Vibration     2          0.599              1.965              3.996
 Vibration     3          0.602              1.954              3.594
 Vibration     4          0.621              1.892              2.556
 Vibration     5          0.646              1.814              1.980
 Vibration     6          0.654              1.788              1.845
 Vibration     7          0.662              1.765              1.740
 Vibration     8          0.669              1.743              1.650
 Vibration     9          0.713              1.616              1.261
 Vibration    10          0.762              1.479              0.978
 Vibration    11          0.793              1.400              0.851
 Vibration    12          0.837              1.294              0.710
 Vibration    13          0.911              1.128              0.533

 Optimization completed.
    -- Stationary point found.
 Normal termination of Gaussian 16 at Sun Jul  3 21:32:34 2022.
