 Gaussian 16, Revision A.03,
 Gaussian 16:  ES64L-G16RevA.03 25-Dec-2016

 -----------------------------
 # opt freq b3lyp/6-31g(2df,p)
 -----------------------------

 -------------------
 Title Card Required
 -------------------
 Symbolic Z-matrix:
 Charge =  0 Multiplicity = 1

 SCF Done:  E(RB3LYP) =  -449.877428540     A.U. after   22 cycles
 SCF Done:  E(RB3LYP) =  -449.951988370     A.U. after   17 cycles
 SCF Done:  E(RB3LYP) =  -450.035372381     A.U. after   16 cycles
 SCF Done:  E(RB3LYP) =  -450.083400173     A.U. after   15 cycles
 SCF Done:  E(RB3LYP) =  -450.104290784     A.U. after   15 cycles
 SCF Done:  E(RB3LYP) =  -450.115632841     A.U. after   15 cycles
 SCF Done:  E(RB3LYP) =  -450.122183235     A.U. after   15 cycles
 SCF Done:  E(RB3LYP) =  -450.123869264     A.U. after   14 cycles
 SCF Done:  E(RB3LYP) =  -450.124882614     A.U. after   13 cycles
 SCF Done:  E(RB3LYP) =  -450.125023908     A.U. after   12 cycles
 SCF Done:  E(RB3LYP) =  -450.125237496     A.U. after   12 cycles
 SCF Done:  E(RB3LYP) =  -450.125263260     A.U. after   11 cycles
 SCF Done:  E(RB3LYP) =  -450.125273924     A.U. after   12 cycles
 SCF Done:  E(RB3LYP) =  -450.125278290     A.U. after    9 cycles
 SCF Done:  E(RB3LYP) =  -450.125279983     A.U. after    9 cycles
 SCF Done:  E(RB3LYP) =  -450.125280353     A.U. after    8 cycles
 SCF Done:  E(RB3LYP) =  -450.125280440     A.U. after    7 cycles
 Optimization completed.
    -- Stationary point found.
 Normal termination of Gaussian 16 at Thu Aug  4 06:45:11 2022.

 ----------------------------------------------------------------------
 #N Geom=AllCheck Guess=TCheck SCRF=Check GenChk RB3LYP/6-31G(2df,p) Fr
 eq
 ----------------------------------------------------------------------

 Structure from the checkpoint file:  "CC1NdCNdNNdCO1.chk"
 -------------------
 Title Card Required
 -------------------
 Charge =  0 Multiplicity = 1

                         Standard orientation:
 ---------------------------------------------------------------------
 Center     Atomic      Atomic             Coordinates (Angstroms)
 Number     Number       Type             X           Y           Z
 ---------------------------------------------------------------------
      1          6           0        2.747008   -0.353313   -0.368573
      2          6           0        1.411114   -0.191925    0.317400
      3          7           0        0.384830   -1.044191   -0.196604
      4          6           0       -0.617346   -1.160762    0.566914
      5          7           0       -1.857773   -1.202089   -0.107819
      6          7           0       -2.172117   -0.057984   -0.519741
      7          7           0       -1.540570    1.090613   -0.035199
      8          6           0       -0.357432    1.552573    0.152610
      9          8           0        0.931013    1.162299    0.007171
     10          1           0        3.171509   -1.326310   -0.105998
     11          1           0        3.438522    0.431028   -0.053063
     12          1           0        2.613010   -0.308148   -1.451304
     13          1           0        1.503277   -0.229259    1.415616
     14          1           0       -0.628173   -1.042931    1.660996
     15          1           0       -0.346902    2.593346    0.481827
 ---------------------------------------------------------------------

 SCF Done:  E(RB3LYP) =  -450.125280440     A.U. after    1 cycles

 The electronic state is 1-A.
 Alpha  occ. eigenvalues --  -19.20202 -14.43304 -14.38856 -14.36922 -14.34635
 Alpha  occ. eigenvalues --  -10.31225 -10.29937 -10.28225 -10.19639  -1.10218
 Alpha  occ. eigenvalues --   -1.07281  -0.96038  -0.90332  -0.80779  -0.73521
 Alpha  occ. eigenvalues --   -0.66878  -0.65393  -0.58477  -0.55038  -0.53250
 Alpha  occ. eigenvalues --   -0.51182  -0.46550  -0.43915  -0.42849  -0.41325
 Alpha  occ. eigenvalues --   -0.40444  -0.38913  -0.37382  -0.31839  -0.30087
 Alpha  occ. eigenvalues --   -0.29207  -0.27297  -0.25579
 Alpha virt. eigenvalues --   -0.07857  -0.04108   0.00278   0.09142   0.09943
 Alpha virt. eigenvalues --    0.10432   0.11929   0.14604   0.15444   0.16587
 Alpha virt. eigenvalues --    0.18050   0.20765   0.21456   0.24382   0.26033

 Mulliken charges:
               1
     1  C   -0.405102
     2  C    0.144159
     3  N   -0.097641
     4  C   -0.001799
     5  N   -0.107577
     6  N   -0.025594
     7  N   -0.220025
     8  C    0.180284
     9  O   -0.237507
    10  H    0.134321
    11  H    0.133866
    12  H    0.149326
    13  H    0.088081
    14  H    0.123284
    15  H    0.141925
 Sum of Mulliken charges =  -0.00000

 Dipole moment (field-independent basis, Debye):
    X=              3.4859    Y=              0.4112    Z=              2.7038  Tot=              4.4307
 Quadrupole moment (field-independent basis, Debye-Ang):
   XX=            -55.9401   YY=            -51.7056   ZZ=            -49.8219
   XY=             -1.2843   XZ=             -2.1349   YZ=             -1.8709

  Exact polarizability:  88.150   3.992  72.186   1.798  -0.049  52.105
 Approx polarizability: 143.220  15.727 129.427   3.086  -1.172  86.721

                      1                      2                      3
                      A                      A                      A
 Frequencies --     93.5813               158.9061               210.3057
 Red. masses --      5.7391                 3.9443                 3.0570
 Frc consts  --      0.0296                 0.0587                 0.0797
 IR Inten    --      2.8791                 6.0210                 2.1856

                      4                      5                      6
                      A                      A                      A
 Frequencies --    221.5851               304.3048               334.7669
 Red. masses --      1.1617                 3.0320                 3.3754
 Frc consts  --      0.0336                 0.1654                 0.2229
 IR Inten    --      1.4823                 1.1593                11.5984

                      7                      8                      9
                      A                      A                      A
 Frequencies --    409.9480               436.0247               500.3013
 Red. masses --      5.9085                 3.7910                 3.8470
 Frc consts  --      0.5850                 0.4246                 0.5673
 IR Inten    --      2.4308                19.4705                 3.8501

                     10                     11                     12
                      A                      A                      A
 Frequencies --    550.8023               656.8249               681.0253
 Red. masses --      5.3988                 6.6261                 8.3867
 Frc consts  --      0.9650                 1.6843                 2.2918
 IR Inten    --      2.1912                16.0096                 8.9900

                     13                     14                     15
                      A                      A                      A
 Frequencies --    735.3598               776.8868               858.2510
 Red. masses --      4.6605                 4.3520                 3.9873
 Frc consts  --      1.4848                 1.5476                 1.7305
 IR Inten    --     51.8565                11.4168                19.0481

                     16                     17                     18
                      A                      A                      A
 Frequencies --    920.7405               957.0099               995.2460
 Red. masses --      2.8248                 1.6032                 2.7453
 Frc consts  --      1.4110                 0.8651                 1.6021
 IR Inten    --     17.3603                 2.2775                 2.6915

                     19                     20                     21
                      A                      A                      A
 Frequencies --   1041.8666              1067.1754              1092.9799
 Red. masses --      2.5125                 1.8183                 4.6541
 Frc consts  --      1.6069                 1.2201                 3.2757
 IR Inten    --     27.2530                 3.3808               239.9056

                     22                     23                     24
                      A                      A                      A
 Frequencies --   1158.7141              1177.1618              1300.8829
 Red. masses --      2.2227                 2.7291                 1.2868
 Frc consts  --      1.7582                 2.2281                 1.2830
 IR Inten    --     11.2012                78.2632                13.0328

                     25                     26                     27
                      A                      A                      A
 Frequencies --   1345.6837              1396.9506              1427.8309
 Red. masses --      1.2951                 1.2869                 1.5231
 Frc consts  --      1.3817                 1.4796                 1.8295
 IR Inten    --      9.6748                 8.8682                53.9916

                     28                     29                     30
                      A                      A                      A
 Frequencies --   1451.6610              1482.5017              1483.1502
 Red. masses --      1.1336                 1.4260                 1.8177
 Frc consts  --      1.4074                 1.8466                 2.3558
 IR Inten    --     10.8154                46.3232                72.2063

                     31                     32                     33
                      A                      A                      A
 Frequencies --   1489.5602              1589.5599              1703.3452
 Red. masses --      1.3534                 9.9994                 9.2153
 Frc consts  --      1.7693                14.8860                15.7531
 IR Inten    --     14.0766               149.7123               198.5509

                     34                     35                     36
                      A                      A                      A
 Frequencies --   2963.7665              3004.7843              3056.5558
 Red. masses --      1.0831                 1.0880                 1.0350
 Frc consts  --      5.6054                 5.7878                 5.6970
 IR Inten    --     50.2123                38.1912                 7.5000

                     37                     38                     39
                      A                      A                      A
 Frequencies --   3118.3909              3133.0821              3147.7122
 Red. masses --      1.0859                 1.1015                 1.1034
 Frc consts  --      6.2214                 6.3708                 6.4412
 IR Inten    --     17.3018                 9.4098                10.1080

 - Thermochemistry -
 -------------------
 Temperature   298.150 Kelvin.  Pressure   1.00000 Atm.
 Atom     1 has atomic number  6 and mass  12.00000

 Molecular mass:   126.05416 amu.
 Principal axes and moments of inertia in atomic units:
                           1         2         3
     Eigenvalues --   533.257381192.090971592.60404
           X            0.99970  -0.02211  -0.01084
           Y            0.02209   0.99975  -0.00174
           Z            0.01088   0.00150   0.99994
 This molecule is an asymmetric top.
 Rotational symmetry number  1.
 Warning -- assumption of classical behavior for rotation
           may cause significant error
 Rotational temperatures (Kelvin)      0.16242     0.07266     0.05439
 Rotational constants (GHZ):           3.38437     1.51393     1.13320
 Zero-point vibrational energy     289706.8 (Joules/Mol)
                                   69.24158 (Kcal/Mol)
 Warning -- explicit consideration of  10 degrees of freedom as
           vibrations may cause significant error
 Vibrational temperatures:    134.64   228.63   302.58   318.81   437.83
          (Kelvin)            481.65   589.82   627.34   719.82   792.48
                              945.02   979.84  1058.02  1117.77  1234.83
                             1324.74  1376.92  1431.94  1499.01  1535.43
                             1572.55  1667.13  1693.67  1871.68  1936.14
                             2009.90  2054.33  2088.62  2132.99  2133.92
                             2143.14  2287.02  2450.73  4264.20  4323.21
                             4397.70  4486.67  4507.81  4528.86

 Zero-point correction=                           0.110343 (Hartree/Particle)
 Thermal correction to Energy=                    0.118221
 Thermal correction to Enthalpy=                  0.119165
 Thermal correction to Gibbs Free Energy=         0.077978
 Sum of electronic and zero-point Energies=           -450.014937
 Sum of electronic and thermal Energies=              -450.007059
 Sum of electronic and thermal Enthalpies=            -450.006115
 Sum of electronic and thermal Free Energies=         -450.047303

                     E (Thermal)             CV                S
                      KCal/Mol        Cal/Mol-Kelvin    Cal/Mol-Kelvin
 Total                   74.185             29.292             86.686
 Electronic               0.000              0.000              0.000
 Translational            0.889              2.981             40.408
 Rotational               0.889              2.981             28.406
 Vibrational             72.407             23.330             17.872
 Vibration     1          0.603              1.954              3.584
 Vibration     2          0.621              1.893              2.563
 Vibration     3          0.642              1.825              2.041
 Vibration     4          0.648              1.808              1.946
 Vibration     5          0.695              1.666              1.393
 Vibration     6          0.716              1.606              1.237
 Vibration     7          0.774              1.449              0.927
 Vibration     8          0.796              1.392              0.839
 Vibration     9          0.856              1.249              0.657
 Vibration    10          0.906              1.138              0.543

 Optimization completed.
    -- Stationary point found.
 Normal termination of Gaussian 16 at Thu Aug  4 07:11:36 2022.
