 Gaussian 16, Revision A.03,
 Gaussian 16:  ES64L-G16RevA.03 25-Dec-2016

 -----------------------------
 # opt freq b3lyp/6-31g(2df,p)
 -----------------------------

 -------------------
 Title Card Required
 -------------------
 Symbolic Z-matrix:
 Charge =  0 Multiplicity = 1

 SCF Done:  E(RB3LYP) =  -319.660318356     A.U. after   14 cycles
 SCF Done:  E(RB3LYP) =  -319.663441410     A.U. after   12 cycles
 SCF Done:  E(RB3LYP) =  -319.663895649     A.U. after   13 cycles
 SCF Done:  E(RB3LYP) =  -319.664013474     A.U. after   12 cycles
 SCF Done:  E(RB3LYP) =  -319.664032554     A.U. after   11 cycles
 SCF Done:  E(RB3LYP) =  -319.664037209     A.U. after   10 cycles
 SCF Done:  E(RB3LYP) =  -319.664040306     A.U. after    9 cycles
 SCF Done:  E(RB3LYP) =  -319.664051597     A.U. after   11 cycles
 SCF Done:  E(RB3LYP) =  -319.664090490     A.U. after   13 cycles
 SCF Done:  E(RB3LYP) =  -319.664110449     A.U. after   13 cycles
 SCF Done:  E(RB3LYP) =  -319.664175642     A.U. after   10 cycles
 SCF Done:  E(RB3LYP) =  -319.664195219     A.U. after   12 cycles
 SCF Done:  E(RB3LYP) =  -319.664454495     A.U. after   12 cycles
 SCF Done:  E(RB3LYP) =  -319.664179706     A.U. after   14 cycles
 SCF Done:  E(RB3LYP) =  -319.664508110     A.U. after   14 cycles
 SCF Done:  E(RB3LYP) =  -319.664510501     A.U. after   10 cycles
 SCF Done:  E(RB3LYP) =  -319.664512467     A.U. after   10 cycles
 SCF Done:  E(RB3LYP) =  -319.664512740     A.U. after    7 cycles
 SCF Done:  E(RB3LYP) =  -319.664512964     A.U. after    7 cycles
 Optimization completed.
    -- Stationary point found.
 Normal termination of Gaussian 16 at Thu Aug  4 11:23:00 2022.

 ----------------------------------------------------------------------
 #N Geom=AllCheck Guess=TCheck SCRF=Check GenChk RB3LYP/6-31G(2df,p) Fr
 eq
 ----------------------------------------------------------------------

 Structure from the checkpoint file:  "Cc1nccnn1.chk"
 -------------------
 Title Card Required
 -------------------
 Charge =  0 Multiplicity = 1

                         Standard orientation:
 ---------------------------------------------------------------------
 Center     Atomic      Atomic             Coordinates (Angstroms)
 Number     Number       Type             X           Y           Z
 ---------------------------------------------------------------------
      1          6           0       -2.320932    0.011063    0.000043
      2          6           0       -0.821352    0.009426   -0.000096
      3          7           0       -0.196036    1.201031   -0.000067
      4          6           0        1.125202    1.144522    0.000020
      5          6           0        1.787413   -0.083680    0.000064
      6          7           0        1.114801   -1.229170    0.000013
      7          7           0       -0.214534   -1.184578   -0.000077
      8          1           0       -2.696911    0.541908    0.880246
      9          1           0       -2.698956   -1.011155   -0.000597
     10          1           0       -2.697257    0.543449   -0.879040
     11          1           0        1.671460    2.085530    0.000025
     12          1           0        2.870055   -0.158696    0.000101
 ---------------------------------------------------------------------

 SCF Done:  E(RB3LYP) =  -319.664512964     A.U. after    2 cycles

 The electronic state is 1-A.
 Alpha  occ. eigenvalues --  -14.38023 -14.36735 -14.35599 -10.26861 -10.25352
 Alpha  occ. eigenvalues --  -10.23839 -10.19052  -1.04189  -0.93913  -0.84817
 Alpha  occ. eigenvalues --   -0.74042  -0.69776  -0.64587  -0.55187  -0.51913
 Alpha  occ. eigenvalues --   -0.47553  -0.46500  -0.42204  -0.41036  -0.39944
 Alpha  occ. eigenvalues --   -0.34594  -0.32723  -0.31851  -0.29641  -0.23419
 Alpha virt. eigenvalues --   -0.07092  -0.03669   0.10579   0.10742   0.11938
 Alpha virt. eigenvalues --    0.14647   0.16002   0.17956   0.18588   0.21323
 Alpha virt. eigenvalues --    0.25770   0.29683   0.34060   0.34944   0.40263

 Mulliken charges:
               1
     1  C   -0.452827
     2  C    0.394792
     3  N   -0.262446
     4  C   -0.006003
     5  C    0.015051
     6  N   -0.165430
     7  N   -0.223063
     8  H    0.146317
     9  H    0.147693
    10  H    0.146305
    11  H    0.129691
    12  H    0.129921
 Sum of Mulliken charges =  -0.00000

 Dipole moment (field-independent basis, Debye):
    X=              0.5463    Y=              2.1683    Z=              0.0004  Tot=              2.2361
 Quadrupole moment (field-independent basis, Debye-Ang):
   XX=            -33.0321   YY=            -46.2106   ZZ=            -39.5848
   XY=              3.6130   XZ=             -0.0004   YZ=             -0.0001

  Exact polarizability:  79.857   2.155  59.607  -0.000   0.000  33.237
 Approx polarizability: 122.831   2.344 112.661   0.001   0.001  53.053

                      1                      2                      3
                      A                      A                      A
 Frequencies --     77.0276               173.1845               359.3381
 Red. masses --      1.0590                 3.4264                 2.6942
 Frc consts  --      0.0037                 0.0605                 0.2050
 IR Inten    --      0.3117                 9.3959                 6.3401

                      4                      5                      6
                      A                      A                      A
 Frequencies --    380.1945               476.5039               590.2047
 Red. masses --      5.2200                 3.2253                 5.4485
 Frc consts  --      0.4446                 0.4315                 1.1182
 IR Inten    --      3.3983                 4.7398                 2.3484

                      7                      8                      9
                      A                      A                      A
 Frequencies --    654.9428               808.0239               844.5248
 Red. masses --      8.6240                 4.2376                 6.3241
 Frc consts  --      2.1795                 1.6301                 2.6575
 IR Inten    --      1.5291                 1.5107                 2.7276

                     10                     11                     12
                      A                      A                      A
 Frequencies --    885.7951               997.0231              1009.6561
 Red. masses --      1.1898                 1.6988                 1.4723
 Frc consts  --      0.5500                 0.9949                 0.8843
 IR Inten    --      4.1813                 0.2674                 0.3336

                     13                     14                     15
                      A                      A                      A
 Frequencies --   1041.0360              1070.0676              1084.8569
 Red. masses --      5.9561                 1.6749                 4.0271
 Frc consts  --      3.8032                 1.1299                 2.7924
 IR Inten    --      4.7353                 7.3029                20.2091

                     16                     17                     18
                      A                      A                      A
 Frequencies --   1120.6671              1199.8279              1313.1068
 Red. masses --      3.3224                 2.2462                 2.0821
 Frc consts  --      2.4584                 1.9052                 2.1152
 IR Inten    --      4.7488                 6.2157                 5.5365

                     19                     20                     21
                      A                      A                      A
 Frequencies --   1383.6148              1408.9633              1455.7419
 Red. masses --      2.0523                 1.4650                 2.7062
 Frc consts  --      2.3148                 1.7135                 3.3790
 IR Inten    --     41.6658                12.4964                68.2337

                     22                     23                     24
                      A                      A                      A
 Frequencies --   1477.6007              1478.1706              1569.9560
 Red. masses --      1.1166                 1.0455                 6.1215
 Frc consts  --      1.4363                 1.3459                 8.8896
 IR Inten    --     12.3845                 5.7298                38.7578

                     25                     26                     27
                      A                      A                      A
 Frequencies --   1595.8951              3049.4848              3107.5405
 Red. masses --      5.1628                 1.0374                 1.0992
 Frc consts  --      7.7473                 5.6840                 6.2538
 IR Inten    --     20.0930                 5.5141                 6.8198

                     28                     29                     30
                      A                      A                      A
 Frequencies --   3150.7800              3160.1456              3189.2624
 Red. masses --      1.0898                 1.1013                 1.0945
 Frc consts  --      6.3742                 6.4797                 6.5592
 IR Inten    --     15.4441                 4.0974                14.6057

 - Thermochemistry -
 -------------------
 Temperature   298.150 Kelvin.  Pressure   1.00000 Atm.
 Atom     1 has atomic number  6 and mass  12.00000

 Molecular mass:    95.04835 amu.
 Principal axes and moments of inertia in atomic units:
                           1         2         3
     Eigenvalues --   300.97978 640.94007 930.78059
           X            0.99959   0.02880  -0.00001
           Y           -0.02880   0.99959  -0.00000
           Z            0.00001   0.00000   1.00000
 This molecule is an asymmetric top.
 Rotational symmetry number  1.
 Rotational temperatures (Kelvin)      0.28777     0.13514     0.09306
 Rotational constants (GHZ):           5.99622     2.81577     1.93895
 Zero-point vibrational energy     239929.8 (Joules/Mol)
                                   57.34461 (Kcal/Mol)
 Warning -- explicit consideration of   6 degrees of freedom as
           vibrations may cause significant error
 Vibrational temperatures:    110.83   249.17   517.01   547.02   685.58
          (Kelvin)            849.17   942.32  1162.57  1215.08  1274.46
                             1434.49  1452.67  1497.82  1539.59  1560.87
                             1612.39  1726.28  1889.27  1990.71  2027.18
                             2094.49  2125.94  2126.76  2258.82  2296.14
                             4387.53  4471.06  4533.27  4546.74  4588.64

 Zero-point correction=                           0.091384 (Hartree/Particle)
 Thermal correction to Energy=                    0.097268
 Thermal correction to Enthalpy=                  0.098212
 Thermal correction to Gibbs Free Energy=         0.061401
 Sum of electronic and zero-point Energies=           -319.573129
 Sum of electronic and thermal Energies=              -319.567245
 Sum of electronic and thermal Enthalpies=            -319.566301
 Sum of electronic and thermal Free Energies=         -319.603112

                     E (Thermal)             CV                S
                      KCal/Mol        Cal/Mol-Kelvin    Cal/Mol-Kelvin
 Total                   61.036             20.747             77.475
 Electronic               0.000              0.000              0.000
 Translational            0.889              2.981             39.567
 Rotational               0.889              2.981             26.687
 Vibrational             59.259             14.786             11.221
 Vibration     1          0.599              1.964              3.965
 Vibration     2          0.627              1.875              2.401
 Vibration     3          0.734              1.556              1.125
 Vibration     4          0.750              1.512              1.038
 Vibration     5          0.833              1.302              0.720
 Vibration     6          0.948              1.053              0.467

 Optimization completed.
    -- Stationary point found.
 Normal termination of Gaussian 16 at Thu Aug  4 11:35:09 2022.
