 Gaussian 16, Revision A.03,
 Gaussian 16:  ES64L-G16RevA.03 25-Dec-2016

 -----------------------------
 # opt freq b3lyp/6-31g(2df,p)
 -----------------------------

 -------------------
 Title Card Required
 -------------------
 Symbolic Z-matrix:
 Charge =  0 Multiplicity = 1

 SCF Done:  E(RB3LYP) =  -450.253632056     A.U. after   15 cycles
 SCF Done:  E(RB3LYP) =  -450.260205498     A.U. after   13 cycles
 SCF Done:  E(RB3LYP) =  -450.260902155     A.U. after   12 cycles
 SCF Done:  E(RB3LYP) =  -450.260988535     A.U. after   11 cycles
 SCF Done:  E(RB3LYP) =  -450.260921155     A.U. after   11 cycles
 SCF Done:  E(RB3LYP) =  -450.261003429     A.U. after   11 cycles
 SCF Done:  E(RB3LYP) =  -450.261008442     A.U. after    9 cycles
 Optimization completed.
    -- Stationary point found.
 Normal termination of Gaussian 16 at Sun Jul  3 09:14:20 2022.

 ----------------------------------------------------------------------
 #N Geom=AllCheck Guess=TCheck SCRF=Check GenChk RB3LYP/6-31G(2df,p) Fr
 eq
 ----------------------------------------------------------------------

 Structure from the checkpoint file:  "Cc1n[nH]ncpNpc1dO.chk"
 -------------------
 Title Card Required
 -------------------
 Charge =  0 Multiplicity = 1

                         Standard orientation:
 ---------------------------------------------------------------------
 Center     Atomic      Atomic             Coordinates (Angstroms)
 Number     Number       Type             X           Y           Z
 ---------------------------------------------------------------------
      1          6           0       -2.549611   -0.618154    0.000161
      2          6           0       -1.196892    0.023821    0.000120
      3          7           0       -1.123784    1.342326    0.000078
      4          7           0        0.069583    1.885879   -0.000187
      5          7           0        1.269678    1.289100   -0.000304
      6          6           0        1.238100   -0.024829    0.000119
      7          7           0        2.374183   -0.749667    0.001693
      8          6           0       -0.013765   -0.802130   -0.000034
      9          8           0        0.004609   -2.035740   -0.000511
     10          1           0       -3.331827    0.142435    0.000038
     11          1           0       -2.667836   -1.264238    0.876629
     12          1           0       -2.667750   -1.264461   -0.876152
     13          1           0        0.094995    2.892929   -0.000299
     14          1           0        3.278849   -0.315965   -0.004210
     15          1           0        2.262080   -1.750485   -0.003083
 ---------------------------------------------------------------------

 SCF Done:  E(RB3LYP) =  -450.261008442     A.U. after    1 cycles

 The electronic state is 1-A.
 Alpha  occ. eigenvalues --  -19.10629 -14.44643 -14.38206 -14.36958 -14.35169
 Alpha  occ. eigenvalues --  -10.26502 -10.25336 -10.22404 -10.17936  -1.09078
 Alpha  occ. eigenvalues --   -1.01670  -0.95506  -0.90279  -0.82463  -0.72971
 Alpha  occ. eigenvalues --   -0.67156  -0.64613  -0.58196  -0.57685  -0.49898
 Alpha  occ. eigenvalues --   -0.48866  -0.48147  -0.42784  -0.41336  -0.40360
 Alpha  occ. eigenvalues --   -0.39303  -0.38587  -0.34765  -0.33866  -0.31155
 Alpha  occ. eigenvalues --   -0.28350  -0.23280  -0.20896
 Alpha virt. eigenvalues --   -0.04442  -0.00926   0.07501   0.09010   0.12723
 Alpha virt. eigenvalues --    0.13526   0.14458   0.16362   0.19575   0.20522
 Alpha virt. eigenvalues --    0.22420   0.25232   0.26278   0.28324   0.31242

 Mulliken charges:
               1
     1  C   -0.468684
     2  C    0.231957
     3  N   -0.250852
     4  N   -0.085239
     5  N   -0.319486
     6  C    0.355677
     7  N   -0.554789
     8  C    0.246596
     9  O   -0.410984
    10  H    0.130573
    11  H    0.142827
    12  H    0.142822
    13  H    0.293220
    14  H    0.266302
    15  H    0.280062
 Sum of Mulliken charges =  -0.00000

 Dipole moment (field-independent basis, Debye):
    X=              1.5128    Y=              2.0632    Z=             -0.0140  Tot=              2.5585
 Quadrupole moment (field-independent basis, Debye-Ang):
   XX=            -43.7718   YY=            -51.1823   ZZ=            -51.4869
   XY=             -1.8330   XZ=             -0.0467   YZ=              0.0130

  Exact polarizability:  95.041  -0.728  90.968  -0.003  -0.003  37.795
 Approx polarizability: 142.785  -1.994 198.683   0.019  -0.022  60.511

 ******    1 imaginary frequencies (negative Signs) ******

                      1                      2                      3
                      A                      A                      A
 Frequencies --   -215.5503               112.8180               118.3414
 Red. masses --      1.3272                 3.9493                 1.0290
 Frc consts  --      0.0363                 0.0296                 0.0085
 IR Inten    --    173.0779                12.3744                 0.0032

                      4                      5                      6
                      A                      A                      A
 Frequencies --    261.5228               272.3678               313.2448
 Red. masses --      4.7578                 2.8343                 3.8331
 Frc consts  --      0.1917                 0.1239                 0.2216
 IR Inten    --      6.2184                 4.2868                14.4344

                      7                      8                      9
                      A                      A                      A
 Frequencies --    329.6001               468.9757               504.1062
 Red. masses --      5.0134                 3.7049                 6.7512
 Frc consts  --      0.3209                 0.4801                 1.0108
 IR Inten    --      0.1680                 1.6747                23.4225

                     10                     11                     12
                      A                      A                      A
 Frequencies --    538.6010               551.6762               562.3849
 Red. masses --      4.3952                 3.0924                 7.4024
 Frc consts  --      0.7512                 0.5545                 1.3794
 IR Inten    --      5.1938                28.4053                 0.2943

                     13                     14                     15
                      A                      A                      A
 Frequencies --    579.0437               656.7991               710.3898
 Red. masses --      1.1356                 1.6641                 5.5769
 Frc consts  --      0.2243                 0.4229                 1.6582
 IR Inten    --      3.0630                69.8271                 1.7263

                     16                     17                     18
                      A                      A                      A
 Frequencies --    821.3978               906.3489               976.6104
 Red. masses --      6.8648                 6.0212                 2.1056
 Frc consts  --      2.7289                 2.9142                 1.1832
 IR Inten    --      0.0006                24.2418                18.9637

                     19                     20                     21
                      A                      A                      A
 Frequencies --   1001.2673              1055.7021              1084.4601
 Red. masses --      2.3986                 1.5019                 2.4776
 Frc consts  --      1.4168                 0.9862                 1.7168
 IR Inten    --     12.7000                 0.4057                 8.9549

                     22                     23                     24
                      A                      A                      A
 Frequencies --   1221.6221              1294.5192              1377.8543
 Red. masses --      4.1327                 5.0588                 3.4083
 Frc consts  --      3.6337                 4.9948                 3.8124
 IR Inten    --     37.4918                12.2927                10.8869

                     25                     26                     27
                      A                      A                      A
 Frequencies --   1413.4849              1431.0996              1469.9344
 Red. masses --      1.5577                 2.1980                 1.0440
 Frc consts  --      1.8337                 2.6523                 1.3291
 IR Inten    --     13.6634                55.8580                 6.1505

                     28                     29                     30
                      A                      A                      A
 Frequencies --   1475.8674              1513.3388              1552.0826
 Red. masses --      1.2179                 1.8429                 3.0164
 Frc consts  --      1.5630                 2.4867                 4.2812
 IR Inten    --      1.0845                 0.2061                52.1003

                     31                     32                     33
                      A                      A                      A
 Frequencies --   1592.2553              1649.7835              1701.3938
 Red. masses --      1.8314                 4.3382                 7.8344
 Frc consts  --      2.7356                 6.9568                13.3618
 IR Inten    --     51.5350               344.0477               229.4500

                     34                     35                     36
                      A                      A                      A
 Frequencies --   3040.1712              3091.8960              3144.4329
 Red. masses --      1.0366                 1.0987                 1.1017
 Frc consts  --      5.6451                 6.1885                 6.4179
 IR Inten    --     14.1128                 9.4604                 7.8262

                     37                     38                     39
                      A                      A                      A
 Frequencies --   3607.2263              3650.2748              3755.9562
 Red. masses --      1.0439                 1.0793                 1.1047
 Frc consts  --      8.0030                 8.4728                 9.1824
 IR Inten    --     86.5341               128.0174                74.3407

 - Thermochemistry -
 -------------------
 Temperature   298.150 Kelvin.  Pressure   1.00000 Atm.
 Atom     1 has atomic number  6 and mass  12.00000

 Molecular mass:   126.05416 amu.
 Principal axes and moments of inertia in atomic units:
                           1         2         3
     Eigenvalues --   718.29106 985.243791692.47731
           X            0.99978   0.02115  -0.00008
           Y           -0.02115   0.99978   0.00003
           Z            0.00008  -0.00003   1.00000
 This molecule is an asymmetric top.
 Rotational symmetry number  1.
 Warning -- assumption of classical behavior for rotation
           may cause significant error
 Rotational temperatures (Kelvin)      0.12058     0.08791     0.05118
 Rotational constants (GHZ):           2.51255     1.83177     1.06633
    1 imaginary frequencies ignored.
 Zero-point vibrational energy     297923.1 (Joules/Mol)
                                   71.20533 (Kcal/Mol)
 Warning -- explicit consideration of  12 degrees of freedom as
           vibrations may cause significant error
 Vibrational temperatures:    162.32   170.27   376.27   391.88   450.69
          (Kelvin)            474.22   674.75   725.30   774.93   793.74
                              809.15   833.11   944.99  1022.09  1181.81
                             1304.03  1405.12  1440.60  1518.92  1560.30
                             1757.64  1862.52  1982.43  2033.69  2059.03
                             2114.91  2123.44  2177.36  2233.10  2290.90
                             2373.67  2447.93  4374.13  4448.55  4524.14
                             5189.99  5251.93  5403.98

 Zero-point correction=                           0.113473 (Hartree/Particle)
 Thermal correction to Energy=                    0.121214
 Thermal correction to Enthalpy=                  0.122158
 Thermal correction to Gibbs Free Energy=         0.081213
 Sum of electronic and zero-point Energies=           -450.147536
 Sum of electronic and thermal Energies=              -450.139795
 Sum of electronic and thermal Enthalpies=            -450.138851
 Sum of electronic and thermal Free Energies=         -450.179795

                     E (Thermal)             CV                S
                      KCal/Mol        Cal/Mol-Kelvin    Cal/Mol-Kelvin
 Total                   76.063             28.926             86.175
 Electronic               0.000              0.000              0.000
 Translational            0.889              2.981             40.408
 Rotational               0.889              2.981             28.573
 Vibrational             74.285             22.965             17.194
 Vibration     1          0.607              1.939              3.220
 Vibration     2          0.609              1.934              3.127
 Vibration     3          0.669              1.743              1.652
 Vibration     4          0.675              1.724              1.581
 Vibration     5          0.701              1.648              1.345
 Vibration     6          0.712              1.616              1.262
 Vibration     7          0.826              1.319              0.740
 Vibration     8          0.859              1.241              0.648
 Vibration     9          0.894              1.165              0.568
 Vibration    10          0.907              1.136              0.541
 Vibration    11          0.918              1.113              0.519
 Vibration    12          0.936              1.077              0.487

                           ! Non-Optimized Parameters !
 Normal termination of Gaussian 16 at Sun Jul  3 09:38:45 2022.
