 Gaussian 16, Revision A.03,
 Gaussian 16:  ES64L-G16RevA.03 25-Dec-2016

 -----------------------------
 # opt freq b3lyp/6-31g(2df,p)
 -----------------------------

 -------------------
 Title Card Required
 -------------------
 Symbolic Z-matrix:
 Charge =  0 Multiplicity = 1

 SCF Done:  E(RB3LYP) =  -441.673431718     A.U. after   12 cycles
 SCF Done:  E(RB3LYP) =  -441.677103252     A.U. after   10 cycles
 SCF Done:  E(RB3LYP) =  -441.677516482     A.U. after   10 cycles
 SCF Done:  E(RB3LYP) =  -441.677655417     A.U. after   10 cycles
 SCF Done:  E(RB3LYP) =  -441.677699917     A.U. after   10 cycles
 SCF Done:  E(RB3LYP) =  -441.677728857     A.U. after   10 cycles
 SCF Done:  E(RB3LYP) =  -441.677731081     A.U. after    7 cycles
 SCF Done:  E(RB3LYP) =  -441.677731910     A.U. after    7 cycles
 Optimization completed.
    -- Stationary point found.
 Normal termination of Gaussian 16 at Sun Jul  3 21:43:30 2022.

 ----------------------------------------------------------------------
 #N Geom=AllCheck Guess=TCheck SCRF=Check GenChk RB3LYP/6-31G(2df,p) Fr
 eq
 ----------------------------------------------------------------------

 Structure from the checkpoint file:  "CC1OCCCpNpCO1.chk"
 -------------------
 Title Card Required
 -------------------
 Charge =  0 Multiplicity = 1

                         Standard orientation:
 ---------------------------------------------------------------------
 Center     Atomic      Atomic             Coordinates (Angstroms)
 Number     Number       Type             X           Y           Z
 ---------------------------------------------------------------------
      1          6           0       -2.959472   -0.451400    0.085027
      2          6           0       -1.521919   -0.194925   -0.323414
      3          8           0       -1.228445    1.141115   -0.007033
      4          6           0        0.067717    1.594072   -0.373869
      5          6           0        1.156299    1.124034    0.596651
      6          6           0        1.654391   -0.331370    0.438455
      7          7           0        2.909771   -0.357897   -0.329900
      8          6           0        0.598780   -1.279379   -0.170564
      9          8           0       -0.707358   -1.126974    0.355254
     10          1           0       -3.622918    0.256096   -0.416907
     11          1           0       -3.057834   -0.323252    1.165802
     12          1           0       -3.248003   -1.470874   -0.179455
     13          1           0       -1.379430   -0.342841   -1.411789
     14          1           0        0.008345    2.686399   -0.346037
     15          1           0        0.291499    1.308385   -1.415484
     16          1           0        0.751894    1.266047    1.603327
     17          1           0        2.030645    1.777749    0.506331
     18          1           0        1.903653   -0.701852    1.439305
     19          1           0        2.733537   -0.056474   -1.286504
     20          1           0        3.251907   -1.313268   -0.401125
     21          1           0        0.896490   -2.318132    0.016914
     22          1           0        0.583467   -1.142030   -1.264562
 ---------------------------------------------------------------------

 SCF Done:  E(RB3LYP) =  -441.677731910     A.U. after    1 cycles

 The electronic state is 1-A.
 Alpha  occ. eigenvalues --  -19.14010 -19.13703 -14.31312 -10.27402 -10.22878
 Alpha  occ. eigenvalues --  -10.22652 -10.21062 -10.17670 -10.17079  -1.06333
 Alpha  occ. eigenvalues --   -1.00325  -0.88774  -0.78393  -0.73144  -0.70069
 Alpha  occ. eigenvalues --   -0.65064  -0.59275  -0.56896  -0.50565  -0.50446
 Alpha  occ. eigenvalues --   -0.49795  -0.48001  -0.44644  -0.42853  -0.40978
 Alpha  occ. eigenvalues --   -0.39582  -0.38680  -0.38027  -0.36832  -0.35769
 Alpha  occ. eigenvalues --   -0.33082  -0.32256  -0.31123  -0.27888  -0.25966
 Alpha  occ. eigenvalues --   -0.23257
 Alpha virt. eigenvalues --    0.06902   0.08934   0.10515   0.12371   0.13343
 Alpha virt. eigenvalues --    0.13509   0.15263   0.16264   0.16599   0.16723
 Alpha virt. eigenvalues --    0.17579   0.18815   0.19470   0.19977   0.20413

 Mulliken charges:
               1
     1  C   -0.401817
     2  C    0.210311
     3  O   -0.244032
     4  C   -0.087606
     5  C   -0.195320
     6  C    0.011139
     7  N   -0.511409
     8  C   -0.088767
     9  O   -0.247749
    10  H    0.123684
    11  H    0.134706
    12  H    0.121100
    13  H    0.052588
    14  H    0.109349
    15  H    0.080168
    16  H    0.116148
    17  H    0.108557
    18  H    0.088632
    19  H    0.219511
    20  H    0.225547
    21  H    0.097545
    22  H    0.077714
 Sum of Mulliken charges =  -0.00000

 Dipole moment (field-independent basis, Debye):
    X=              0.5432    Y=             -0.6689    Z=             -1.6039  Tot=              1.8207
 Quadrupole moment (field-independent basis, Debye-Ang):
   XX=            -58.4002   YY=            -54.2825   ZZ=            -53.6108
   XY=             -1.7900   XZ=             -0.8793   YZ=              0.5819

  Exact polarizability:  90.405  -0.703  77.549  -0.871   0.105  67.740
 Approx polarizability: 111.922  -2.001 109.016  -3.300  -1.247 106.136

                      1                      2                      3
                      A                      A                      A
 Frequencies --     57.2821               124.7838               203.0860
 Red. masses --      3.1057                 2.8127                 1.0521
 Frc consts  --      0.0060                 0.0258                 0.0256
 IR Inten    --      0.9391                 0.1856                 0.0359

                      4                      5                      6
                      A                      A                      A
 Frequencies --    215.5720               252.7365               299.2446
 Red. masses --      2.7105                 1.3323                 2.6971
 Frc consts  --      0.0742                 0.0501                 0.1423
 IR Inten    --     13.4998                27.1608                 4.5267

                      7                      8                      9
                      A                      A                      A
 Frequencies --    327.6712               334.8687               378.7886
 Red. masses --      2.1649                 2.5852                 3.7383
 Frc consts  --      0.1370                 0.1708                 0.3160
 IR Inten    --      2.4042                 1.2347                 1.2789

                     10                     11                     12
                      A                      A                      A
 Frequencies --    415.3047               471.0423               556.2578
 Red. masses --      2.3432                 2.4759                 2.7632
 Frc consts  --      0.2381                 0.3237                 0.5037
 IR Inten    --     10.6439                 3.2635                 2.0280

                     13                     14                     15
                      A                      A                      A
 Frequencies --    579.0367               611.2034               774.7479
 Red. masses --      2.8549                 3.5310                 3.0039
 Frc consts  --      0.5640                 0.7772                 1.0623
 IR Inten    --      3.0777                 8.1923                 7.8306

                     16                     17                     18
                      A                      A                      A
 Frequencies --    827.8627               853.3653               891.6604
 Red. masses --      2.3232                 2.1806                 1.5435
 Frc consts  --      0.9381                 0.9356                 0.7230
 IR Inten    --     27.5246                37.7923               117.1004

                     19                     20                     21
                      A                      A                      A
 Frequencies --    912.1958               970.2742              1003.6701
 Red. masses --      2.1990                 2.1490                 1.4614
 Frc consts  --      1.0781                 1.1920                 0.8674
 IR Inten    --     19.3154                13.0968                 7.8063

                     22                     23                     24
                      A                      A                      A
 Frequencies --   1035.9572              1059.5212              1063.0334
 Red. masses --      2.1788                 2.0798                 3.5048
 Frc consts  --      1.3777                 1.3756                 2.3335
 IR Inten    --     26.8584                10.9794                45.9885

                     25                     26                     27
                      A                      A                      A
 Frequencies --   1108.2182              1118.4910              1147.0228
 Red. masses --      3.7366                 1.9735                 2.4474
 Frc consts  --      2.7038                 1.4547                 1.8971
 IR Inten    --     35.9293                56.7577               106.3373

                     28                     29                     30
                      A                      A                      A
 Frequencies --   1167.9578              1179.5742              1212.5630
 Red. masses --      2.7514                 2.9096                 1.4617
 Frc consts  --      2.2113                 2.3852                 1.2663
 IR Inten    --     25.2421               137.9792                 5.8168

                     31                     32                     33
                      A                      A                      A
 Frequencies --   1272.6172              1287.9796              1304.3081
 Red. masses --      1.3013                 1.3592                 1.1244
 Frc consts  --      1.2417                 1.3284                 1.1270
 IR Inten    --      2.9597                32.9052                15.0618

                     34                     35                     36
                      A                      A                      A
 Frequencies --   1359.2506              1376.4585              1381.8285
 Red. masses --      1.2070                 1.3158                 1.2209
 Frc consts  --      1.3139                 1.4688                 1.3736
 IR Inten    --      1.4012                23.8885                 8.0514

                     37                     38                     39
                      A                      A                      A
 Frequencies --   1390.7843              1401.2545              1421.3652
 Red. masses --      1.2758                 1.2701                 1.2794
 Frc consts  --      1.4539                 1.4694                 1.5229
 IR Inten    --      5.1365                17.1437                15.8144

                     40                     41                     42
                      A                      A                      A
 Frequencies --   1422.6641              1431.5574              1469.3232
 Red. masses --      1.4401                 1.3945                 1.0921
 Frc consts  --      1.7173                 1.6837                 1.3891
 IR Inten    --     19.2448                 8.7398                 6.3498

                     43                     44                     45
                      A                      A                      A
 Frequencies --   1481.9230              1484.8437              1493.9018
 Red. masses --      1.0468                 1.0587                 1.0824
 Frc consts  --      1.3545                 1.3752                 1.4232
 IR Inten    --      3.5010                 2.1703                 0.5534

                     46                     47                     48
                      A                      A                      A
 Frequencies --   1502.4708              1656.8043              2908.4208
 Red. masses --      1.0902                 1.0909                 1.0812
 Frc consts  --      1.4501                 1.7642                 5.3885
 IR Inten    --      5.5969                23.3123                50.8744

                     49                     50                     51
                      A                      A                      A
 Frequencies --   2959.5909              2973.1320              3031.7756
 Red. masses --      1.0686                 1.0689                 1.0826
 Frc consts  --      5.5147                 5.5671                 5.8630
 IR Inten    --      5.8699                89.5304                 8.5161

                     52                     53                     54
                      A                      A                      A
 Frequencies --   3046.2834              3055.7711              3058.1713
 Red. masses --      1.0684                 1.0909                 1.0347
 Frc consts  --      5.8416                 6.0015                 5.7017
 IR Inten    --     19.6370                62.3657                10.4223

                     55                     56                     57
                      A                      A                      A
 Frequencies --   3077.3885              3094.8964              3138.8072
 Red. masses --      1.0907                 1.1026                 1.1022
 Frc consts  --      6.0859                 6.2222                 6.3981
 IR Inten    --     39.1370                19.4755                16.0417

                     58                     59                     60
                      A                      A                      A
 Frequencies --   3141.6925              3463.4088              3543.0389
 Red. masses --      1.1030                 1.0490                 1.0915
 Frc consts  --      6.4146                 7.4139                 8.0728
 IR Inten    --     15.3370                 0.9536                 0.1332

 - Thermochemistry -
 -------------------
 Temperature   298.150 Kelvin.  Pressure   1.00000 Atm.
 Atom     1 has atomic number  6 and mass  12.00000

 Molecular mass:   131.09463 amu.
 Principal axes and moments of inertia in atomic units:
                           1         2         3
     Eigenvalues --   590.084811526.276801919.61273
           X            0.99998   0.00672  -0.00134
           Y           -0.00670   0.99990   0.01268
           Z            0.00142  -0.01267   0.99992
 This molecule is an asymmetric top.
 Rotational symmetry number  1.
 Warning -- assumption of classical behavior for rotation
           may cause significant error
 Rotational temperatures (Kelvin)      0.14678     0.05675     0.04512
 Rotational constants (GHZ):           3.05844     1.18245     0.94016
 Zero-point vibrational energy     513106.5 (Joules/Mol)
                                  122.63539 (Kcal/Mol)
 Warning -- explicit consideration of  14 degrees of freedom as
           vibrations may cause significant error
 Vibrational temperatures:     82.42   179.54   292.20   310.16   363.63
          (Kelvin)            430.55   471.45   481.80   544.99   597.53
                              677.72   800.33   833.10   879.39  1114.69
                             1191.11  1227.80  1282.90  1312.45  1396.01
                             1444.06  1490.51  1524.41  1529.47  1594.48
                             1609.26  1650.31  1680.43  1697.14  1744.61
                             1831.01  1853.12  1876.61  1955.66  1980.42
                             1988.14  2001.03  2016.09  2045.03  2046.90
                             2059.69  2114.03  2132.16  2136.36  2149.39
                             2161.72  2383.77  4184.57  4258.19  4277.67
                             4362.05  4382.92  4396.57  4400.03  4427.68
                             4452.87  4516.04  4520.19  4983.07  5097.64

 Zero-point correction=                           0.195432 (Hartree/Particle)
 Thermal correction to Energy=                    0.204658
 Thermal correction to Enthalpy=                  0.205603
 Thermal correction to Gibbs Free Energy=         0.161511
 Sum of electronic and zero-point Energies=           -441.482300
 Sum of electronic and thermal Energies=              -441.473073
 Sum of electronic and thermal Enthalpies=            -441.472129
 Sum of electronic and thermal Free Energies=         -441.516221

                     E (Thermal)             CV                S
                      KCal/Mol        Cal/Mol-Kelvin    Cal/Mol-Kelvin
 Total                  128.425             35.444             92.799
 Electronic               0.000              0.000              0.000
 Translational            0.889              2.981             40.525
 Rotational               0.889              2.981             28.938
 Vibrational            126.648             29.483             23.337
 Vibration     1          0.596              1.975              4.549
 Vibration     2          0.610              1.928              3.025
 Vibration     3          0.639              1.836              2.105
 Vibration     4          0.645              1.817              1.996
 Vibration     5          0.664              1.758              1.711
 Vibration     6          0.692              1.675              1.421
 Vibration     7          0.711              1.620              1.272
 Vibration     8          0.716              1.606              1.236
 Vibration     9          0.749              1.515              1.044
 Vibration    10          0.779              1.437              0.908
 Vibration    11          0.828              1.314              0.735
 Vibration    12          0.912              1.126              0.531
 Vibration    13          0.936              1.077              0.487
 Vibration    14          0.970              1.008              0.431

                           ! Non-Optimized Parameters !
 Normal termination of Gaussian 16 at Sun Jul  3 22:24:16 2022.
