 Gaussian 16, Revision A.03,
 Gaussian 16:  ES64L-G16RevA.03 25-Dec-2016

 -----------------------------
 # opt freq b3lyp/6-31g(2df,p)
 -----------------------------

 -------------------
 Title Card Required
 -------------------
 Symbolic Z-matrix:
 Charge =  0 Multiplicity = 1

 SCF Done:  E(RB3LYP) =  -402.316917907     A.U. after   12 cycles
 SCF Done:  E(RB3LYP) =  -402.324001055     A.U. after   11 cycles
 SCF Done:  E(RB3LYP) =  -402.326421058     A.U. after   10 cycles
 SCF Done:  E(RB3LYP) =  -402.328689178     A.U. after   11 cycles
 SCF Done:  E(RB3LYP) =  -402.329222586     A.U. after   10 cycles
 SCF Done:  E(RB3LYP) =  -402.329516963     A.U. after   10 cycles
 SCF Done:  E(RB3LYP) =  -402.329562639     A.U. after    9 cycles
 SCF Done:  E(RB3LYP) =  -402.329578644     A.U. after    9 cycles
 SCF Done:  E(RB3LYP) =  -402.329582309     A.U. after    7 cycles
 SCF Done:  E(RB3LYP) =  -402.329584005     A.U. after    7 cycles
 SCF Done:  E(RB3LYP) =  -402.329584586     A.U. after    7 cycles
 SCF Done:  E(RB3LYP) =  -402.329584721     A.U. after    7 cycles
 SCF Done:  E(RB3LYP) =  -402.329584763     A.U. after    6 cycles
 SCF Done:  E(RB3LYP) =  -402.329584793     A.U. after    6 cycles
 SCF Done:  E(RB3LYP) =  -402.329584814     A.U. after    6 cycles
 Optimization completed.
    -- Stationary point found.
 Normal termination of Gaussian 16 at Thu Aug  4 03:03:46 2022.

 ----------------------------------------------------------------------
 #N Geom=AllCheck Guess=TCheck SCRF=Check GenChk RB3LYP/6-31G(2df,p) Fr
 eq
 ----------------------------------------------------------------------

 Structure from the checkpoint file:  "CC1pOpCC1NCO.chk"
 -------------------
 Title Card Required
 -------------------
 Charge =  0 Multiplicity = 1

                         Standard orientation:
 ---------------------------------------------------------------------
 Center     Atomic      Atomic             Coordinates (Angstroms)
 Number     Number       Type             X           Y           Z
 ---------------------------------------------------------------------
      1          6           0       -2.373540   -0.612785    0.871339
      2          6           0       -1.298762   -0.166073   -0.094333
      3          8           0       -0.774650   -1.199255   -0.883761
      4          6           0       -1.351811    1.223204   -0.685741
      5          6           0       -0.295340    0.871777    0.348741
      6          7           0        1.054759    0.759380   -0.110617
      7          6           0        1.900753   -0.163567    0.625901
      8          8           0        3.065723   -0.448492   -0.109676
      9          1           0       -3.261064   -0.966631    0.332058
     10          1           0       -2.688744    0.207159    1.523482
     11          1           0       -2.008199   -1.433772    1.496750
     12          1           0       -1.449995   -1.454773   -1.521356
     13          1           0       -2.161518    1.890020   -0.409207
     14          1           0       -0.981770    1.324793   -1.699534
     15          1           0       -0.462859    1.264847    1.356598
     16          1           0        1.497025    1.670005   -0.180533
     17          1           0        1.297533   -1.061438    0.821131
     18          1           0        2.260179    0.227859    1.591357
     19          1           0        2.759718   -0.717100   -0.984379
 ---------------------------------------------------------------------

 SCF Done:  E(RB3LYP) =  -402.329584814     A.U. after    1 cycles

 The electronic state is 1-A.
 Alpha  occ. eigenvalues --  -19.14107 -19.12253 -14.31276 -10.24005 -10.23864
 Alpha  occ. eigenvalues --  -10.21229 -10.18057 -10.18053  -1.02880  -1.01318
 Alpha  occ. eigenvalues --   -0.90173  -0.82279  -0.71484  -0.64595  -0.60104
 Alpha  occ. eigenvalues --   -0.56921  -0.51792  -0.50562  -0.48154  -0.45289
 Alpha  occ. eigenvalues --   -0.42906  -0.41969  -0.41180  -0.40682  -0.39054
 Alpha  occ. eigenvalues --   -0.36343  -0.33676  -0.31605  -0.27581  -0.27288
 Alpha  occ. eigenvalues --   -0.25903  -0.22077
 Alpha virt. eigenvalues --    0.07008   0.09913   0.10234   0.12237   0.12615
 Alpha virt. eigenvalues --    0.13583   0.14670   0.15799   0.16472   0.17601
 Alpha virt. eigenvalues --    0.18712   0.20157   0.20894   0.22139   0.25971

 Mulliken charges:
               1
     1  C   -0.443524
     2  C    0.419628
     3  O   -0.456553
     4  C   -0.370284
     5  C   -0.046143
     6  N   -0.294567
     7  C   -0.011919
     8  O   -0.415331
     9  H    0.108345
    10  H    0.116976
    11  H    0.126172
    12  H    0.281937
    13  H    0.107243
    14  H    0.117625
    15  H    0.071671
    16  H    0.218623
    17  H    0.104442
    18  H    0.087048
    19  H    0.278611
 Sum of Mulliken charges =  -0.00000

 Dipole moment (field-independent basis, Debye):
    X=             -2.7051    Y=              0.7070    Z=             -0.3693  Tot=              2.8202
 Quadrupole moment (field-independent basis, Debye-Ang):
   XX=            -52.8591   YY=            -47.0267   ZZ=            -45.1062
   XY=              2.5561   XZ=              0.3090   YZ=              2.2208

  Exact polarizability:  78.503  -0.046  64.415   0.291   0.156  63.854
 Approx polarizability:  99.414  -0.840  93.629   1.478   1.758  93.305

                      1                      2                      3
                      A                      A                      A
 Frequencies --     41.6790                99.9832               119.7651
 Red. masses --      3.7698                 2.4860                 3.3346
 Frc consts  --      0.0039                 0.0146                 0.0282
 IR Inten    --      1.5662                 0.7610                 0.7548

                      4                      5                      6
                      A                      A                      A
 Frequencies --    219.7902               226.3260               240.5930
 Red. masses --      1.1584                 1.3034                 1.7727
 Frc consts  --      0.0330                 0.0393                 0.0605
 IR Inten    --     49.9307                18.7865                28.1088

                      7                      8                      9
                      A                      A                      A
 Frequencies --    320.1625               344.7864               390.0789
 Red. masses --      3.1303                 2.9230                 2.0710
 Frc consts  --      0.1890                 0.2047                 0.1857
 IR Inten    --      1.1764                 0.1561                49.1346

                     10                     11                     12
                      A                      A                      A
 Frequencies --    405.3874               462.8470               494.2452
 Red. masses --      1.6034                 2.8982                 2.4486
 Frc consts  --      0.1553                 0.3658                 0.3524
 IR Inten    --     52.8561                12.0853                 6.3489

                     13                     14                     15
                      A                      A                      A
 Frequencies --    599.6344               701.3109               781.5857
 Red. masses --      2.8462                 2.3069                 1.8774
 Frc consts  --      0.6030                 0.6685                 0.6757
 IR Inten    --     17.6800                29.9399                84.4058

                     16                     17                     18
                      A                      A                      A
 Frequencies --    805.3247               890.3843               916.7781
 Red. masses --      2.2422                 1.4647                 1.6921
 Frc consts  --      0.8568                 0.6842                 0.8379
 IR Inten    --      2.3156                 1.6684                 0.7572

                     19                     20                     21
                      A                      A                      A
 Frequencies --    980.3002              1008.3867              1042.2658
 Red. masses --      1.8651                 1.5573                 1.5285
 Frc consts  --      1.0560                 0.9330                 0.9783
 IR Inten    --      6.2243                51.2845                 0.0095

                     22                     23                     24
                      A                      A                      A
 Frequencies --   1048.3024              1093.2207              1104.4899
 Red. masses --      1.8367                 4.1596                 1.6462
 Frc consts  --      1.1892                 2.9290                 1.1832
 IR Inten    --     19.6527               159.5821                 4.6674

                     25                     26                     27
                      A                      A                      A
 Frequencies --   1129.9115              1163.1858              1200.9362
 Red. masses --      1.4742                 2.2479                 2.7804
 Frc consts  --      1.1089                 1.7920                 2.3626
 IR Inten    --     22.1051                 9.5804                27.6573

                     28                     29                     30
                      A                      A                      A
 Frequencies --   1235.8167              1266.9921              1273.2881
 Red. masses --      1.1747                 1.7707                 2.3235
 Frc consts  --      1.0570                 1.6747                 2.2194
 IR Inten    --      6.3533                38.2918                87.1275

                     31                     32                     33
                      A                      A                      A
 Frequencies --   1356.2919              1390.7162              1409.2415
 Red. masses --      1.4768                 1.2691                 1.2451
 Frc consts  --      1.6005                 1.4462                 1.4569
 IR Inten    --     24.1184                21.5450                17.7725

                     34                     35                     36
                      A                      A                      A
 Frequencies --   1416.4601              1438.4184              1469.2731
 Red. masses --      1.3340                 1.2640                 1.4842
 Frc consts  --      1.5769                 1.5408                 1.8878
 IR Inten    --     15.6076                24.1280                46.9851

                     37                     38                     39
                      A                      A                      A
 Frequencies --   1484.3063              1492.2516              1515.1190
 Red. masses --      1.0620                 1.1219                 1.4769
 Frc consts  --      1.3785                 1.4720                 1.9975
 IR Inten    --      6.7098                 6.5714                 8.2364

                     40                     41                     42
                      A                      A                      A
 Frequencies --   1528.5955              2970.6492              3021.4956
 Red. masses --      1.1003                 1.0620                 1.0981
 Frc consts  --      1.5147                 5.5215                 5.9066
 IR Inten    --      0.5801                77.2434                59.3098

                     43                     44                     45
                      A                      A                      A
 Frequencies --   3022.8625              3035.1132              3086.6116
 Red. masses --      1.0403                 1.0849                 1.0977
 Frc consts  --      5.6009                 5.8885                 6.1618
 IR Inten    --     14.3053                58.6694                26.1698

                     46                     47                     48
                      A                      A                      A
 Frequencies --   3111.1167              3132.5393              3228.9384
 Red. masses --      1.1014                 1.0544                 1.1172
 Frc consts  --      6.2808                 6.0961                 6.8627
 IR Inten    --     19.7327                10.9441                 7.4146

                     49                     50                     51
                      A                      A                      A
 Frequencies --   3520.6895              3789.0464              3798.9931
 Red. masses --      1.0739                 1.0649                 1.0662
 Frc consts  --      7.8428                 9.0081                 9.0658
 IR Inten    --      0.3668                14.9247                16.0283

 - Thermochemistry -
 -------------------
 Temperature   298.150 Kelvin.  Pressure   1.00000 Atm.
 Atom     1 has atomic number  6 and mass  12.00000

 Molecular mass:   117.07898 amu.
 Principal axes and moments of inertia in atomic units:
                           1         2         3
     Eigenvalues --   475.788321522.414241641.26104
           X            0.99996   0.00381  -0.00768
           Y           -0.00411   0.99920  -0.03988
           Z            0.00752   0.03991   0.99918
 This molecule is an asymmetric top.
 Rotational symmetry number  1.
 Warning -- assumption of classical behavior for rotation
           may cause significant error
 Rotational temperatures (Kelvin)      0.18204     0.05689     0.05277
 Rotational constants (GHZ):           3.79316     1.18545     1.09961
 Zero-point vibrational energy     429617.8 (Joules/Mol)
                                  102.68112 (Kcal/Mol)
 Warning -- explicit consideration of  13 degrees of freedom as
           vibrations may cause significant error
 Vibrational temperatures:     59.97   143.85   172.32   316.23   325.63
          (Kelvin)            346.16   460.64   496.07   561.24   583.26
                              665.93   711.11   862.74  1009.03  1124.53
                             1158.68  1281.06  1319.04  1410.43  1450.84
                             1499.59  1508.27  1572.90  1589.11  1625.69
                             1673.56  1727.88  1778.06  1822.92  1831.98
                             1951.40  2000.93  2027.58  2037.97  2069.56
                             2113.96  2135.59  2147.02  2179.92  2199.31
                             4274.10  4347.26  4349.22  4366.85  4440.95
                             4476.20  4507.03  4645.72  5065.49  5451.59
                             5465.90

 Zero-point correction=                           0.163633 (Hartree/Particle)
 Thermal correction to Energy=                    0.173055
 Thermal correction to Enthalpy=                  0.173999
 Thermal correction to Gibbs Free Energy=         0.129171
 Sum of electronic and zero-point Energies=           -402.165952
 Sum of electronic and thermal Energies=              -402.156530
 Sum of electronic and thermal Enthalpies=            -402.155585
 Sum of electronic and thermal Free Energies=         -402.200414

                     E (Thermal)             CV                S
                      KCal/Mol        Cal/Mol-Kelvin    Cal/Mol-Kelvin
 Total                  108.594             34.250             94.350
 Electronic               0.000              0.000              0.000
 Translational            0.889              2.981             40.188
 Rotational               0.889              2.981             28.565
 Vibrational            106.816             28.288             25.597
 Vibration     1          0.594              1.981              5.178
 Vibration     2          0.604              1.949              3.455
 Vibration     3          0.609              1.933              3.104
 Vibration     4          0.647              1.811              1.961
 Vibration     5          0.650              1.801              1.908
 Vibration     6          0.658              1.778              1.798
 Vibration     7          0.706              1.635              1.309
 Vibration     8          0.723              1.586              1.190
 Vibration     9          0.758              1.491              1.000
 Vibration    10          0.770              1.458              0.943
 Vibration    11          0.820              1.332              0.758
 Vibration    12          0.850              1.263              0.673
 Vibration    13          0.958              1.033              0.450

                           ! Non-Optimized Parameters !
 Normal termination of Gaussian 16 at Thu Aug  4 03:28:16 2022.
