 Gaussian 16, Revision A.03,
 Gaussian 16:  ES64L-G16RevA.03 25-Dec-2016

 -----------------------------
 # opt freq b3lyp/6-31g(2df,p)
 -----------------------------

 -------------------
 Title Card Required
 -------------------
 Symbolic Z-matrix:
 Charge =  0 Multiplicity = 1

 SCF Done:  E(RB3LYP) =  -401.899314896     A.U. after   22 cycles
 SCF Done:  E(RB3LYP) =  -401.942855817     A.U. after   15 cycles
 SCF Done:  E(RB3LYP) =  -402.002392287     A.U. after   15 cycles
 SCF Done:  E(RB3LYP) =  -402.037708556     A.U. after   14 cycles
 SCF Done:  E(RB3LYP) =  -402.074975921     A.U. after   14 cycles
 SCF Done:  E(RB3LYP) =  -402.101733341     A.U. after   13 cycles
 SCF Done:  E(RB3LYP) =  -402.111756821     A.U. after   12 cycles
 SCF Done:  E(RB3LYP) =  -402.114077394     A.U. after   12 cycles
 SCF Done:  E(RB3LYP) =  -402.114416133     A.U. after   11 cycles
 SCF Done:  E(RB3LYP) =  -402.114538411     A.U. after   11 cycles
 SCF Done:  E(RB3LYP) =  -402.115828241     A.U. after   12 cycles
 SCF Done:  E(RB3LYP) =  -402.115509856     A.U. after   12 cycles
 SCF Done:  E(RB3LYP) =  -402.086907121     A.U. after   14 cycles
 SCF Done:  E(RB3LYP) =  -402.115972494     A.U. after   12 cycles
 SCF Done:  E(RB3LYP) =  -402.113939428     A.U. after   13 cycles
 SCF Done:  E(RB3LYP) =  -402.116171189     A.U. after   11 cycles
 SCF Done:  E(RB3LYP) =  -402.116190199     A.U. after   10 cycles
 SCF Done:  E(RB3LYP) =  -402.116196872     A.U. after    8 cycles
 SCF Done:  E(RB3LYP) =  -402.116197445     A.U. after    8 cycles
 Optimization completed.
    -- Stationary point found.
 Normal termination of Gaussian 16 at Thu Aug  4 05:15:46 2022.

 ----------------------------------------------------------------------
 #N Geom=AllCheck Guess=TCheck SCRF=Check GenChk RB3LYP/6-31G(2df,p) Fr
 eq
 ----------------------------------------------------------------------

 Structure from the checkpoint file:  "CCC1dCC2CN2C1dO.chk"
 -------------------
 Title Card Required
 -------------------
 Charge =  0 Multiplicity = 1

                         Standard orientation:
 ---------------------------------------------------------------------
 Center     Atomic      Atomic             Coordinates (Angstroms)
 Number     Number       Type             X           Y           Z
 ---------------------------------------------------------------------
      1          6           0        2.903122   -0.066991    0.466996
      2          6           0        1.914828   -0.507906   -0.627387
      3          6           0        0.491479   -0.456661   -0.168497
      4          6           0       -0.403356   -1.441406    0.006816
      5          6           0       -1.712137   -0.881317    0.435073
      6          6           0       -2.429014    0.034597   -0.507066
      7          7           0       -1.543019    0.569154    0.546997
      8          6           0       -0.203105    0.845864    0.073795
      9          8           0        0.231876    1.953981   -0.108864
     10          1           0        3.929489   -0.092768    0.089470
     11          1           0        2.844102   -0.725744    1.339049
     12          1           0        2.682656    0.953036    0.791095
     13          1           0        2.156747   -1.518623   -0.972978
     14          1           0        2.023978    0.164173   -1.487560
     15          1           0       -0.226234   -2.502425   -0.124063
     16          1           0       -2.273224   -1.370211    1.226745
     17          1           0       -3.486203    0.239581   -0.363934
     18          1           0       -2.076095    0.079974   -1.534272
 ---------------------------------------------------------------------

 SCF Done:  E(RB3LYP) =  -402.116197445     A.U. after    1 cycles

 The electronic state is 1-A.
 Alpha  occ. eigenvalues --  -19.12239 -14.34730 -10.28123 -10.23974 -10.23559
 Alpha  occ. eigenvalues --  -10.21171 -10.20338 -10.19443 -10.17668  -1.04698
 Alpha  occ. eigenvalues --   -0.98777  -0.82260  -0.75369  -0.71660  -0.65565
 Alpha  occ. eigenvalues --   -0.61528  -0.58081  -0.54095  -0.51157  -0.47194
 Alpha  occ. eigenvalues --   -0.45032  -0.44316  -0.42113  -0.40560  -0.39409
 Alpha  occ. eigenvalues --   -0.38164  -0.37294  -0.35619  -0.34607  -0.33838
 Alpha  occ. eigenvalues --   -0.29121  -0.25454  -0.24773
 Alpha virt. eigenvalues --   -0.04748   0.05422   0.10101   0.10856   0.11876
 Alpha virt. eigenvalues --    0.12199   0.13587   0.14963   0.15252   0.15566
 Alpha virt. eigenvalues --    0.16834   0.17528   0.18575   0.21865   0.23485

 Mulliken charges:
               1
     1  C   -0.379629
     2  C   -0.290006
     3  C    0.235328
     4  C   -0.224774
     5  C   -0.069040
     6  C   -0.239916
     7  N   -0.124173
     8  C    0.313422
     9  O   -0.328737
    10  H    0.115360
    11  H    0.116006
    12  H    0.148845
    13  H    0.101478
    14  H    0.124359
    15  H    0.118379
    16  H    0.113855
    17  H    0.135014
    18  H    0.134228
 Sum of Mulliken charges =  -0.00000

 Dipole moment (field-independent basis, Debye):
    X=             -0.7099    Y=             -3.8301    Z=             -0.8386  Tot=              3.9845
 Quadrupole moment (field-independent basis, Debye-Ang):
   XX=            -47.2475   YY=            -57.2495   ZZ=            -52.3651
   XY=              0.9335   XZ=              1.1044   YZ=             -1.1800

  Exact polarizability: 100.709   6.699  79.023  -1.673  -2.585  57.731
 Approx polarizability: 136.897  22.619 142.281  -4.972  -5.734  90.547

                      1                      2                      3
                      A                      A                      A
 Frequencies --     62.7583               117.9457               189.1697
 Red. masses --      2.5194                 3.5751                 3.8425
 Frc consts  --      0.0058                 0.0293                 0.0810
 IR Inten    --      1.5172                 1.0953                 0.8441

                      4                      5                      6
                      A                      A                      A
 Frequencies --    202.5248               271.6059               297.5859
 Red. masses --      1.4821                 2.2556                 2.1749
 Frc consts  --      0.0358                 0.0980                 0.1135
 IR Inten    --      1.2764                 0.2392                 2.3269

                      7                      8                      9
                      A                      A                      A
 Frequencies --    432.9967               480.4562               523.1885
 Red. masses --      2.9746                 3.4792                 3.9422
 Frc consts  --      0.3286                 0.4732                 0.6358
 IR Inten    --      1.9670                 5.7765                 0.2582

                     10                     11                     12
                      A                      A                      A
 Frequencies --    596.5445               707.6718               730.0599
 Red. masses --      4.1674                 4.8288                 2.7797
 Frc consts  --      0.8738                 1.4248                 0.8729
 IR Inten    --      3.3416                 0.1998                 6.0173

                     13                     14                     15
                      A                      A                      A
 Frequencies --    798.1601               819.9240               843.3656
 Red. masses --      1.4261                 4.2220                 4.8820
 Frc consts  --      0.5353                 1.6723                 2.0459
 IR Inten    --      3.5506                 2.0527                13.4875

                     16                     17                     18
                      A                      A                      A
 Frequencies --    869.6123               895.6760               939.8356
 Red. masses --      3.3917                 1.4548                 2.3155
 Frc consts  --      1.5112                 0.6876                 1.2050
 IR Inten    --      5.9786                16.2349                36.7750

                     19                     20                     21
                      A                      A                      A
 Frequencies --    961.2598              1023.2650              1045.5803
 Red. masses --      2.7609                 3.1455                 1.6663
 Frc consts  --      1.5031                 1.9405                 1.0733
 IR Inten    --     12.6294                52.8183                 2.6733

                     22                     23                     24
                      A                      A                      A
 Frequencies --   1066.3304              1085.8971              1093.1461
 Red. masses --      1.1920                 1.7520                 1.5049
 Frc consts  --      0.7986                 1.2172                 1.0595
 IR Inten    --      0.9592                 3.6755                 2.6123

                     25                     26                     27
                      A                      A                      A
 Frequencies --   1119.9249              1156.8352              1218.1813
 Red. masses --      1.2964                 1.4961                 2.0428
 Frc consts  --      0.9580                 1.1797                 1.7860
 IR Inten    --      2.7039                14.2216                12.1459

                     28                     29                     30
                      A                      A                      A
 Frequencies --   1266.0066              1272.6370              1339.1104
 Red. masses --      1.9699                 1.6707                 1.7460
 Frc consts  --      1.8603                 1.5942                 1.8448
 IR Inten    --     42.9765                26.8501                12.3935

                     31                     32                     33
                      A                      A                      A
 Frequencies --   1352.7169              1365.3056              1405.6968
 Red. masses --      1.4996                 2.3900                 1.2255
 Frc consts  --      1.6168                 2.6249                 1.4267
 IR Inten    --      4.7656                 3.0299                 2.3939

                     34                     35                     36
                      A                      A                      A
 Frequencies --   1474.0552              1496.4997              1497.4708
 Red. masses --      1.0828                 1.1648                 1.0437
 Frc consts  --      1.3862                 1.5370                 1.3789
 IR Inten    --      2.1390                 6.6290                 7.0100

                     37                     38                     39
                      A                      A                      A
 Frequencies --   1510.1532              1682.8934              1825.9466
 Red. masses --      1.0571                 7.7390                12.6743
 Frc consts  --      1.4204                12.9137                24.8973
 IR Inten    --      3.1849                 2.7025               301.0281

                     40                     41                     42
                      A                      A                      A
 Frequencies --   3030.2259              3042.1915              3072.7207
 Red. masses --      1.0596                 1.0354                 1.1014
 Frc consts  --      5.7326                 5.6456                 6.1267
 IR Inten    --     17.1661                29.0907                12.2898

                     43                     44                     45
                      A                      A                      A
 Frequencies --   3108.7993              3111.0975              3130.0270
 Red. masses --      1.0514                 1.1022                 1.1019
 Frc consts  --      5.9870                 6.2852                 6.3605
 IR Inten    --     23.7222                29.5204                17.9306

                     46                     47                     48
                      A                      A                      A
 Frequencies --   3149.8236              3203.7281              3204.5479
 Red. masses --      1.0898                 1.1100                 1.1049
 Frc consts  --      6.3706                 6.7126                 6.6850
 IR Inten    --     13.6637                14.6056                 4.9397

 - Thermochemistry -
 -------------------
 Temperature   298.150 Kelvin.  Pressure   1.00000 Atm.
 Atom     1 has atomic number  6 and mass  12.00000

 Molecular mass:   123.06841 amu.
 Principal axes and moments of inertia in atomic units:
                           1         2         3
     Eigenvalues --   546.802901354.102381707.24085
           X            0.99996  -0.00145   0.00862
           Y            0.00149   0.99998  -0.00540
           Z           -0.00861   0.00541   0.99995
 This molecule is an asymmetric top.
 Rotational symmetry number  1.
 Warning -- assumption of classical behavior for rotation
           may cause significant error
 Rotational temperatures (Kelvin)      0.15840     0.06396     0.05073
 Rotational constants (GHZ):           3.30053     1.33280     1.05711
 Zero-point vibrational energy     389331.6 (Joules/Mol)
                                   93.05248 (Kcal/Mol)
 Warning -- explicit consideration of  10 degrees of freedom as
           vibrations may cause significant error
 Vibrational temperatures:     90.30   169.70   272.17   291.39   390.78
          (Kelvin)            428.16   622.99   691.27   752.75   858.29
                             1018.18  1050.39  1148.37  1179.69  1213.42
                             1251.18  1288.68  1352.21  1383.04  1472.25
                             1504.36  1534.21  1562.36  1572.79  1611.32
                             1664.43  1752.69  1821.50  1831.04  1926.68
                             1946.26  1964.37  2022.48  2120.84  2153.13
                             2154.53  2172.77  2421.31  2627.13  4359.82
                             4377.04  4420.96  4472.87  4476.18  4503.41
                             4531.89  4609.45  4610.63

 Zero-point correction=                           0.148289 (Hartree/Particle)
 Thermal correction to Energy=                    0.156453
 Thermal correction to Enthalpy=                  0.157397
 Thermal correction to Gibbs Free Energy=         0.115192
 Sum of electronic and zero-point Energies=           -401.967909
 Sum of electronic and thermal Energies=              -401.959745
 Sum of electronic and thermal Enthalpies=            -401.958800
 Sum of electronic and thermal Free Energies=         -402.001006

                     E (Thermal)             CV                S
                      KCal/Mol        Cal/Mol-Kelvin    Cal/Mol-Kelvin
 Total                   98.176             30.688             88.829
 Electronic               0.000              0.000              0.000
 Translational            0.889              2.981             40.337
 Rotational               0.889              2.981             28.626
 Vibrational             96.398             24.726             19.865
 Vibration     1          0.597              1.972              4.369
 Vibration     2          0.608              1.934              3.134
 Vibration     3          0.633              1.855              2.236
 Vibration     4          0.639              1.836              2.110
 Vibration     5          0.675              1.726              1.586
 Vibration     6          0.691              1.678              1.430
 Vibration     7          0.794              1.398              0.849
 Vibration     8          0.837              1.293              0.709
 Vibration     9          0.878              1.199              0.603
 Vibration    10          0.954              1.039              0.456

 Optimization completed.
    -- Stationary point found.
 Normal termination of Gaussian 16 at Thu Aug  4 05:44:05 2022.
