 Gaussian 16, Revision A.03,
 Gaussian 16:  ES64L-G16RevA.03 25-Dec-2016

 -----------------------------
 # opt freq b3lyp/6-31g(2df,p)
 -----------------------------

 -------------------
 Title Card Required
 -------------------
 Symbolic Z-matrix:
 Charge =  0 Multiplicity = 1

 SCF Done:  E(RB3LYP) =  -351.058278691     A.U. after   23 cycles
 SCF Done:  E(RB3LYP) =  -351.107025065     A.U. after   19 cycles
 SCF Done:  E(RB3LYP) =  -351.128740513     A.U. after   19 cycles
 SCF Done:  E(RB3LYP) =  -351.152728775     A.U. after   16 cycles
 SCF Done:  E(RB3LYP) =  -351.173571437     A.U. after   14 cycles
 SCF Done:  E(RB3LYP) =  -351.193503448     A.U. after   13 cycles
 SCF Done:  E(RB3LYP) =  -351.217824005     A.U. after   13 cycles
 SCF Done:  E(RB3LYP) =  -351.218701942     A.U. after    9 cycles
 SCF Done:  E(RB3LYP) =  -351.229225331     A.U. after   13 cycles
 SCF Done:  E(RB3LYP) =  -351.236091626     A.U. after   12 cycles
 SCF Done:  E(RB3LYP) =  -351.302904968     A.U. after   11 cycles
 SCF Done:  E(RB3LYP) =  -351.303969505     A.U. after   10 cycles
 SCF Done:  E(RB3LYP) =  -351.304187193     A.U. after   10 cycles
 SCF Done:  E(RB3LYP) =  -351.304254341     A.U. after    9 cycles
 SCF Done:  E(RB3LYP) =  -351.304284650     A.U. after    9 cycles
 SCF Done:  E(RB3LYP) =  -351.304292774     A.U. after    9 cycles
 SCF Done:  E(RB3LYP) =  -351.304297109     A.U. after    8 cycles
 SCF Done:  E(RB3LYP) =  -351.304298048     A.U. after    7 cycles
 SCF Done:  E(RB3LYP) =  -351.304298170     A.U. after    6 cycles
 Optimization completed.
    -- Stationary point found.
 Normal termination of Gaussian 16 at Thu Aug  4 09:14:33 2022.

 ----------------------------------------------------------------------
 #N Geom=AllCheck Guess=TCheck SCRF=Check GenChk RB3LYP/6-31G(2df,p) Fr
 eq
 ----------------------------------------------------------------------

 Structure from the checkpoint file:  "CCC1dC2CCC2C1C.chk"
 -------------------
 Title Card Required
 -------------------
 Charge =  0 Multiplicity = 1

                         Standard orientation:
 ---------------------------------------------------------------------
 Center     Atomic      Atomic             Coordinates (Angstroms)
 Number     Number       Type             X           Y           Z
 ---------------------------------------------------------------------
      1          6           0       -2.944441   -0.815115   -0.245327
      2          6           0       -1.624418   -1.141820    0.478727
      3          6           0       -0.471684   -0.308015    0.025234
      4          6           0        0.713114   -0.573653   -0.563178
      5          6           0        1.948038   -1.418511   -0.343260
      6          6           0        2.438037   -0.152491    0.479874
      7          6           0        1.355513    0.744888   -0.235949
      8          6           0       -0.026284    1.128530    0.403971
      9          6           0       -0.744987    2.347998   -0.162687
     10          1           0       -3.758669   -1.450353    0.118180
     11          1           0       -2.843782   -0.971295   -1.323698
     12          1           0       -3.235427    0.228068   -0.086973
     13          1           0       -1.383190   -2.201886    0.328799
     14          1           0       -1.772984   -1.005662    1.559706
     15          1           0        2.556320   -1.566872   -1.241358
     16          1           0        1.844720   -2.369639    0.185150
     17          1           0        3.480834    0.140621    0.329590
     18          1           0        2.241585   -0.275821    1.547857
     19          1           0        1.755896    1.404997   -1.009241
     20          1           0        0.049816    1.208840    1.497335
     21          1           0       -0.803329    2.293007   -1.254861
     22          1           0       -0.221201    3.273939    0.102431
     23          1           0       -1.767908    2.421188    0.222654
 ---------------------------------------------------------------------

 SCF Done:  E(RB3LYP) =  -351.304298170     A.U. after    1 cycles

 The electronic state is 1-A.
 Alpha  occ. eigenvalues --  -10.19051 -10.18986 -10.18811 -10.17961 -10.17302
 Alpha  occ. eigenvalues --  -10.17248 -10.17113 -10.17032 -10.16758  -0.87919
 Alpha  occ. eigenvalues --   -0.77934  -0.75174  -0.69853  -0.65408  -0.62323
 Alpha  occ. eigenvalues --   -0.57701  -0.56303  -0.49307  -0.46564  -0.44846
 Alpha  occ. eigenvalues --   -0.43786  -0.41871  -0.40314  -0.39625  -0.38176
 Alpha  occ. eigenvalues --   -0.36635  -0.35900  -0.35389  -0.34675  -0.32149
 Alpha  occ. eigenvalues --   -0.30331  -0.29478  -0.26904  -0.20370
 Alpha virt. eigenvalues --    0.01425   0.09499   0.10719   0.11373   0.11602
 Alpha virt. eigenvalues --    0.13029   0.14171   0.14983   0.15586   0.16499
 Alpha virt. eigenvalues --    0.16773   0.17748   0.18250   0.18980   0.19859

 Mulliken charges:
               1
     1  C   -0.366700
     2  C   -0.301433
     3  C    0.212888
     4  C    0.066801
     5  C   -0.297931
     6  C   -0.231710
     7  C   -0.050386
     8  C   -0.065964
     9  C   -0.407233
    10  H    0.107655
    11  H    0.119553
    12  H    0.118896
    13  H    0.098568
    14  H    0.098070
    15  H    0.109007
    16  H    0.102660
    17  H    0.101384
    18  H    0.107583
    19  H    0.063241
    20  H    0.076588
    21  H    0.116874
    22  H    0.109182
    23  H    0.112408
 Sum of Mulliken charges =  -0.00000

 Dipole moment (field-independent basis, Debye):
    X=              0.3137    Y=             -0.1658    Z=              0.5753  Tot=              0.6759
 Quadrupole moment (field-independent basis, Debye-Ang):
   XX=            -55.0940   YY=            -56.0791   ZZ=            -56.4288
   XY=             -0.1480   XZ=             -0.9008   YZ=             -0.1914

  Exact polarizability: 118.095  -3.004  94.255  -5.634   0.538  74.993
 Approx polarizability: 162.914  -4.357 131.228 -15.472   3.815 122.136

                      1                      2                      3
                      A                      A                      A
 Frequencies --     53.0085               107.0030               152.4739
 Red. masses --      2.1800                 2.9074                 2.5567
 Frc consts  --      0.0036                 0.0196                 0.0350
 IR Inten    --      0.0449                 0.3589                 0.6074

                      4                      5                      6
                      A                      A                      A
 Frequencies --    193.2741               216.7973               232.4563
 Red. masses --      1.4129                 2.2140                 1.0815
 Frc consts  --      0.0311                 0.0613                 0.0344
 IR Inten    --      0.3178                 0.5569                 0.1744

                      7                      8                      9
                      A                      A                      A
 Frequencies --    271.1631               285.3579               363.8836
 Red. masses --      1.6174                 2.4938                 2.1161
 Frc consts  --      0.0701                 0.1196                 0.1651
 IR Inten    --      0.1266                 0.5351                 2.4497

                     10                     11                     12
                      A                      A                      A
 Frequencies --    408.5202               582.1218               627.6408
 Red. masses --      2.9029                 3.3497                 3.3210
 Frc consts  --      0.2854                 0.6688                 0.7708
 IR Inten    --      0.3976                 6.1614                 0.3017

                     13                     14                     15
                      A                      A                      A
 Frequencies --    685.1810               721.8175               766.2929
 Red. masses --      2.9395                 1.7959                 1.3539
 Frc consts  --      0.8131                 0.5513                 0.4684
 IR Inten    --      3.9658                 2.8012                 0.8562

                     16                     17                     18
                      A                      A                      A
 Frequencies --    784.8311               827.7595               846.2394
 Red. masses --      2.8301                 1.5932                 2.3993
 Frc consts  --      1.0271                 0.6432                 1.0123
 IR Inten    --      6.9469                14.4894                 2.6242

                     19                     20                     21
                      A                      A                      A
 Frequencies --    913.5253               935.7612               967.7018
 Red. masses --      2.1525                 2.3354                 2.4184
 Frc consts  --      1.0584                 1.2049                 1.3343
 IR Inten    --      4.1318                 8.4036                 1.1426

                     22                     23                     24
                      A                      A                      A
 Frequencies --    973.3563              1004.1630              1045.7916
 Red. masses --      1.5237                 1.4286                 1.2662
 Frc consts  --      0.8505                 0.8487                 0.8159
 IR Inten    --      1.1084                 0.2101                 2.1825

                     25                     26                     27
                      A                      A                      A
 Frequencies --   1065.4723              1096.7598              1117.7690
 Red. masses --      1.8934                 1.9329                 2.5394
 Frc consts  --      1.2664                 1.3699                 1.8693
 IR Inten    --      6.5338                 6.2798                 4.9192

                     28                     29                     30
                      A                      A                      A
 Frequencies --   1125.2729              1143.2780              1153.7079
 Red. masses --      1.9526                 1.8662                 1.5545
 Frc consts  --      1.4567                 1.4372                 1.2191
 IR Inten    --      1.1255                 3.2541                 1.3234

                     31                     32                     33
                      A                      A                      A
 Frequencies --   1182.5666              1212.7165              1215.8669
 Red. masses --      1.5182                 1.8262                 1.4739
 Frc consts  --      1.2509                 1.5824                 1.2838
 IR Inten    --      0.5952                 4.1439                 3.0920

                     34                     35                     36
                      A                      A                      A
 Frequencies --   1236.6776              1260.0558              1282.8259
 Red. masses --      1.4343                 1.7503                 1.3894
 Frc consts  --      1.2924                 1.6373                 1.3471
 IR Inten    --      1.7310                 5.6205                 0.8634

                     37                     38                     39
                      A                      A                      A
 Frequencies --   1305.8500              1339.4131              1347.3949
 Red. masses --      1.2722                 1.6804                 1.5209
 Frc consts  --      1.2782                 1.7762                 1.6268
 IR Inten    --      1.1147                14.1518                 9.0970

                     40                     41                     42
                      A                      A                      A
 Frequencies --   1401.0823              1406.5092              1463.9309
 Red. masses --      1.2377                 1.2220                 1.0977
 Frc consts  --      1.4315                 1.4243                 1.3860
 IR Inten    --      0.4296                 1.7755                 2.4298

                     43                     44                     45
                      A                      A                      A
 Frequencies --   1470.6799              1485.4393              1489.3701
 Red. masses --      1.0779                 1.1155                 1.0427
 Frc consts  --      1.3737                 1.4502                 1.3628
 IR Inten    --      2.8668                 0.8996                 1.4964

                     46                     47                     48
                      A                      A                      A
 Frequencies --   1495.5894              1498.0380              1505.4687
 Red. masses --      1.0514                 1.0412                 1.0586
 Frc consts  --      1.3856                 1.3766                 1.4137
 IR Inten    --      3.0681                 7.4791                 1.3102

                     49                     50                     51
                      A                      A                      A
 Frequencies --   1698.0806              2998.4798              3010.0392
 Red. masses --      9.9547                 1.0626                 1.0811
 Frc consts  --     16.9120                 5.6286                 5.7714
 IR Inten    --      3.9058                23.6193                25.9498

                     52                     53                     54
                      A                      A                      A
 Frequencies --   3022.1815              3034.4335              3043.4094
 Red. masses --      1.0359                 1.0345                 1.0952
 Frc consts  --      5.5745                 5.6123                 5.9765
 IR Inten    --     31.8378                41.7931                 4.8243

                     55                     56                     57
                      A                      A                      A
 Frequencies --   3045.1058              3051.4714              3072.3840
 Red. masses --      1.0603                 1.0584                 1.0862
 Frc consts  --      5.7928                 5.8064                 6.0412
 IR Inten    --     55.4432                65.5267                41.9569

                     58                     59                     60
                      A                      A                      A
 Frequencies --   3087.4531              3097.3364              3099.7251
 Red. masses --      1.1008                 1.1014                 1.1066
 Frc consts  --      6.1825                 6.2253                 6.2647
 IR Inten    --     37.6966                26.5647                 8.9120

                     61                     62                     63
                      A                      A                      A
 Frequencies --   3104.4078              3110.4481              3120.1538
 Red. masses --      1.1015                 1.1024                 1.1088
 Frc consts  --      6.2547                 6.2839                 6.3601
 IR Inten    --     35.9636                35.1648                48.8650

 - Thermochemistry -
 -------------------
 Temperature   298.150 Kelvin.  Pressure   1.00000 Atm.
 Atom     1 has atomic number  6 and mass  12.00000

 Molecular mass:   122.10955 amu.
 Principal axes and moments of inertia in atomic units:
                           1         2         3
     Eigenvalues --   756.128491392.713631950.48832
           X            0.99999  -0.00303   0.00307
           Y            0.00307   0.99994  -0.01065
           Z           -0.00304   0.01066   0.99994
 This molecule is an asymmetric top.
 Rotational symmetry number  1.
 Warning -- assumption of classical behavior for rotation
           may cause significant error
 Rotational temperatures (Kelvin)      0.11455     0.06219     0.04441
 Rotational constants (GHZ):           2.38682     1.29585     0.92528
 Zero-point vibrational energy     537499.9 (Joules/Mol)
                                  128.46556 (Kcal/Mol)
 Warning -- explicit consideration of  11 degrees of freedom as
           vibrations may cause significant error
 Vibrational temperatures:     76.27   153.95   219.38   278.08   311.92
          (Kelvin)            334.45   390.14   410.57   523.55   587.77
                              837.54   903.04   985.82  1038.53  1102.52
                             1129.20  1190.96  1217.55  1314.36  1346.35
                             1392.31  1400.44  1444.77  1504.66  1532.98
                             1577.99  1608.22  1619.02  1644.92  1659.93
                             1701.45  1744.83  1749.36  1779.30  1812.94
                             1845.70  1878.83  1927.12  1938.60  2015.84
                             2023.65  2106.27  2115.98  2137.22  2142.87
                             2151.82  2155.34  2166.03  2443.16  4314.14
                             4330.78  4348.25  4365.87  4378.79  4381.23
                             4390.39  4420.48  4442.16  4456.38  4459.81
                             4466.55  4475.24  4489.21

 Zero-point correction=                           0.204723 (Hartree/Particle)
 Thermal correction to Energy=                    0.214314
 Thermal correction to Enthalpy=                  0.215258
 Thermal correction to Gibbs Free Energy=         0.170135
 Sum of electronic and zero-point Energies=           -351.099575
 Sum of electronic and thermal Energies=              -351.089985
 Sum of electronic and thermal Enthalpies=            -351.089040
 Sum of electronic and thermal Free Energies=         -351.134163

                     E (Thermal)             CV                S
                      KCal/Mol        Cal/Mol-Kelvin    Cal/Mol-Kelvin
 Total                  134.484             36.293             94.968
 Electronic               0.000              0.000              0.000
 Translational            0.889              2.981             40.313
 Rotational               0.889              2.981             29.109
 Vibrational            132.706             30.332             25.546
 Vibration     1          0.596              1.976              4.702
 Vibration     2          0.606              1.944              3.323
 Vibration     3          0.619              1.900              2.641
 Vibration     4          0.635              1.849              2.196
 Vibration     5          0.646              1.815              1.986
 Vibration     6          0.653              1.791              1.860
 Vibration     7          0.675              1.726              1.589
 Vibration     8          0.683              1.701              1.501
 Vibration     9          0.737              1.547              1.105
 Vibration    10          0.773              1.452              0.932
 Vibration    11          0.939              1.070              0.481

 Optimization completed.
    -- Stationary point found.
 Normal termination of Gaussian 16 at Thu Aug  4 09:53:00 2022.
