 Gaussian 16, Revision A.03,
 Gaussian 16:  ES64L-G16RevA.03 25-Dec-2016

 -----------------------------
 # opt freq b3lyp/6-31g(2df,p)
 -----------------------------

 -------------------
 Title Card Required
 -------------------
 Symbolic Z-matrix:
 Charge =  0 Multiplicity = 1

 SCF Done:  E(RB3LYP) =  -404.500406090     A.U. after   12 cycles
 SCF Done:  E(RB3LYP) =  -404.519499943     A.U. after   11 cycles
 SCF Done:  E(RB3LYP) =  -404.527061938     A.U. after   11 cycles
 SCF Done:  E(RB3LYP) =  -404.528950331     A.U. after   11 cycles
 SCF Done:  E(RB3LYP) =  -404.529691804     A.U. after   10 cycles
 SCF Done:  E(RB3LYP) =  -404.529875833     A.U. after    9 cycles
 SCF Done:  E(RB3LYP) =  -404.529924196     A.U. after    9 cycles
 SCF Done:  E(RB3LYP) =  -404.529933060     A.U. after    8 cycles
 SCF Done:  E(RB3LYP) =  -404.529934728     A.U. after    7 cycles
 SCF Done:  E(RB3LYP) =  -404.529935027     A.U. after    6 cycles
 SCF Done:  E(RB3LYP) =  -404.529935087     A.U. after    6 cycles
 Optimization completed.
    -- Stationary point found.
 Normal termination of Gaussian 16 at Thu Aug  4 05:42:28 2022.

 ----------------------------------------------------------------------
 #N Geom=AllCheck Guess=TCheck SCRF=Check GenChk RB3LYP/6-31G(2df,p) Fr
 eq
 ----------------------------------------------------------------------

 Structure from the checkpoint file:  "CCC12CCCpOpN1C2.chk"
 -------------------
 Title Card Required
 -------------------
 Charge =  0 Multiplicity = 1

                         Standard orientation:
 ---------------------------------------------------------------------
 Center     Atomic      Atomic             Coordinates (Angstroms)
 Number     Number       Type             X           Y           Z
 ---------------------------------------------------------------------
      1          6           0       -2.930563   -0.498272    0.432725
      2          6           0       -2.013027    0.651775    0.013207
      3          6           0       -0.597826    0.248322   -0.364392
      4          6           0        0.386323    1.388966   -0.666626
      5          6           0        1.452533    1.230623    0.439440
      6          6           0        1.495134   -0.286430    0.710937
      7          8           0        2.472616   -0.969751   -0.042928
      8          7           0        0.097349   -0.752538    0.482684
      9          6           0       -0.239990   -1.084781   -0.909595
     10          1           0       -3.881744   -0.112416    0.810889
     11          1           0       -2.460952   -1.094752    1.219440
     12          1           0       -3.157058   -1.161886   -0.407842
     13          1           0       -1.945848    1.380686    0.833239
     14          1           0       -2.454194    1.193309   -0.834544
     15          1           0       -0.103777    2.364989   -0.629929
     16          1           0        0.823774    1.292866   -1.666996
     17          1           0        1.115594    1.744333    1.345747
     18          1           0        2.439943    1.626392    0.184722
     19          1           0        1.740618   -0.517106    1.750417
     20          1           0        2.527098   -0.574831   -0.918881
     21          1           0       -0.982640   -1.871054   -1.013996
     22          1           0        0.561304   -1.145973   -1.641808
 ---------------------------------------------------------------------

 SCF Done:  E(RB3LYP) =  -404.529935087     A.U. after    1 cycles

 The electronic state is 1-A.
 Alpha  occ. eigenvalues --  -19.14064 -14.31498 -10.25203 -10.21361 -10.20438
 Alpha  occ. eigenvalues --  -10.18996 -10.18660 -10.18170 -10.16805  -1.03146
 Alpha  occ. eigenvalues --   -0.95420  -0.77960  -0.76969  -0.71452  -0.64243
 Alpha  occ. eigenvalues --   -0.61357  -0.59177  -0.54074  -0.51296  -0.48701
 Alpha  occ. eigenvalues --   -0.45735  -0.44285  -0.43541  -0.41808  -0.40239
 Alpha  occ. eigenvalues --   -0.38805  -0.36100  -0.35793  -0.34532  -0.32937
 Alpha  occ. eigenvalues --   -0.32546  -0.31930  -0.30495  -0.27753  -0.22431
 Alpha virt. eigenvalues --    0.05375   0.09493   0.11065   0.11428   0.11952
 Alpha virt. eigenvalues --    0.13575   0.14533   0.15611   0.16065   0.16666
 Alpha virt. eigenvalues --    0.17468   0.19047   0.19570   0.20355   0.20814

 Mulliken charges:
               1
     1  C   -0.392538
     2  C   -0.269132
     3  C    0.362588
     4  C   -0.321521
     5  C   -0.238421
     6  C    0.143680
     7  O   -0.415332
     8  N   -0.142931
     9  C   -0.283213
    10  H    0.108701
    11  H    0.141119
    12  H    0.113868
    13  H    0.096342
    14  H    0.096814
    15  H    0.107582
    16  H    0.097239
    17  H    0.113324
    18  H    0.102711
    19  H    0.095950
    20  H    0.281526
    21  H    0.113659
    22  H    0.087988
 Sum of Mulliken charges =  -0.00000

 Dipole moment (field-independent basis, Debye):
    X=             -0.2832    Y=              2.0295    Z=             -1.4424  Tot=              2.5059
 Quadrupole moment (field-independent basis, Debye-Ang):
   XX=            -56.8299   YY=            -57.2484   ZZ=            -53.4716
   XY=              2.9323   XZ=             -1.7940   YZ=              2.0911

  Exact polarizability:  91.576   0.826  78.582   0.192   2.514  72.865
 Approx polarizability: 117.576  -3.008 115.858   0.803   2.845 115.575

                      1                      2                      3
                      A                      A                      A
 Frequencies --     75.2777                88.6444               164.2026
 Red. masses --      2.5839                 2.6260                 2.1113
 Frc consts  --      0.0086                 0.0122                 0.0335
 IR Inten    --      1.5584                 0.0531                 2.7591

                      4                      5                      6
                      A                      A                      A
 Frequencies --    197.6443               260.8940               276.7170
 Red. masses --      2.3571                 1.3023                 1.1650
 Frc consts  --      0.0542                 0.0522                 0.0526
 IR Inten    --      5.8090                 9.8851                73.7562

                      7                      8                      9
                      A                      A                      A
 Frequencies --    357.4724               386.8032               415.5780
 Red. masses --      2.6391                 2.5078                 2.2787
 Frc consts  --      0.1987                 0.2211                 0.2319
 IR Inten    --      1.3975                 0.4531                 4.5811

                     10                     11                     12
                      A                      A                      A
 Frequencies --    448.6586               525.0833               597.5002
 Red. masses --      2.7085                 3.2939                 3.0482
 Frc consts  --      0.3212                 0.5351                 0.6412
 IR Inten    --      1.5424                 5.0227                 5.2665

                     13                     14                     15
                      A                      A                      A
 Frequencies --    697.6763               737.6019               756.4638
 Red. masses --      2.1901                 4.6888                 1.8108
 Frc consts  --      0.6281                 1.5030                 0.6105
 IR Inten    --      5.8540                 3.7357                 4.5927

                     16                     17                     18
                      A                      A                      A
 Frequencies --    809.3056               828.5526               862.3421
 Red. masses --      2.3400                 2.0600                 2.5014
 Frc consts  --      0.9030                 0.8332                 1.0959
 IR Inten    --     16.4231                 5.0952                10.2812

                     19                     20                     21
                      A                      A                      A
 Frequencies --    910.5416               946.4850               963.3959
 Red. masses --      1.7498                 2.2340                 1.9130
 Frc consts  --      0.8547                 1.1792                 1.0461
 IR Inten    --      2.6675                 9.7968                18.8925

                     22                     23                     24
                      A                      A                      A
 Frequencies --    978.4770              1018.7309              1042.1606
 Red. masses --      2.1238                 2.1744                 1.8394
 Frc consts  --      1.1980                 1.3295                 1.1771
 IR Inten    --      8.1186                24.0007                49.0147

                     25                     26                     27
                      A                      A                      A
 Frequencies --   1072.7449              1081.8113              1112.7973
 Red. masses --      2.4013                 1.7736                 1.4362
 Frc consts  --      1.6282                 1.2229                 1.0479
 IR Inten    --     23.9113                16.8123                 3.1354

                     28                     29                     30
                      A                      A                      A
 Frequencies --   1126.9848              1147.2353              1159.8901
 Red. masses --      1.6271                 1.5036                 1.6590
 Frc consts  --      1.2176                 1.1659                 1.3150
 IR Inten    --     26.7355                39.1313                21.0895

                     31                     32                     33
                      A                      A                      A
 Frequencies --   1207.0071              1232.6545              1271.2548
 Red. masses --      1.6086                 1.9983                 1.4543
 Frc consts  --      1.3808                 1.7889                 1.3847
 IR Inten    --     40.5413                14.5386                 3.4079

                     34                     35                     36
                      A                      A                      A
 Frequencies --   1298.4539              1322.5266              1326.6110
 Red. masses --      1.2271                 1.3921                 1.4046
 Frc consts  --      1.2189                 1.4346                 1.4565
 IR Inten    --      1.7040                 2.6914                 6.0598

                     37                     38                     39
                      A                      A                      A
 Frequencies --   1337.0627              1383.8689              1385.1519
 Red. masses --      1.3470                 1.8094                 2.1113
 Frc consts  --      1.4188                 2.0416                 2.3867
 IR Inten    --      1.1170                 0.4085                14.7445

                     40                     41                     42
                      A                      A                      A
 Frequencies --   1411.0508              1443.7496              1481.6777
 Red. masses --      1.3577                 1.2006                 1.0807
 Frc consts  --      1.5927                 1.4745                 1.3979
 IR Inten    --      8.6450                43.8632                 0.3746

                     43                     44                     45
                      A                      A                      A
 Frequencies --   1485.3398              1495.9689              1501.8718
 Red. masses --      1.0828                 1.0693                 1.0933
 Frc consts  --      1.4076                 1.4100                 1.4530
 IR Inten    --      3.4312                 5.4765                 3.0321

                     46                     47                     48
                      A                      A                      A
 Frequencies --   1510.9094              1525.2364              3004.3702
 Red. masses --      1.0877                 1.1574                 1.0605
 Frc consts  --      1.4629                 1.5863                 5.6399
 IR Inten    --      9.1833                 5.0304                30.6104

                     49                     50                     51
                      A                      A                      A
 Frequencies --   3035.2318              3037.0057              3041.8647
 Red. masses --      1.0934                 1.0701                 1.0396
 Frc consts  --      5.9349                 5.8153                 5.6678
 IR Inten    --      7.1682                40.2694                24.7608

                     52                     53                     54
                      A                      A                      A
 Frequencies --   3049.0606              3081.8816              3092.1215
 Red. masses --      1.0622                 1.0870                 1.0963
 Frc consts  --      5.8184                 6.0827                 6.1761
 IR Inten    --     16.7418                46.9947                16.1902

                     55                     56                     57
                      A                      A                      A
 Frequencies --   3102.6551              3103.0912              3106.7877
 Red. masses --      1.0753                 1.1018                 1.0794
 Frc consts  --      6.0989                 6.2509                 6.1383
 IR Inten    --     10.0433                14.1452                66.2237

                     58                     59                     60
                      A                      A                      A
 Frequencies --   3123.4804              3180.3483              3814.8214
 Red. masses --      1.1015                 1.1167                 1.0661
 Frc consts  --      6.3317                 6.6546                 9.1415
 IR Inten    --     18.5153                18.5636                10.6046

 - Thermochemistry -
 -------------------
 Temperature   298.150 Kelvin.  Pressure   1.00000 Atm.
 Atom     1 has atomic number  6 and mass  12.00000

 Molecular mass:   127.09971 amu.
 Principal axes and moments of inertia in atomic units:
                           1         2         3
     Eigenvalues --   570.107441484.142001717.20199
           X            0.99963   0.02588  -0.00863
           Y           -0.02567   0.99940   0.02317
           Z            0.00923  -0.02294   0.99969
 This molecule is an asymmetric top.
 Rotational symmetry number  1.
 Warning -- assumption of classical behavior for rotation
           may cause significant error
 Rotational temperatures (Kelvin)      0.15193     0.05836     0.05044
 Rotational constants (GHZ):           3.16562     1.21602     1.05098
 Zero-point vibrational energy     511049.4 (Joules/Mol)
                                  122.14374 (Kcal/Mol)
 Warning -- explicit consideration of  12 degrees of freedom as
           vibrations may cause significant error
 Vibrational temperatures:    108.31   127.54   236.25   284.37   375.37
          (Kelvin)            398.13   514.32   556.52   597.92   645.52
                              755.48   859.67  1003.80  1061.24  1088.38
                             1164.41  1192.10  1240.72  1310.07  1361.78
                             1386.11  1407.81  1465.73  1499.44  1543.44
                             1556.49  1601.07  1621.48  1650.62  1668.82
                             1736.61  1773.51  1829.05  1868.19  1902.82
                             1908.70  1923.74  1991.08  1992.92  2030.19
                             2077.23  2131.80  2137.07  2152.37  2160.86
                             2173.86  2194.47  4322.62  4367.02  4369.57
                             4376.56  4386.92  4434.14  4448.87  4464.03
                             4464.66  4469.97  4493.99  4575.81  5488.68

 Zero-point correction=                           0.194648 (Hartree/Particle)
 Thermal correction to Energy=                    0.203770
 Thermal correction to Enthalpy=                  0.204714
 Thermal correction to Gibbs Free Energy=         0.160831
 Sum of electronic and zero-point Energies=           -404.335287
 Sum of electronic and thermal Energies=              -404.326165
 Sum of electronic and thermal Enthalpies=            -404.325221
 Sum of electronic and thermal Free Energies=         -404.369104

                     E (Thermal)             CV                S
                      KCal/Mol        Cal/Mol-Kelvin    Cal/Mol-Kelvin
 Total                  127.868             35.282             92.361
 Electronic               0.000              0.000              0.000
 Translational            0.889              2.981             40.433
 Rotational               0.889              2.981             28.765
 Vibrational            126.090             29.320             23.163
 Vibration     1          0.599              1.965              4.010
 Vibration     2          0.601              1.957              3.690
 Vibration     3          0.623              1.886              2.501
 Vibration     4          0.637              1.843              2.155
 Vibration     5          0.669              1.744              1.656
 Vibration     6          0.678              1.716              1.554
 Vibration     7          0.733              1.560              1.133
 Vibration     8          0.755              1.498              1.012
 Vibration     9          0.779              1.436              0.907
 Vibration    10          0.808              1.364              0.800
 Vibration    11          0.880              1.194              0.598
 Vibration    12          0.955              1.037              0.454

 Optimization completed.
    -- Stationary point found.
 Normal termination of Gaussian 16 at Thu Aug  4 06:23:19 2022.
