 Gaussian 16, Revision A.03,
 Gaussian 16:  ES64L-G16RevA.03 25-Dec-2016

 -----------------------------
 # opt freq b3lyp/6-31g(2df,p)
 -----------------------------

 -------------------
 Title Card Required
 -------------------
 Symbolic Z-matrix:
 Charge =  0 Multiplicity = 1

 SCF Done:  E(RB3LYP) =  -352.555343943     A.U. after   12 cycles
 SCF Done:  E(RB3LYP) =  -352.559594916     A.U. after   10 cycles
 SCF Done:  E(RB3LYP) =  -352.561530468     A.U. after   10 cycles
 SCF Done:  E(RB3LYP) =  -352.563959105     A.U. after   10 cycles
 SCF Done:  E(RB3LYP) =  -352.564564708     A.U. after    9 cycles
 SCF Done:  E(RB3LYP) =  -352.564237558     A.U. after   10 cycles
 SCF Done:  E(RB3LYP) =  -352.565752850     A.U. after   10 cycles
 SCF Done:  E(RB3LYP) =  -352.566322253     A.U. after   10 cycles
 SCF Done:  E(RB3LYP) =  -352.566400154     A.U. after   10 cycles
 SCF Done:  E(RB3LYP) =  -352.566425060     A.U. after    8 cycles
 SCF Done:  E(RB3LYP) =  -352.566426265     A.U. after    8 cycles
 SCF Done:  E(RB3LYP) =  -352.566453893     A.U. after    8 cycles
 SCF Done:  E(RB3LYP) =  -352.566456784     A.U. after    7 cycles
 SCF Done:  E(RB3LYP) =  -352.566457528     A.U. after    7 cycles
 SCF Done:  E(RB3LYP) =  -352.566457592     A.U. after    5 cycles
 SCF Done:  E(RB3LYP) =  -352.566457595     A.U. after    6 cycles
 Optimization completed.
    -- Stationary point found.
 Normal termination of Gaussian 16 at Thu Aug  4 06:25:54 2022.

 ----------------------------------------------------------------------
 #N Geom=AllCheck Guess=TCheck SCRF=Check GenChk RB3LYP/6-31G(2df,p) Fr
 eq
 ----------------------------------------------------------------------

 Structure from the checkpoint file:  "CCC1CC1C1CC1C.chk"
 -------------------
 Title Card Required
 -------------------
 Charge =  0 Multiplicity = 1

                         Standard orientation:
 ---------------------------------------------------------------------
 Center     Atomic      Atomic             Coordinates (Angstroms)
 Number     Number       Type             X           Y           Z
 ---------------------------------------------------------------------
      1          6           0       -3.428847   -0.363376    0.351294
      2          6           0       -2.466985   -0.348390   -0.840800
      3          6           0       -1.095263    0.271006   -0.608110
      4          6           0       -0.865137    1.481685    0.264424
      5          6           0       -0.329237    0.128902    0.683672
      6          6           0        1.143269   -0.150410    0.750261
      7          6           0        1.734990   -1.422975    0.182453
      8          6           0        2.069503   -0.088847   -0.439142
      9          6           0        3.455932    0.500007   -0.297254
     10          1           0       -4.383575   -0.811997    0.060322
     11          1           0       -3.641207    0.646162    0.717344
     12          1           0       -3.035539   -0.948868    1.188191
     13          1           0       -2.945716    0.187687   -1.671419
     14          1           0       -2.325584   -1.379035   -1.193434
     15          1           0       -0.486612    0.255003   -1.508944
     16          1           0       -1.697674    1.896973    0.822071
     17          1           0       -0.150796    2.220735   -0.083700
     18          1           0       -0.882073   -0.339389    1.495032
     19          1           0        1.596153    0.183740    1.682614
     20          1           0        1.069196   -2.084105   -0.362604
     21          1           0        2.506808   -1.933386    0.750145
     22          1           0        1.604544    0.101533   -1.402828
     23          1           0        3.880701    0.271603    0.686260
     24          1           0        3.442560    1.590458   -0.406466
     25          1           0        4.139467    0.097266   -1.053368
 ---------------------------------------------------------------------

 SCF Done:  E(RB3LYP) =  -352.566457595     A.U. after    1 cycles

 The electronic state is 1-A.
 Alpha  occ. eigenvalues --  -10.18402 -10.18260 -10.18219 -10.18157 -10.17946
 Alpha  occ. eigenvalues --  -10.17335 -10.17288 -10.17267 -10.17156  -0.86788
 Alpha  occ. eigenvalues --   -0.83354  -0.75022  -0.70523  -0.64554  -0.61932
 Alpha  occ. eigenvalues --   -0.57191  -0.56274  -0.52682  -0.49547  -0.45990
 Alpha  occ. eigenvalues --   -0.45088  -0.43937  -0.41696  -0.39908  -0.39164
 Alpha  occ. eigenvalues --   -0.37661  -0.35859  -0.35566  -0.34870  -0.34044
 Alpha  occ. eigenvalues --   -0.32842  -0.30649  -0.27609  -0.26004  -0.24993
 Alpha virt. eigenvalues --    0.09090   0.09399   0.10674   0.12144   0.12840
 Alpha virt. eigenvalues --    0.14143   0.14417   0.14993   0.15543   0.16773
 Alpha virt. eigenvalues --    0.17236   0.17414   0.17776   0.18276   0.19610

 Mulliken charges:
               1
     1  C   -0.384043
     2  C   -0.201896
     3  C   -0.004597
     4  C   -0.297691
     5  C   -0.021098
     6  C   -0.025186
     7  C   -0.289997
     8  C    0.010148
     9  C   -0.408937
    10  H    0.112598
    11  H    0.118533
    12  H    0.120198
    13  H    0.097062
    14  H    0.096510
    15  H    0.079372
    16  H    0.105709
    17  H    0.105231
    18  H    0.079224
    19  H    0.077482
    20  H    0.106095
    21  H    0.103173
    22  H    0.081002
    23  H    0.112589
    24  H    0.114431
    25  H    0.114088
 Sum of Mulliken charges =   0.00000

 Dipole moment (field-independent basis, Debye):
    X=             -0.0917    Y=             -0.0356    Z=             -0.0936  Tot=              0.1358
 Quadrupole moment (field-independent basis, Debye-Ang):
   XX=            -56.8177   YY=            -58.3130   ZZ=            -57.3246
   XY=              0.5136   XZ=              0.3091   YZ=             -0.0980

  Exact polarizability: 112.019   0.625  87.428  -0.049   0.344  81.281
 Approx polarizability: 132.359  -0.990 131.182   0.473   0.331 127.218

                      1                      2                      3
                      A                      A                      A
 Frequencies --     39.2684                56.5310               105.6587
 Red. masses --      2.4635                 2.2819                 2.3325
 Frc consts  --      0.0022                 0.0043                 0.0153
 IR Inten    --      0.0223                 0.0224                 0.1163

                      4                      5                      6
                      A                      A                      A
 Frequencies --    156.0938               208.1340               219.1595
 Red. masses --      2.5544                 1.7683                 1.2067
 Frc consts  --      0.0367                 0.0451                 0.0341
 IR Inten    --      0.0069                 0.0260                 0.0083

                      7                      8                      9
                      A                      A                      A
 Frequencies --    249.2595               276.0448               333.1960
 Red. masses --      2.0949                 1.6672                 2.3621
 Frc consts  --      0.0767                 0.0749                 0.1545
 IR Inten    --      0.0063                 0.0083                 0.0188

                     10                     11                     12
                      A                      A                      A
 Frequencies --    377.2269               443.0607               496.6173
 Red. masses --      2.2470                 2.4580                 2.5165
 Frc consts  --      0.1884                 0.2843                 0.3657
 IR Inten    --      0.3757                 0.5744                 1.3487

                     13                     14                     15
                      A                      A                      A
 Frequencies --    531.2301               712.7868               764.6222
 Red. masses --      2.3796                 1.9643                 1.8177
 Frc consts  --      0.3957                 0.5880                 0.6261
 IR Inten    --      2.0773                 0.6074                 2.5092

                     16                     17                     18
                      A                      A                      A
 Frequencies --    783.0774               803.5136               873.4213
 Red. masses --      1.5132                 2.1024                 1.3688
 Frc consts  --      0.5467                 0.7997                 0.6152
 IR Inten    --      0.4400                 3.1482                 0.4712

                     19                     20                     21
                      A                      A                      A
 Frequencies --    879.0049               893.8296               908.3457
 Red. masses --      1.4896                 1.7837                 2.0231
 Frc consts  --      0.6781                 0.8396                 0.9835
 IR Inten    --      1.4201                 3.2625                 5.7173

                     22                     23                     24
                      A                      A                      A
 Frequencies --    938.5388               959.5632              1016.0268
 Red. masses --      1.9379                 1.7042                 1.8833
 Frc consts  --      1.0057                 0.9245                 1.1455
 IR Inten    --      2.0855                 3.2699                 3.1516

                     25                     26                     27
                      A                      A                      A
 Frequencies --   1037.5080              1054.9093              1062.6650
 Red. masses --      1.4746                 1.2651                 1.4636
 Frc consts  --      0.9352                 0.8295                 0.9738
 IR Inten    --      5.0034                 8.4369                 0.8990

                     28                     29                     30
                      A                      A                      A
 Frequencies --   1088.4465              1111.8291              1120.4907
 Red. masses --      2.1821                 1.3411                 1.1282
 Frc consts  --      1.5231                 0.9768                 0.8346
 IR Inten    --      2.4909                 5.1958                 1.2624

                     31                     32                     33
                      A                      A                      A
 Frequencies --   1129.0767              1137.8147              1147.1339
 Red. masses --      1.4321                 1.6968                 1.6467
 Frc consts  --      1.0756                 1.2943                 1.2767
 IR Inten    --      0.2643                 1.3797                 1.1612

                     34                     35                     36
                      A                      A                      A
 Frequencies --   1158.9375              1172.8682              1202.1893
 Red. masses --      1.7328                 1.5745                 1.7310
 Frc consts  --      1.3712                 1.2761                 1.4740
 IR Inten    --      2.0694                 4.4363                 1.2866

                     37                     38                     39
                      A                      A                      A
 Frequencies --   1231.6793              1258.3832              1310.3780
 Red. masses --      1.8535                 1.4743                 1.1704
 Frc consts  --      1.6566                 1.3755                 1.1841
 IR Inten    --      1.7911                 0.1580                 0.8884

                     40                     41                     42
                      A                      A                      A
 Frequencies --   1325.3855              1343.6140              1380.5855
 Red. masses --      1.5343                 1.3191                 1.4554
 Frc consts  --      1.5880                 1.4031                 1.6344
 IR Inten    --      1.8266                 8.8885                11.7893

                     43                     44                     45
                      A                      A                      A
 Frequencies --   1410.1095              1414.0305              1425.2476
 Red. masses --      1.2980                 1.2199                 1.4256
 Frc consts  --      1.5206                 1.4371                 1.7063
 IR Inten    --      8.1203                 2.3467                 1.2071

                     46                     47                     48
                      A                      A                      A
 Frequencies --   1446.4952              1486.8291              1492.3510
 Red. masses --      1.4679                 1.1083                 1.1232
 Frc consts  --      1.8096                 1.4435                 1.4739
 IR Inten    --      0.1364                 0.9175                 3.9635

                     49                     50                     51
                      A                      A                      A
 Frequencies --   1493.4704              1498.4285              1505.1170
 Red. masses --      1.2001                 1.2942                 1.2051
 Frc consts  --      1.5771                 1.7120                 1.6085
 IR Inten    --      3.7006                 1.3837                 4.5207

                     52                     53                     54
                      A                      A                      A
 Frequencies --   1506.2300              1510.0094              3007.8041
 Red. masses --      1.1555                 1.1249                 1.0593
 Frc consts  --      1.5446                 1.5112                 5.6465
 IR Inten    --      6.8813                 3.5728                41.1940

                     55                     56                     57
                      A                      A                      A
 Frequencies --   3022.5071              3034.9774              3037.5587
 Red. masses --      1.0352                 1.1018                 1.0355
 Frc consts  --      5.5718                 5.9793                 5.6291
 IR Inten    --     39.5446                23.1939                19.8158

                     58                     59                     60
                      A                      A                      A
 Frequencies --   3084.1350              3090.2003              3103.4407
 Red. masses --      1.1012                 1.0996                 1.1003
 Frc consts  --      6.1712                 6.1868                 6.2439
 IR Inten    --     28.0324                17.2247                41.7375

                     61                     62                     63
                      A                      A                      A
 Frequencies --   3104.5513              3109.0810              3123.2548
 Red. masses --      1.1000                 1.0861                 1.0561
 Frc consts  --      6.2465                 6.1855                 6.0699
 IR Inten    --     26.2745                15.0345                12.5321

                     64                     65                     66
                      A                      A                      A
 Frequencies --   3126.0276              3129.4147              3132.5548
 Red. masses --      1.0738                 1.0691                 1.0841
 Frc consts  --      6.1824                 6.1686                 6.2677
 IR Inten    --     22.4704                14.7750                21.6136

                     67                     68                     69
                      A                      A                      A
 Frequencies --   3141.5535              3208.5235              3211.8469
 Red. masses --      1.0869                 1.1161                 1.1156
 Frc consts  --      6.3200                 6.7694                 6.7808
 IR Inten    --     32.0907                15.8971                16.0793

 - Thermochemistry -
 -------------------
 Temperature   298.150 Kelvin.  Pressure   1.00000 Atm.
 Atom     1 has atomic number  6 and mass  12.00000

 Molecular mass:   124.12520 amu.
 Principal axes and moments of inertia in atomic units:
                           1         2         3
     Eigenvalues --   470.486402330.594522443.27134
           X            0.99997   0.00700  -0.00344
           Y           -0.00700   0.99998  -0.00008
           Z            0.00344   0.00010   0.99999
 This molecule is an asymmetric top.
 Rotational symmetry number  1.
 Warning -- assumption of classical behavior for rotation
           may cause significant error
 Rotational temperatures (Kelvin)      0.18409     0.03716     0.03545
 Rotational constants (GHZ):           3.83591     0.77437     0.73866
 Zero-point vibrational energy     599053.1 (Joules/Mol)
                                  143.17712 (Kcal/Mol)
 Warning -- explicit consideration of  13 degrees of freedom as
           vibrations may cause significant error
 Vibrational temperatures:     56.50    81.34   152.02   224.58   299.46
          (Kelvin)            315.32   358.63   397.17   479.39   542.75
                              637.47   714.52   764.32  1025.54  1100.12
                             1126.67  1156.08  1256.66  1264.69  1286.02
                             1306.91  1350.35  1380.60  1461.84  1492.74
                             1517.78  1528.94  1566.03  1599.67  1612.14
                             1624.49  1637.06  1650.47  1667.45  1687.50
                             1729.68  1772.11  1810.53  1885.34  1906.93
                             1933.16  1986.35  2028.83  2034.47  2050.61
                             2081.18  2139.22  2147.16  2148.77  2155.90
                             2165.53  2167.13  2172.57  4327.56  4348.71
                             4366.66  4370.37  4437.38  4446.11  4465.16
                             4466.76  4473.27  4493.67  4497.66  4502.53
                             4507.05  4519.99  4616.35  4621.13

 Zero-point correction=                           0.228167 (Hartree/Particle)
 Thermal correction to Energy=                    0.238582
 Thermal correction to Enthalpy=                  0.239527
 Thermal correction to Gibbs Free Energy=         0.191963
 Sum of electronic and zero-point Energies=           -352.338290
 Sum of electronic and thermal Energies=              -352.327875
 Sum of electronic and thermal Enthalpies=            -352.326931
 Sum of electronic and thermal Free Energies=         -352.374495

                     E (Thermal)             CV                S
                      KCal/Mol        Cal/Mol-Kelvin    Cal/Mol-Kelvin
 Total                  149.713             38.956            100.106
 Electronic               0.000              0.000              0.000
 Translational            0.889              2.981             40.362
 Rotational               0.889              2.981             29.373
 Vibrational            147.935             32.994             30.371
 Vibration     1          0.594              1.981              5.296
 Vibration     2          0.596              1.975              4.575
 Vibration     3          0.605              1.945              3.347
 Vibration     4          0.620              1.896              2.597
 Vibration     5          0.641              1.828              2.060
 Vibration     6          0.647              1.812              1.966
 Vibration     7          0.662              1.764              1.736
 Vibration     8          0.678              1.718              1.558
 Vibration     9          0.715              1.609              1.245
 Vibration    10          0.748              1.519              1.050
 Vibration    11          0.803              1.376              0.817
 Vibration    12          0.852              1.258              0.667
 Vibration    13          0.886              1.181              0.584

 Optimization completed.
    -- Stationary point found.
 Normal termination of Gaussian 16 at Thu Aug  4 07:02:52 2022.
