 Gaussian 16, Revision A.03,
 Gaussian 16:  ES64L-G16RevA.03 25-Dec-2016

 -----------------------------
 # opt freq b3lyp/6-31g(2df,p)
 -----------------------------

 -------------------
 Title Card Required
 -------------------
 Symbolic Z-matrix:
 Charge =  0 Multiplicity = 1

 SCF Done:  E(RB3LYP) =  -420.580673068     A.U. after   14 cycles
 SCF Done:  E(RB3LYP) =  -420.589839533     A.U. after   11 cycles
 SCF Done:  E(RB3LYP) =  -420.590925268     A.U. after   12 cycles
 SCF Done:  E(RB3LYP) =  -420.591296596     A.U. after   12 cycles
 SCF Done:  E(RB3LYP) =  -420.592561947     A.U. after   12 cycles
 SCF Done:  E(RB3LYP) =  -420.593530165     A.U. after   13 cycles
 SCF Done:  E(RB3LYP) =  -420.593787919     A.U. after   12 cycles
 SCF Done:  E(RB3LYP) =  -420.593841056     A.U. after    9 cycles
 SCF Done:  E(RB3LYP) =  -420.593856456     A.U. after   11 cycles
 SCF Done:  E(RB3LYP) =  -420.593869403     A.U. after    9 cycles
 SCF Done:  E(RB3LYP) =  -420.593875868     A.U. after    9 cycles
 SCF Done:  E(RB3LYP) =  -420.593876225     A.U. after    8 cycles
 SCF Done:  E(RB3LYP) =  -420.593876314     A.U. after    7 cycles
 Optimization completed.
    -- Stationary point found.
 Normal termination of Gaussian 16 at Thu Aug  4 05:39:03 2022.

 ----------------------------------------------------------------------
 #N Geom=AllCheck Guess=TCheck SCRF=Check GenChk RB3LYP/6-31G(2df,p) Fr
 eq
 ----------------------------------------------------------------------

 Structure from the checkpoint file:  "CCC1NCC1NCdO.chk"
 -------------------
 Title Card Required
 -------------------
 Charge =  0 Multiplicity = 1

                         Standard orientation:
 ---------------------------------------------------------------------
 Center     Atomic      Atomic             Coordinates (Angstroms)
 Number     Number       Type             X           Y           Z
 ---------------------------------------------------------------------
      1          6           0       -3.160994   -1.292425   -0.203890
      2          6           0       -1.777166   -1.052580    0.410062
      3          6           0       -0.985992    0.033253   -0.300405
      4          7           0       -1.506101    1.436406   -0.206127
      5          6           0       -0.136446    1.935600    0.116278
      6          6           0        0.374493    0.483201    0.306561
      7          7           0        1.600628    0.071355   -0.316678
      8          6           0        2.641512   -0.549452    0.307806
      9          8           0        3.668852   -0.895156   -0.230147
     10          1           0       -3.706561   -2.066906    0.343191
     11          1           0       -3.076171   -1.614493   -1.247031
     12          1           0       -3.766413   -0.380635   -0.190061
     13          1           0       -1.191225   -1.980714    0.382582
     14          1           0       -1.878856   -0.783057    1.471097
     15          1           0       -0.868396   -0.234540   -1.360909
     16          1           0       -2.109903    1.524590    0.606619
     17          1           0       -0.062096    2.606090    0.977454
     18          1           0        0.315664    2.435744   -0.748939
     19          1           0        0.435674    0.214440    1.366135
     20          1           0        1.726906    0.246257   -1.304971
     21          1           0        2.436433   -0.705434    1.387169
 ---------------------------------------------------------------------

 SCF Done:  E(RB3LYP) =  -420.593876314     A.U. after    1 cycles

 The electronic state is 1-A.
 Alpha  occ. eigenvalues --  -19.10544 -14.36023 -14.31943 -10.27791 -10.23567
 Alpha  occ. eigenvalues --  -10.21997 -10.21742 -10.19527 -10.18353  -1.03226
 Alpha  occ. eigenvalues --   -0.95035  -0.91077  -0.78272  -0.72307  -0.68253
 Alpha  occ. eigenvalues --   -0.63013  -0.61654  -0.58764  -0.52189  -0.49915
 Alpha  occ. eigenvalues --   -0.47373  -0.46254  -0.43568  -0.41426  -0.41048
 Alpha  occ. eigenvalues --   -0.39917  -0.39448  -0.38847  -0.37251  -0.35796
 Alpha  occ. eigenvalues --   -0.34671  -0.32953  -0.25337  -0.25061  -0.23167
 Alpha virt. eigenvalues --    0.02828   0.06344   0.08026   0.08618   0.10660
 Alpha virt. eigenvalues --    0.12860   0.12957   0.13803   0.14573   0.15460
 Alpha virt. eigenvalues --    0.16404   0.17663   0.18216   0.18586   0.19977

 Mulliken charges:
               1
     1  C   -0.378832
     2  C   -0.210645
     3  C    0.068665
     4  N   -0.334136
     5  C   -0.195064
     6  C    0.000449
     7  N   -0.258178
     8  C    0.155865
     9  O   -0.329346
    10  H    0.116762
    11  H    0.122835
    12  H    0.126869
    13  H    0.108506
    14  H    0.089413
    15  H    0.074094
    16  H    0.216366
    17  H    0.109834
    18  H    0.107661
    19  H    0.091958
    20  H    0.249599
    21  H    0.067326
 Sum of Mulliken charges =  -0.00000

 Dipole moment (field-independent basis, Debye):
    X=             -3.2014    Y=              0.7525    Z=              1.4940  Tot=              3.6121
 Quadrupole moment (field-independent basis, Debye-Ang):
   XX=            -72.4504   YY=            -56.0990   ZZ=            -51.8057
   XY=              7.1938   XZ=             -1.0316   YZ=              1.2953

  Exact polarizability:  99.648  -3.319  76.564  -1.739  -0.025  69.678
 Approx polarizability: 130.840 -11.820 106.416  -5.783   0.633 108.809

                      1                      2                      3
                      A                      A                      A
 Frequencies --     48.3248                66.4162                96.5910
 Red. masses --      5.2504                 2.3491                 2.2959
 Frc consts  --      0.0072                 0.0061                 0.0126
 IR Inten    --      2.4478                 5.5301                 0.3240

                      4                      5                      6
                      A                      A                      A
 Frequencies --    144.5329               163.4066               205.3035
 Red. masses --      2.7599                 1.9596                 1.3509
 Frc consts  --      0.0340                 0.0308                 0.0335
 IR Inten    --      1.6732                 0.7126                 2.4922

                      7                      8                      9
                      A                      A                      A
 Frequencies --    255.2752               281.2090               377.5914
 Red. masses --      2.3335                 4.0325                 3.4951
 Frc consts  --      0.0896                 0.1879                 0.2936
 IR Inten    --      4.5136                 0.2000                 1.7499

                     10                     11                     12
                      A                      A                      A
 Frequencies --    416.5423               495.8058               552.7348
 Red. masses --      3.1601                 2.5315                 3.2925
 Frc consts  --      0.3230                 0.3666                 0.5927
 IR Inten    --      4.6364                 1.5675                 6.2600

                     13                     14                     15
                      A                      A                      A
 Frequencies --    630.0652               729.9957               779.9234
 Red. masses --      1.2949                 2.3543                 2.3013
 Frc consts  --      0.3029                 0.7392                 0.8248
 IR Inten    --     93.7852                 4.6521                63.9727

                     16                     17                     18
                      A                      A                      A
 Frequencies --    809.6995               855.8788               937.5298
 Red. masses --      1.2273                 1.6015                 1.5763
 Frc consts  --      0.4741                 0.6912                 0.8163
 IR Inten    --     35.6555                 1.4282                 1.0666

                     19                     20                     21
                      A                      A                      A
 Frequencies --    957.6643               976.0632              1014.1929
 Red. masses --      1.6821                 2.6677                 3.8785
 Frc consts  --      0.9089                 1.4974                 2.3505
 IR Inten    --     10.8992                17.0114                 4.0895

                     22                     23                     24
                      A                      A                      A
 Frequencies --   1044.0158              1048.3393              1089.3393
 Red. masses --      2.3242                 1.6015                 1.6527
 Frc consts  --      1.4926                 1.0370                 1.1555
 IR Inten    --      5.9695                 0.1696                 2.9868

                     25                     26                     27
                      A                      A                      A
 Frequencies --   1114.7920              1129.6623              1186.6744
 Red. masses --      2.1513                 2.4012                 2.1900
 Frc consts  --      1.5752                 1.8054                 1.8170
 IR Inten    --      7.1078                 4.5872                20.3315

                     28                     29                     30
                      A                      A                      A
 Frequencies --   1197.6404              1245.5548              1268.2526
 Red. masses --      1.8963                 1.4771                 1.4893
 Frc consts  --      1.6025                 1.3501                 1.4113
 IR Inten    --     21.2921                28.0224                43.9397

                     31                     32                     33
                      A                      A                      A
 Frequencies --   1278.4888              1292.5035              1298.9984
 Red. masses --      1.6683                 1.2875                 1.4901
 Frc consts  --      1.6066                 1.2673                 1.4814
 IR Inten    --     62.7209                 9.4639                37.6723

                     34                     35                     36
                      A                      A                      A
 Frequencies --   1336.4523              1348.6093              1378.7083
 Red. masses --      1.2882                 1.2918                 1.3242
 Frc consts  --      1.3556                 1.3842                 1.4830
 IR Inten    --      1.8129                 0.9594                11.0982

                     37                     38                     39
                      A                      A                      A
 Frequencies --   1412.7684              1416.0859              1435.0180
 Red. masses --      1.3133                 1.2629                 1.2315
 Frc consts  --      1.5444                 1.4921                 1.4942
 IR Inten    --      6.9681                 6.8068                18.2958

                     40                     41                     42
                      A                      A                      A
 Frequencies --   1481.0169              1498.6825              1499.4612
 Red. masses --      1.0695                 1.0414                 1.7399
 Frc consts  --      1.3822                 1.3781                 2.3048
 IR Inten    --      1.0355                 5.3303                54.2019

                     43                     44                     45
                      A                      A                      A
 Frequencies --   1505.2300              1508.2693              1820.9724
 Red. masses --      1.0731                 1.1385                 7.5605
 Frc consts  --      1.4325                 1.5260                14.7708
 IR Inten    --      3.2921                 9.6862               524.4073

                     46                     47                     48
                      A                      A                      A
 Frequencies --   2921.0012              2989.3859              3005.9275
 Red. masses --      1.0833                 1.0815                 1.0638
 Frc consts  --      5.4460                 5.6945                 5.6632
 IR Inten    --     74.6685                19.4562                33.0461

                     49                     50                     51
                      A                      A                      A
 Frequencies --   3026.0662              3037.2128              3045.7659
 Red. masses --      1.0625                 1.0352                 1.0991
 Frc consts  --      5.7326                 5.6263                 6.0075
 IR Inten    --     54.5122                24.1732                20.8310

                     52                     53                     54
                      A                      A                      A
 Frequencies --   3059.8247              3085.9099              3105.6982
 Red. masses --      1.0862                 1.1038                 1.1017
 Frc consts  --      5.9915                 6.1931                 6.2609
 IR Inten    --     13.6130                38.6188                33.0097

                     55                     56                     57
                      A                      A                      A
 Frequencies --   3109.9347              3503.0436              3590.4791
 Red. masses --      1.1019                 1.0749                 1.0751
 Frc consts  --      6.2789                 7.7714                 8.1663
 IR Inten    --     28.5742                 0.1364                16.9825

 - Thermochemistry -
 -------------------
 Temperature   298.150 Kelvin.  Pressure   1.00000 Atm.
 Atom     1 has atomic number  6 and mass  12.00000

 Molecular mass:   128.09496 amu.
 Principal axes and moments of inertia in atomic units:
                           1         2         3
     Eigenvalues --   627.562492202.805712671.81167
           X            0.99948   0.03227   0.00222
           Y           -0.03228   0.99947   0.00339
           Z           -0.00211  -0.00346   0.99999
 This molecule is an asymmetric top.
 Rotational symmetry number  1.
 Warning -- assumption of classical behavior for rotation
           may cause significant error
 Rotational temperatures (Kelvin)      0.13802     0.03932     0.03242
 Rotational constants (GHZ):           2.87580     0.81929     0.67547
 Zero-point vibrational energy     479167.4 (Joules/Mol)
                                  114.52375 (Kcal/Mol)
 Warning -- explicit consideration of  12 degrees of freedom as
           vibrations may cause significant error
 Vibrational temperatures:     69.53    95.56   138.97   207.95   235.11
          (Kelvin)            295.39   367.28   404.60   543.27   599.31
                              713.35   795.26   906.52  1050.30  1122.14
                             1164.98  1231.42  1348.90  1377.87  1404.34
                             1459.20  1502.11  1508.33  1567.32  1603.94
                             1625.33  1707.36  1723.14  1792.08  1824.73
                             1839.46  1859.62  1868.97  1922.86  1940.35
                             1983.65  2032.66  2037.43  2064.67  2130.85
                             2156.27  2157.39  2165.69  2170.06  2619.97
                             4202.67  4301.06  4324.86  4353.83  4369.87
                             4382.18  4402.41  4439.94  4468.41  4474.50
                             5040.10  5165.90

 Zero-point correction=                           0.182505 (Hartree/Particle)
 Thermal correction to Energy=                    0.192445
 Thermal correction to Enthalpy=                  0.193390
 Thermal correction to Gibbs Free Energy=         0.146369
 Sum of electronic and zero-point Energies=           -420.411371
 Sum of electronic and thermal Energies=              -420.401431
 Sum of electronic and thermal Enthalpies=            -420.400487
 Sum of electronic and thermal Free Energies=         -420.447507

                     E (Thermal)             CV                S
                      KCal/Mol        Cal/Mol-Kelvin    Cal/Mol-Kelvin
 Total                  120.761             35.324             98.963
 Electronic               0.000              0.000              0.000
 Translational            0.889              2.981             40.456
 Rotational               0.889              2.981             29.692
 Vibrational            118.984             29.362             28.815
 Vibration     1          0.595              1.978              4.885
 Vibration     2          0.598              1.970              4.257
 Vibration     3          0.603              1.952              3.522
 Vibration     4          0.616              1.909              2.743
 Vibration     5          0.623              1.887              2.510
 Vibration     6          0.640              1.832              2.085
 Vibration     7          0.666              1.754              1.694
 Vibration     8          0.681              1.708              1.526
 Vibration     9          0.748              1.518              1.049
 Vibration    10          0.780              1.434              0.904
 Vibration    11          0.851              1.259              0.669
 Vibration    12          0.908              1.134              0.539

                           ! Non-Optimized Parameters !
 Normal termination of Gaussian 16 at Thu Aug  4 06:07:08 2022.
