 Gaussian 16, Revision A.03,
 Gaussian 16:  ES64L-G16RevA.03 25-Dec-2016

 -----------------------------
 # opt freq b3lyp/6-31g(2df,p)
 -----------------------------

 -------------------
 Title Card Required
 -------------------
 Symbolic Z-matrix:
 Charge =  0 Multiplicity = 1

 SCF Done:  E(RB3LYP) =  -404.480908427     A.U. after   12 cycles
 SCF Done:  E(RB3LYP) =  -404.489280996     A.U. after   11 cycles
 SCF Done:  E(RB3LYP) =  -404.490294647     A.U. after   10 cycles
 SCF Done:  E(RB3LYP) =  -404.491204772     A.U. after   10 cycles
 SCF Done:  E(RB3LYP) =  -404.492979331     A.U. after   11 cycles
 SCF Done:  E(RB3LYP) =  -404.494836063     A.U. after   11 cycles
 SCF Done:  E(RB3LYP) =  -404.497903686     A.U. after   12 cycles
 SCF Done:  E(RB3LYP) =  -404.500017963     A.U. after   12 cycles
 SCF Done:  E(RB3LYP) =  -404.501052987     A.U. after   12 cycles
 SCF Done:  E(RB3LYP) =  -404.501014236     A.U. after   11 cycles
 SCF Done:  E(RB3LYP) =  -404.501471876     A.U. after    9 cycles
 SCF Done:  E(RB3LYP) =  -404.501500978     A.U. after    9 cycles
 SCF Done:  E(RB3LYP) =  -404.501517860     A.U. after    9 cycles
 SCF Done:  E(RB3LYP) =  -404.501530953     A.U. after    9 cycles
 SCF Done:  E(RB3LYP) =  -404.501532996     A.U. after    7 cycles
 SCF Done:  E(RB3LYP) =  -404.501534301     A.U. after    7 cycles
 SCF Done:  E(RB3LYP) =  -404.501534508     A.U. after    7 cycles
 SCF Done:  E(RB3LYP) =  -404.501534548     A.U. after    6 cycles
 SCF Done:  E(RB3LYP) =  -404.501534565     A.U. after    5 cycles
 Optimization completed.
    -- Stationary point found.
 Normal termination of Gaussian 16 at Thu Aug  4 04:08:49 2022.

 ----------------------------------------------------------------------
 #N Geom=AllCheck Guess=TCheck SCRF=Check GenChk RB3LYP/6-31G(2df,p) Fr
 eq
 ----------------------------------------------------------------------

 Structure from the checkpoint file:  "CCC1NC1C1pCpCO1.chk"
 -------------------
 Title Card Required
 -------------------
 Charge =  0 Multiplicity = 1

                         Standard orientation:
 ---------------------------------------------------------------------
 Center     Atomic      Atomic             Coordinates (Angstroms)
 Number     Number       Type             X           Y           Z
 ---------------------------------------------------------------------
      1          6           0       -3.095277    0.381967   -0.714105
      2          6           0       -2.481915    0.216068    0.679608
      3          6           0       -1.040571   -0.262113    0.740044
      4          7           0       -0.540310   -1.389234   -0.065025
      5          6           0       -0.042638   -0.032685   -0.339194
      6          6           0        1.402694    0.257420   -0.049433
      7          6           0        1.732725    1.720027    0.151859
      8          6           0        2.258155   -0.790038    0.523488
      9          8           0        2.336566   -0.464201   -0.868959
     10          1           0       -4.148021    0.666251   -0.631043
     11          1           0       -3.059942   -0.545787   -1.295949
     12          1           0       -2.589063    1.160673   -1.292286
     13          1           0       -3.093624   -0.487167    1.260546
     14          1           0       -2.540595    1.172581    1.214834
     15          1           0       -0.649248   -0.292400    1.756798
     16          1           0       -1.219397   -1.653944   -0.774162
     17          1           0       -0.404643    0.451628   -1.244858
     18          1           0        1.203276    2.125370    1.020760
     19          1           0        1.436051    2.307308   -0.724660
     20          1           0        2.806930    1.852742    0.300515
     21          1           0        1.824121   -1.761629    0.744421
     22          1           0        3.124750   -0.501270    1.118335
 ---------------------------------------------------------------------

 SCF Done:  E(RB3LYP) =  -404.501534565     A.U. after    1 cycles

 The electronic state is 1-A.
 Alpha  occ. eigenvalues --  -19.13526 -14.32455 -10.23487 -10.21764 -10.21679
 Alpha  occ. eigenvalues --  -10.21292 -10.19436 -10.18650 -10.17933  -1.05618
 Alpha  occ. eigenvalues --   -0.95569  -0.77513  -0.75012  -0.67111  -0.65962
 Alpha  occ. eigenvalues --   -0.64703  -0.58684  -0.54649  -0.50556  -0.48895
 Alpha  occ. eigenvalues --   -0.46078  -0.45355  -0.42697  -0.42326  -0.40021
 Alpha  occ. eigenvalues --   -0.38460  -0.37515  -0.36762  -0.36557  -0.34832
 Alpha  occ. eigenvalues --   -0.32289  -0.31868  -0.28356  -0.26563  -0.23699
 Alpha virt. eigenvalues --    0.07004   0.09563   0.10087   0.11129   0.11939
 Alpha virt. eigenvalues --    0.12946   0.14039   0.14461   0.15208   0.16204
 Alpha virt. eigenvalues --    0.16881   0.16977   0.18910   0.19379   0.19723

 Mulliken charges:
               1
     1  C   -0.393919
     2  C   -0.208421
     3  C    0.008537
     4  N   -0.337577
     5  C   -0.105995
     6  C    0.418307
     7  C   -0.460803
     8  C   -0.222188
     9  O   -0.285562
    10  H    0.121357
    11  H    0.116950
    12  H    0.125669
    13  H    0.109110
    14  H    0.107750
    15  H    0.088480
    16  H    0.229601
    17  H    0.085349
    18  H    0.119974
    19  H    0.121280
    20  H    0.128172
    21  H    0.133964
    22  H    0.099967
 Sum of Mulliken charges =  -0.00000

 Dipole moment (field-independent basis, Debye):
    X=             -2.2414    Y=              1.5457    Z=              1.0453  Tot=              2.9164
 Quadrupole moment (field-independent basis, Debye-Ang):
   XX=            -54.6464   YY=            -56.7313   ZZ=            -55.2463
   XY=              1.8864   XZ=              4.9010   YZ=             -0.1936

  Exact polarizability:  97.070  -1.830  77.454   1.981  -1.587  72.299
 Approx polarizability: 120.533  -3.844 115.917  -2.190  -1.496 114.945

                      1                      2                      3
                      A                      A                      A
 Frequencies --     53.6518                67.6142               122.5723
 Red. masses --      2.1763                 3.3263                 2.9587
 Frc consts  --      0.0037                 0.0090                 0.0262
 IR Inten    --      0.1863                 0.7124                 0.3790

                      4                      5                      6
                      A                      A                      A
 Frequencies --    183.9200               197.7105               231.7319
 Red. masses --      1.4411                 1.2693                 3.0083
 Frc consts  --      0.0287                 0.0292                 0.0952
 IR Inten    --      1.5764                 0.3115                 0.8272

                      7                      8                      9
                      A                      A                      A
 Frequencies --    261.0393               328.2015               343.5662
 Red. masses --      1.5328                 2.9514                 3.1530
 Frc consts  --      0.0615                 0.1873                 0.2193
 IR Inten    --      1.3378                 0.4892                 3.4392

                     10                     11                     12
                      A                      A                      A
 Frequencies --    370.0314               468.4283               530.1401
 Red. masses --      2.3070                 3.3539                 2.7266
 Frc consts  --      0.1861                 0.4336                 0.4515
 IR Inten    --      1.7743                11.5604                 4.2795

                     13                     14                     15
                      A                      A                      A
 Frequencies --    542.1341               713.1071               775.1207
 Red. masses --      3.4035                 2.8534                 1.6496
 Frc consts  --      0.5894                 0.8549                 0.5839
 IR Inten    --     16.9951                 2.7948                 1.4117

                     16                     17                     18
                      A                      A                      A
 Frequencies --    801.6056               825.3645               894.0265
 Red. masses --      2.6179                 3.2465                 3.9214
 Frc consts  --      0.9911                 1.3030                 1.8467
 IR Inten    --      5.3352                34.8888                31.9956

                     19                     20                     21
                      A                      A                      A
 Frequencies --    908.1088               932.0826               951.3952
 Red. masses --      2.5118                 1.4773                 2.2971
 Frc consts  --      1.2204                 0.7562                 1.2250
 IR Inten    --     15.0726                 1.8803                19.7555

                     22                     23                     24
                      A                      A                      A
 Frequencies --    986.3008              1027.8138              1050.0957
 Red. masses --      1.1779                 1.7195                 1.9595
 Frc consts  --      0.6751                 1.0702                 1.2731
 IR Inten    --     10.4209                 6.3909                 5.9406

                     25                     26                     27
                      A                      A                      A
 Frequencies --   1064.0500              1087.7725              1117.1938
 Red. masses --      1.7021                 1.4689                 1.6229
 Frc consts  --      1.1354                 1.0240                 1.1934
 IR Inten    --      1.2341                 8.0965                 3.2417

                     28                     29                     30
                      A                      A                      A
 Frequencies --   1138.9364              1168.7452              1171.0822
 Red. masses --      1.3328                 1.2648                 1.6002
 Frc consts  --      1.0186                 1.0179                 1.2930
 IR Inten    --      3.8897                 2.7052                 1.1147

                     31                     32                     33
                      A                      A                      A
 Frequencies --   1178.5246              1220.2972              1255.7298
 Red. masses --      1.3338                 1.3967                 2.3413
 Frc consts  --      1.0915                 1.2254                 2.1752
 IR Inten    --      0.2785                32.3549                23.7052

                     34                     35                     36
                      A                      A                      A
 Frequencies --   1284.7400              1310.5391              1357.5214
 Red. masses --      1.7939                 1.1692                 1.5289
 Frc consts  --      1.7446                 1.1831                 1.6601
 IR Inten    --      5.0352                 0.3561                 3.0956

                     37                     38                     39
                      A                      A                      A
 Frequencies --   1387.5106              1401.8458              1415.7936
 Red. masses --      1.3397                 1.6265                 1.6768
 Frc consts  --      1.5196                 1.8832                 1.9803
 IR Inten    --     11.9404                 6.2078                 8.5834

                     40                     41                     42
                      A                      A                      A
 Frequencies --   1417.3999              1474.5841              1482.4709
 Red. masses --      1.2931                 1.7298                 1.0506
 Frc consts  --      1.5307                 2.2160                 1.3604
 IR Inten    --      7.4548                 7.8948                 3.8385

                     43                     44                     45
                      A                      A                      A
 Frequencies --   1487.4638              1497.2002              1502.4323
 Red. masses --      1.1519                 1.1706                 1.0787
 Frc consts  --      1.5016                 1.5461                 1.4347
 IR Inten    --      1.7572                 2.1523                 5.9261

                     46                     47                     48
                      A                      A                      A
 Frequencies --   1506.1696              1521.1095              3016.0672
 Red. masses --      1.0595                 1.4729                 1.0605
 Frc consts  --      1.4162                 2.0079                 5.6840
 IR Inten    --      4.8251                 8.5274                30.7683

                     49                     50                     51
                      A                      A                      A
 Frequencies --   3032.2934              3036.6664              3045.6668
 Red. masses --      1.0366                 1.0385                 1.0989
 Frc consts  --      5.6159                 5.6423                 6.0061
 IR Inten    --     17.6122                17.0578                16.7135

                     52                     53                     54
                      A                      A                      A
 Frequencies --   3082.8223              3093.4999              3099.7207
 Red. masses --      1.0535                 1.0998                 1.0988
 Frc consts  --      5.8990                 6.2008                 6.2203
 IR Inten    --     30.5211                17.9076                24.3917

                     55                     56                     57
                      A                      A                      A
 Frequencies --   3104.9407              3110.9864              3122.0298
 Red. masses --      1.0886                 1.0991                 1.0877
 Frc consts  --      6.1837                 6.2671                 6.2467
 IR Inten    --     24.5119                29.7662                29.4710

                     58                     59                     60
                      A                      A                      A
 Frequencies --   3124.4234              3186.7725              3503.5057
 Red. masses --      1.1006                 1.1160                 1.0753
 Frc consts  --      6.3305                 6.6774                 7.7764
 IR Inten    --     19.7322                11.3962                 0.1156

 - Thermochemistry -
 -------------------
 Temperature   298.150 Kelvin.  Pressure   1.00000 Atm.
 Atom     1 has atomic number  6 and mass  12.00000

 Molecular mass:   127.09971 amu.
 Principal axes and moments of inertia in atomic units:
                           1         2         3
     Eigenvalues --   541.194631932.437382111.08745
           X            0.99977   0.00673   0.02030
           Y           -0.00637   0.99982  -0.01810
           Z           -0.02042   0.01796   0.99963
 This molecule is an asymmetric top.
 Rotational symmetry number  1.
 Warning -- assumption of classical behavior for rotation
           may cause significant error
 Rotational temperatures (Kelvin)      0.16004     0.04482     0.04103
 Rotational constants (GHZ):           3.33474     0.93392     0.85489
 Zero-point vibrational energy     505866.5 (Joules/Mol)
                                  120.90499 (Kcal/Mol)
 Warning -- explicit consideration of  13 degrees of freedom as
           vibrations may cause significant error
 Vibrational temperatures:     77.19    97.28   176.35   264.62   284.46
          (Kelvin)            333.41   375.58   472.21   494.32   532.39
                              673.96   762.75   780.01  1026.00  1115.23
                             1153.33  1187.52  1286.30  1306.57  1341.06
                             1368.85  1419.07  1478.79  1510.85  1530.93
                             1565.06  1607.39  1638.68  1681.56  1684.93
                             1695.63  1755.74  1806.72  1848.45  1885.57
                             1953.17  1996.32  2016.94  2037.01  2039.32
                             2121.60  2132.95  2140.13  2154.14  2161.66
                             2167.04  2188.54  4339.45  4362.79  4369.09
                             4382.04  4435.49  4450.86  4459.81  4467.32
                             4476.02  4491.90  4495.35  4585.05  5040.76

 Zero-point correction=                           0.192674 (Hartree/Particle)
 Thermal correction to Energy=                    0.202625
 Thermal correction to Enthalpy=                  0.203569
 Thermal correction to Gibbs Free Energy=         0.157317
 Sum of electronic and zero-point Energies=           -404.308860
 Sum of electronic and thermal Energies=              -404.298910
 Sum of electronic and thermal Enthalpies=            -404.297966
 Sum of electronic and thermal Free Energies=         -404.344218

                     E (Thermal)             CV                S
                      KCal/Mol        Cal/Mol-Kelvin    Cal/Mol-Kelvin
 Total                  127.149             36.710             97.345
 Electronic               0.000              0.000              0.000
 Translational            0.889              2.981             40.433
 Rotational               0.889              2.981             29.181
 Vibrational            125.371             30.749             27.732
 Vibration     1          0.596              1.976              4.678
 Vibration     2          0.598              1.970              4.222
 Vibration     3          0.610              1.930              3.059
 Vibration     4          0.631              1.862              2.288
 Vibration     5          0.637              1.843              2.154
 Vibration     6          0.653              1.792              1.865
 Vibration     7          0.669              1.744              1.655
 Vibration     8          0.711              1.619              1.269
 Vibration     9          0.722              1.588              1.196
 Vibration    10          0.742              1.534              1.080
 Vibration    11          0.826              1.320              0.742
 Vibration    12          0.885              1.183              0.587
 Vibration    13          0.897              1.157              0.561

 Optimization completed.
    -- Stationary point found.
 Normal termination of Gaussian 16 at Thu Aug  4 04:49:59 2022.
