 Gaussian 16, Revision A.03,
 Gaussian 16:  ES64L-G16RevA.03 25-Dec-2016

 -----------------------------
 # opt freq b3lyp/6-31g(2df,p)
 -----------------------------

 -------------------
 Title Card Required
 -------------------
 Symbolic Z-matrix:
 Charge =  0 Multiplicity = 1

 SCF Done:  E(RB3LYP) =  -326.860008653     A.U. after   14 cycles
 SCF Done:  E(RB3LYP) =  -326.869484983     A.U. after   13 cycles
 SCF Done:  E(RB3LYP) =  -326.871013480     A.U. after   12 cycles
 SCF Done:  E(RB3LYP) =  -326.871834361     A.U. after   12 cycles
 SCF Done:  E(RB3LYP) =  -326.872047419     A.U. after   11 cycles
 SCF Done:  E(RB3LYP) =  -326.872070003     A.U. after    9 cycles
 SCF Done:  E(RB3LYP) =  -326.872074224     A.U. after    9 cycles
 SCF Done:  E(RB3LYP) =  -326.872075701     A.U. after    8 cycles
 SCF Done:  E(RB3LYP) =  -326.872076009     A.U. after    7 cycles
 SCF Done:  E(RB3LYP) =  -326.872076096     A.U. after    6 cycles
 Optimization completed.
    -- Stationary point found.
 Normal termination of Gaussian 16 at Sun Jul  3 18:34:32 2022.

 ----------------------------------------------------------------------
 #N Geom=AllCheck Guess=TCheck SCRF=Check GenChk RB3LYP/6-31G(2df,p) Fr
 eq
 ----------------------------------------------------------------------

 Structure from the checkpoint file:  "CCC1CdCpCtNpC1.chk"
 -------------------
 Title Card Required
 -------------------
 Charge =  0 Multiplicity = 1

                         Standard orientation:
 ---------------------------------------------------------------------
 Center     Atomic      Atomic             Coordinates (Angstroms)
 Number     Number       Type             X           Y           Z
 ---------------------------------------------------------------------
      1          6           0       -2.225523   -1.316087   -0.217886
      2          6           0       -2.299488    0.185933    0.074989
      3          6           0       -0.949516    0.899921    0.218385
      4          6           0        0.128142    0.267143    1.082999
      5          6           0        1.026811    0.190862    0.086677
      6          6           0        2.366466   -0.257417    0.006503
      7          7           0        3.463487   -0.618127   -0.091658
      8          6           0        0.096654    0.796139   -0.957351
      9          1           0       -3.230851   -1.738648   -0.303963
     10          1           0       -1.704714   -1.855604    0.579222
     11          1           0       -1.701742   -1.526612   -1.155596
     12          1           0       -2.867169    0.343847    1.001073
     13          1           0       -2.868944    0.690381   -0.716115
     14          1           0       -1.134536    1.946067    0.492218
     15          1           0        0.165985   -0.009226    2.130368
     16          1           0       -0.184430    0.125599   -1.773074
     17          1           0        0.420713    1.752125   -1.378416
 ---------------------------------------------------------------------

 SCF Done:  E(RB3LYP) =  -326.872076096     A.U. after    1 cycles

 The electronic state is 1-A.
 Alpha  occ. eigenvalues --  -14.33029 -10.23107 -10.22031 -10.21705 -10.21328
 Alpha  occ. eigenvalues --  -10.20866 -10.19709 -10.18397  -0.90626  -0.88361
 Alpha  occ. eigenvalues --   -0.77916  -0.70242  -0.67668  -0.63936  -0.55177
 Alpha  occ. eigenvalues --   -0.53003  -0.48541  -0.46319  -0.42007  -0.41342
 Alpha  occ. eigenvalues --   -0.39444  -0.37248  -0.36295  -0.36019  -0.35196
 Alpha  occ. eigenvalues --   -0.33505  -0.32794  -0.32031  -0.26641
 Alpha virt. eigenvalues --   -0.04633   0.02600   0.08070   0.09382   0.10944
 Alpha virt. eigenvalues --    0.13119   0.13426   0.13604   0.14795   0.15962
 Alpha virt. eigenvalues --    0.17528   0.18809   0.19603   0.20202   0.20694

 Mulliken charges:
               1
     1  C   -0.381555
     2  C   -0.199851
     3  C   -0.004132
     4  C   -0.191745
     5  C    0.243367
     6  C    0.191577
     7  N   -0.338564
     8  C   -0.357220
     9  H    0.119670
    10  H    0.122912
    11  H    0.122607
    12  H    0.104448
    13  H    0.106071
    14  H    0.093066
    15  H    0.120064
    16  H    0.125843
    17  H    0.123445
 Sum of Mulliken charges =  -0.00000

 Dipole moment (field-independent basis, Debye):
    X=             -4.3235    Y=              1.2926    Z=              0.3637  Tot=              4.5273
 Quadrupole moment (field-independent basis, Debye-Ang):
   XX=            -63.0117   YY=            -47.8227   ZZ=            -45.2335
   XY=              3.3072   XZ=              0.3961   YZ=             -0.5212

  Exact polarizability: 105.621  -8.396  61.407  -6.347  -1.107  66.212
 Approx polarizability: 160.399 -20.781  90.317 -20.586   0.668 107.603

                      1                      2                      3
                      A                      A                      A
 Frequencies --     73.5082               102.3426               162.8341
 Red. masses --      4.1298                 1.6534                 5.2350
 Frc consts  --      0.0131                 0.0102                 0.0818
 IR Inten    --      1.7444                 0.2692                 4.0613

                      4                      5                      6
                      A                      A                      A
 Frequencies --    221.7956               226.2968               330.8989
 Red. masses --      2.2473                 1.9104                 2.1718
 Frc consts  --      0.0651                 0.0576                 0.1401
 IR Inten    --      1.1811                 0.5376                 0.6413

                      7                      8                      9
                      A                      A                      A
 Frequencies --    342.4855               500.0196               545.2320
 Red. masses --      2.6579                 2.8553                 3.3867
 Frc consts  --      0.1837                 0.4206                 0.5932
 IR Inten    --      0.1715                 2.1400                11.7147

                     10                     11                     12
                      A                      A                      A
 Frequencies --    571.4720               626.9999               746.9614
 Red. masses --      5.8654                 3.9801                 2.5777
 Frc consts  --      1.1286                 0.9219                 0.8474
 IR Inten    --      3.5363                 0.4192                 1.6186

                     13                     14                     15
                      A                      A                      A
 Frequencies --    776.9150               896.3765               923.6817
 Red. masses --      1.2334                 1.5345                 2.2084
 Frc consts  --      0.4386                 0.7265                 1.1101
 IR Inten    --      1.6603                10.9657                 4.7767

                     16                     17                     18
                      A                      A                      A
 Frequencies --    934.3535               954.5800               973.6979
 Red. masses --      2.3687                 2.8577                 1.6521
 Frc consts  --      1.2184                 1.5343                 0.9229
 IR Inten    --      3.7438                 0.1521                 0.6763

                     19                     20                     21
                      A                      A                      A
 Frequencies --   1066.2299              1083.1350              1107.1820
 Red. masses --      1.4855                 1.5041                 1.6703
 Frc consts  --      0.9950                 1.0397                 1.2064
 IR Inten    --      6.2951                 1.0075                 3.0173

                     22                     23                     24
                      A                      A                      A
 Frequencies --   1140.8467              1189.8503              1210.9245
 Red. masses --      1.4446                 2.9994                 1.4312
 Frc consts  --      1.1078                 2.5019                 1.2365
 IR Inten    --      1.2241                 0.4643                 0.7108

                     25                     26                     27
                      A                      A                      A
 Frequencies --   1230.7864              1267.7176              1317.8826
 Red. masses --      1.5086                 1.6817                 1.5895
 Frc consts  --      1.3464                 1.5923                 1.6265
 IR Inten    --      1.3687                 4.5301                 0.4414

                     28                     29                     30
                      A                      A                      A
 Frequencies --   1323.1549              1383.5631              1419.1564
 Red. masses --      1.5611                 1.3559                 1.2725
 Frc consts  --      1.6103                 1.5292                 1.5100
 IR Inten    --      0.9183                10.2722                 5.5034

                     31                     32                     33
                      A                      A                      A
 Frequencies --   1475.0503              1481.8935              1500.4199
 Red. masses --      1.1060                 1.0693                 1.0554
 Frc consts  --      1.4178                 1.3836                 1.3999
 IR Inten    --      2.4454                 0.4423                 6.1767

                     34                     35                     36
                      A                      A                      A
 Frequencies --   1505.3154              1658.2729              2334.6959
 Red. masses --      1.0501                 7.6323                12.6575
 Frc consts  --      1.4020                12.3656                40.6500
 IR Inten    --      5.5547                 3.7401                22.7946

                     37                     38                     39
                      A                      A                      A
 Frequencies --   3015.6499              3032.4508              3040.7390
 Red. masses --      1.0647                 1.0785                 1.0357
 Frc consts  --      5.7047                 5.8434                 5.6421
 IR Inten    --     13.8583                48.3669                15.2608

                     40                     41                     42
                      A                      A                      A
 Frequencies --   3051.1205              3061.1724              3106.7441
 Red. masses --      1.1019                 1.0581                 1.1023
 Frc consts  --      6.0440                 5.8419                 6.2686
 IR Inten    --     15.9496                20.5675                32.3241

                     43                     44                     45
                      A                      A                      A
 Frequencies --   3110.3578              3114.8069              3202.6696
 Red. masses --      1.1014                 1.1056                 1.0994
 Frc consts  --      6.2781                 6.3198                 6.6440
 IR Inten    --     32.7276                16.5278                 7.0643

 - Thermochemistry -
 -------------------
 Temperature   298.150 Kelvin.  Pressure   1.00000 Atm.
 Atom     1 has atomic number  6 and mass  12.00000

 Molecular mass:   107.07350 amu.
 Principal axes and moments of inertia in atomic units:
                           1         2         3
     Eigenvalues --   363.898051623.239661703.83662
           X            0.99981   0.01963   0.00169
           Y           -0.01958   0.99944  -0.02700
           Z           -0.00221   0.02696   0.99963
 This molecule is an asymmetric top.
 Rotational symmetry number  1.
 Rotational temperatures (Kelvin)      0.23802     0.05336     0.05083
 Rotational constants (GHZ):           4.95947     1.11181     1.05922
 Zero-point vibrational energy     372889.4 (Joules/Mol)
                                   89.12271 (Kcal/Mol)
 Warning -- explicit consideration of  10 degrees of freedom as
           vibrations may cause significant error
 Vibrational temperatures:    105.76   147.25   234.28   319.11   325.59
          (Kelvin)            476.09   492.76   719.42   784.47   822.22
                              902.11  1074.71  1117.81  1289.69  1328.97
                             1344.33  1373.43  1400.93  1534.07  1558.39
                             1592.99  1641.42  1711.93  1742.25  1770.83
                             1823.96  1896.14  1903.72  1990.64  2041.85
                             2122.27  2132.11  2158.77  2165.81  2385.88
                             3359.11  4338.85  4363.02  4374.95  4389.88
                             4404.34  4469.91  4475.11  4481.51  4607.93

 Zero-point correction=                           0.142026 (Hartree/Particle)
 Thermal correction to Energy=                    0.150173
 Thermal correction to Enthalpy=                  0.151117
 Thermal correction to Gibbs Free Energy=         0.109132
 Sum of electronic and zero-point Energies=           -326.730050
 Sum of electronic and thermal Energies=              -326.721903
 Sum of electronic and thermal Enthalpies=            -326.720959
 Sum of electronic and thermal Free Energies=         -326.762944

                     E (Thermal)             CV                S
                      KCal/Mol        Cal/Mol-Kelvin    Cal/Mol-Kelvin
 Total                   94.235             29.471             88.365
 Electronic               0.000              0.000              0.000
 Translational            0.889              2.981             39.922
 Rotational               0.889              2.981             28.400
 Vibrational             92.458             23.510             20.043
 Vibration     1          0.599              1.966              4.057
 Vibration     2          0.604              1.947              3.409
 Vibration     3          0.623              1.888              2.517
 Vibration     4          0.648              1.808              1.944
 Vibration     5          0.650              1.801              1.908
 Vibration     6          0.713              1.614              1.256
 Vibration     7          0.722              1.591              1.201
 Vibration     8          0.855              1.250              0.658
 Vibration     9          0.900              1.150              0.554
 Vibration    10          0.928              1.093              0.501

                           ! Non-Optimized Parameters !
 Normal termination of Gaussian 16 at Sun Jul  3 18:56:36 2022.
