 Gaussian 16, Revision A.03,
 Gaussian 16:  ES64L-G16RevA.03 25-Dec-2016

 -----------------------------
 # opt freq b3lyp/6-31g(2df,p)
 -----------------------------

 -------------------
 Title Card Required
 -------------------
 Symbolic Z-matrix:
 Charge =  0 Multiplicity = 1

 SCF Done:  E(RB3LYP) =  -425.640166219     A.U. after   12 cycles
 SCF Done:  E(RB3LYP) =  -425.645129570     A.U. after   10 cycles
 SCF Done:  E(RB3LYP) =  -425.645557244     A.U. after   10 cycles
 SCF Done:  E(RB3LYP) =  -425.645636308     A.U. after   10 cycles
 SCF Done:  E(RB3LYP) =  -425.645646328     A.U. after    9 cycles
 SCF Done:  E(RB3LYP) =  -425.645659310     A.U. after    9 cycles
 SCF Done:  E(RB3LYP) =  -425.645668842     A.U. after    9 cycles
 SCF Done:  E(RB3LYP) =  -425.645670084     A.U. after    9 cycles
 SCF Done:  E(RB3LYP) =  -425.645690434     A.U. after    9 cycles
 SCF Done:  E(RB3LYP) =  -425.645695945     A.U. after   11 cycles
 SCF Done:  E(RB3LYP) =  -425.645723348     A.U. after   11 cycles
 SCF Done:  E(RB3LYP) =  -425.645750181     A.U. after   10 cycles
 SCF Done:  E(RB3LYP) =  -425.645716865     A.U. after   10 cycles
 SCF Done:  E(RB3LYP) =  -425.645754245     A.U. after   10 cycles
 SCF Done:  E(RB3LYP) =  -425.645748599     A.U. after   10 cycles
 SCF Done:  E(RB3LYP) =  -425.645757960     A.U. after   10 cycles
 SCF Done:  E(RB3LYP) =  -425.645757416     A.U. after    9 cycles
 SCF Done:  E(RB3LYP) =  -425.645759409     A.U. after    9 cycles
 SCF Done:  E(RB3LYP) =  -425.645759711     A.U. after    7 cycles
 Optimization completed.
    -- Stationary point found.
 Normal termination of Gaussian 16 at Thu Aug  4 05:24:02 2022.

 ----------------------------------------------------------------------
 #N Geom=AllCheck Guess=TCheck SCRF=Check GenChk RB3LYP/6-31G(2df,p) Fr
 eq
 ----------------------------------------------------------------------

 Structure from the checkpoint file:  "CCC1OCpCpCC1O.chk"
 -------------------
 Title Card Required
 -------------------
 Charge =  0 Multiplicity = 1

                         Standard orientation:
 ---------------------------------------------------------------------
 Center     Atomic      Atomic             Coordinates (Angstroms)
 Number     Number       Type             X           Y           Z
 ---------------------------------------------------------------------
      1          6           0        2.708266   -0.568644    0.573280
      2          6           0        2.065241   -0.082358   -0.728781
      3          6           0        0.543554    0.060795   -0.667446
      4          8           0       -0.027190   -1.197993   -0.313703
      5          6           0       -1.238331   -0.988017    0.413927
      6          6           0       -2.451150   -0.899145   -0.517113
      7          6           0       -0.967914    0.287093    1.231684
      8          6           0       -0.007801    1.110021    0.343588
      9          8           0       -0.602815    2.230690   -0.295213
     10          1           0        3.787406   -0.696321    0.447177
     11          1           0        2.282272   -1.528794    0.874135
     12          1           0        2.558366    0.139712    1.395473
     13          1           0        2.306217   -0.784987   -1.534984
     14          1           0        2.480283    0.888396   -1.026879
     15          1           0        0.188620    0.366118   -1.666155
     16          1           0       -1.359500   -1.864330    1.059709
     17          1           0       -2.396568   -0.030738   -1.183597
     18          1           0       -3.376506   -0.815904    0.062173
     19          1           0       -2.512516   -1.793532   -1.143272
     20          1           0       -0.471867    0.022427    2.169937
     21          1           0       -1.865905    0.860516    1.474289
     22          1           0        0.796682    1.545092    0.940420
     23          1           0       -1.288128    1.912298   -0.891933
 ---------------------------------------------------------------------

 SCF Done:  E(RB3LYP) =  -425.645759711     A.U. after    1 cycles

 The electronic state is 1-A.
 Alpha  occ. eigenvalues --  -19.13595 -19.13279 -10.23224 -10.23021 -10.22460
 Alpha  occ. eigenvalues --  -10.18050 -10.17996 -10.17880 -10.16943  -1.03575
 Alpha  occ. eigenvalues --   -1.01317  -0.78864  -0.77262  -0.72828  -0.68171
 Alpha  occ. eigenvalues --   -0.62190  -0.59157  -0.56198  -0.50424  -0.49250
 Alpha  occ. eigenvalues --   -0.46580  -0.43621  -0.42980  -0.42064  -0.41669
 Alpha  occ. eigenvalues --   -0.40149  -0.38148  -0.37728  -0.36340  -0.34717
 Alpha  occ. eigenvalues --   -0.33948  -0.33232  -0.31874  -0.30916  -0.25895
 Alpha  occ. eigenvalues --   -0.25001
 Alpha virt. eigenvalues --    0.05822   0.08199   0.09825   0.11642   0.13631
 Alpha virt. eigenvalues --    0.14378   0.15072   0.15563   0.16265   0.16626
 Alpha virt. eigenvalues --    0.17449   0.18164   0.19449   0.19571   0.19945

 Mulliken charges:
               1
     1  C   -0.378789
     2  C   -0.213084
     3  C    0.110866
     4  O   -0.276356
     5  C    0.120284
     6  C   -0.395001
     7  C   -0.258886
     8  C    0.099150
     9  O   -0.437524
    10  H    0.111529
    11  H    0.132005
    12  H    0.112702
    13  H    0.104453
    14  H    0.103053
    15  H    0.058380
    16  H    0.080537
    17  H    0.098692
    18  H    0.117695
    19  H    0.128469
    20  H    0.107216
    21  H    0.105826
    22  H    0.092118
    23  H    0.276666
 Sum of Mulliken charges =  -0.00000

 Dipole moment (field-independent basis, Debye):
    X=             -0.8840    Y=             -0.4388    Z=              0.1598  Tot=              0.9998
 Quadrupole moment (field-independent basis, Debye-Ang):
   XX=            -52.1705   YY=            -62.8933   ZZ=            -54.3106
   XY=              0.9710   XZ=              0.5132   YZ=             -1.2703

  Exact polarizability:  91.826   1.538  75.629   0.039  -1.276  75.327
 Approx polarizability: 115.374   0.810 112.825  -0.041  -2.267 110.739

                      1                      2                      3
                      A                      A                      A
 Frequencies --     37.1552                99.4196               126.0079
 Red. masses --      3.4952                 2.1683                 2.8793
 Frc consts  --      0.0028                 0.0126                 0.0269
 IR Inten    --      2.0574                 0.0142                 0.1685

                      4                      5                      6
                      A                      A                      A
 Frequencies --    191.1341               205.7458               224.2779
 Red. masses --      1.3815                 1.3424                 1.8138
 Frc consts  --      0.0297                 0.0335                 0.0538
 IR Inten    --      0.6213                17.6558                 2.8124

                      7                      8                      9
                      A                      A                      A
 Frequencies --    255.7750               280.3304               355.3837
 Red. masses --      1.1167                 1.7142                 2.1073
 Frc consts  --      0.0430                 0.0794                 0.1568
 IR Inten    --     37.6931                22.7962                 0.6184

                     10                     11                     12
                      A                      A                      A
 Frequencies --    387.8927               412.5690               430.9611
 Red. masses --      3.4638                 3.4028                 2.5698
 Frc consts  --      0.3071                 0.3413                 0.2812
 IR Inten    --     10.7883                 5.0895                 5.8796

                     13                     14                     15
                      A                      A                      A
 Frequencies --    589.8965               651.0402               733.0417
 Red. masses --      2.9089                 5.7563                 2.7982
 Frc consts  --      0.5964                 1.4375                 0.8859
 IR Inten    --      1.1443                 4.6467                 3.9265

                     16                     17                     18
                      A                      A                      A
 Frequencies --    774.5043               785.2234               872.0295
 Red. masses --      1.3047                 2.7377                 2.4243
 Frc consts  --      0.4611                 0.9945                 1.0862
 IR Inten    --      2.1464                 2.1073                19.2124

                     19                     20                     21
                      A                      A                      A
 Frequencies --    889.7166               913.2324               933.9767
 Red. masses --      2.6337                 1.9857                 1.9693
 Frc consts  --      1.2284                 0.9757                 1.0121
 IR Inten    --      0.8686                 6.5783                 1.6067

                     22                     23                     24
                      A                      A                      A
 Frequencies --    974.8032              1006.9174              1042.6219
 Red. masses --      1.9542                 2.4518                 1.9848
 Frc consts  --      1.0941                 1.4646                 1.2712
 IR Inten    --      9.2092                39.3744                19.1293

                     25                     26                     27
                      A                      A                      A
 Frequencies --   1076.6057              1090.1052              1103.4874
 Red. masses --      1.5412                 2.2996                 1.9386
 Frc consts  --      1.0525                 1.6100                 1.3908
 IR Inten    --      4.3930                26.7061                15.4163

                     28                     29                     30
                      A                      A                      A
 Frequencies --   1123.5928              1133.7134              1154.6446
 Red. masses --      2.2953                 2.5974                 1.9321
 Frc consts  --      1.7073                 1.9670                 1.5177
 IR Inten    --     85.7966                87.9536                20.6396

                     31                     32                     33
                      A                      A                      A
 Frequencies --   1211.7020              1245.9079              1256.3771
 Red. masses --      1.4181                 1.4127                 1.3830
 Frc consts  --      1.2267                 1.2921                 1.2862
 IR Inten    --     35.0864                 2.0695                 4.5001

                     34                     35                     36
                      A                      A                      A
 Frequencies --   1299.6309              1329.8872              1331.1211
 Red. masses --      1.2226                 1.3398                 1.3592
 Frc consts  --      1.2167                 1.3961                 1.4190
 IR Inten    --      0.5989                 1.8710                 0.7702

                     37                     38                     39
                      A                      A                      A
 Frequencies --   1361.1832              1366.9505              1388.4549
 Red. masses --      1.5792                 1.5351                 1.2682
 Frc consts  --      1.7240                 1.6901                 1.4405
 IR Inten    --      3.5798                 8.0003                 7.1202

                     40                     41                     42
                      A                      A                      A
 Frequencies --   1393.2002              1404.4131              1417.7609
 Red. masses --      1.2396                 1.3011                 1.3337
 Frc consts  --      1.4176                 1.5120                 1.5795
 IR Inten    --      1.1392                15.5379                14.3814

                     43                     44                     45
                      A                      A                      A
 Frequencies --   1441.8242              1477.1524              1479.1617
 Red. masses --      1.1919                 1.0757                 1.0797
 Frc consts  --      1.4599                 1.3829                 1.3918
 IR Inten    --     37.0550                 2.0957                 3.8321

                     46                     47                     48
                      A                      A                      A
 Frequencies --   1487.2503              1495.2538              1499.9210
 Red. masses --      1.0735                 1.0508                 1.0456
 Frc consts  --      1.3990                 1.3842                 1.3860
 IR Inten    --      2.9060                 6.4164                 2.9906

                     49                     50                     51
                      A                      A                      A
 Frequencies --   1509.5862              2950.7008              3030.5570
 Red. masses --      1.0576                 1.0825                 1.0425
 Frc consts  --      1.4200                 5.5533                 5.6410
 IR Inten    --      3.8586                49.3700                11.8614

                     52                     53                     54
                      A                      A                      A
 Frequencies --   3031.9645              3038.9243              3043.2531
 Red. masses --      1.0567                 1.0382                 1.0805
 Frc consts  --      5.7233                 5.6490                 5.8958
 IR Inten    --     34.8940                18.7368                18.0334

                     55                     56                     57
                      A                      A                      A
 Frequencies --   3060.3829              3065.9615              3087.5335
 Red. masses --      1.0667                 1.1008                 1.0860
 Frc consts  --      5.8865                 6.0966                 6.0995
 IR Inten    --     20.1042                12.2536                28.6112

                     58                     59                     60
                      A                      A                      A
 Frequencies --   3097.7022              3101.6024              3111.4397
 Red. masses --      1.0988                 1.0994                 1.1035
 Frc consts  --      6.2121                 6.2315                 6.2942
 IR Inten    --     51.5077                45.7656                16.7340

                     61                     62                     63
                      A                      A                      A
 Frequencies --   3117.3556              3125.8955              3809.8357
 Red. masses --      1.1019                 1.1009                 1.0658
 Frc consts  --      6.3089                 6.3381                 9.1148
 IR Inten    --     23.1139                22.8274                10.2127

 - Thermochemistry -
 -------------------
 Temperature   298.150 Kelvin.  Pressure   1.00000 Atm.
 Atom     1 has atomic number  6 and mass  12.00000

 Molecular mass:   130.09938 amu.
 Principal axes and moments of inertia in atomic units:
                           1         2         3
     Eigenvalues --   812.447191374.630281721.88765
           X            0.99987   0.01079   0.01184
           Y           -0.01071   0.99992  -0.00652
           Z           -0.01191   0.00640   0.99991
 This molecule is an asymmetric top.
 Rotational symmetry number  1.
 Warning -- assumption of classical behavior for rotation
           may cause significant error
 Rotational temperatures (Kelvin)      0.10661     0.06301     0.05030
 Rotational constants (GHZ):           2.22136     1.31289     1.04812
 Zero-point vibrational energy     537874.9 (Joules/Mol)
                                  128.55517 (Kcal/Mol)
 Warning -- explicit consideration of  13 degrees of freedom as
           vibrations may cause significant error
 Vibrational temperatures:     53.46   143.04   181.30   275.00   296.02
          (Kelvin)            322.69   368.00   403.33   511.32   558.09
                              593.59   620.06   848.73   936.70  1054.68
                             1114.34  1129.76  1254.66  1280.10  1313.94
                             1343.78  1402.52  1448.73  1500.10  1549.00
                             1568.42  1587.67  1616.60  1631.16  1661.28
                             1743.37  1792.58  1807.65  1869.88  1913.41
                             1915.19  1958.44  1966.74  1997.68  2004.50
                             2020.64  2039.84  2074.46  2125.29  2128.18
                             2139.82  2151.34  2158.05  2171.96  4245.40
                             4360.30  4362.32  4372.33  4378.56  4403.21
                             4411.23  4442.27  4456.90  4462.51  4476.67
                             4485.18  4497.47  5481.50

 Zero-point correction=                           0.204866 (Hartree/Particle)
 Thermal correction to Energy=                    0.215002
 Thermal correction to Enthalpy=                  0.215946
 Thermal correction to Gibbs Free Energy=         0.169424
 Sum of electronic and zero-point Energies=           -425.440894
 Sum of electronic and thermal Energies=              -425.430758
 Sum of electronic and thermal Enthalpies=            -425.429813
 Sum of electronic and thermal Free Energies=         -425.476336

                     E (Thermal)             CV                S
                      KCal/Mol        Cal/Mol-Kelvin    Cal/Mol-Kelvin
 Total                  134.916             37.686             97.914
 Electronic               0.000              0.000              0.000
 Translational            0.889              2.981             40.502
 Rotational               0.889              2.981             29.043
 Vibrational            133.138             31.725             28.369
 Vibration     1          0.594              1.982              5.405
 Vibration     2          0.604              1.950              3.466
 Vibration     3          0.611              1.927              3.006
 Vibration     4          0.634              1.852              2.217
 Vibration     5          0.640              1.832              2.081
 Vibration     6          0.649              1.804              1.924
 Vibration     7          0.666              1.753              1.690
 Vibration     8          0.680              1.710              1.532
 Vibration     9          0.731              1.564              1.142
 Vibration    10          0.756              1.496              1.008
 Vibration    11          0.776              1.443              0.918
 Vibration    12          0.792              1.403              0.856
 Vibration    13          0.947              1.053              0.467

 Optimization completed.
    -- Stationary point found.
 Normal termination of Gaussian 16 at Thu Aug  4 06:03:47 2022.
