 Gaussian 16, Revision A.03,
 Gaussian 16:  ES64L-G16RevA.03 25-Dec-2016

 -----------------------------
 # opt freq b3lyp/6-31g(2df,p)
 -----------------------------

 -------------------
 Title Card Required
 -------------------
 Symbolic Z-matrix:
 Charge =  0 Multiplicity = 1

 SCF Done:  E(RB3LYP) =  -460.163843593     A.U. after   16 cycles
 SCF Done:  E(RB3LYP) =  -460.186891994     A.U. after   14 cycles
 SCF Done:  E(RB3LYP) =  -460.194571391     A.U. after   13 cycles
 SCF Done:  E(RB3LYP) =  -460.196969962     A.U. after   13 cycles
 SCF Done:  E(RB3LYP) =  -460.199457862     A.U. after   13 cycles
 SCF Done:  E(RB3LYP) =  -460.200726670     A.U. after   13 cycles
 SCF Done:  E(RB3LYP) =  -460.201098426     A.U. after   14 cycles
 SCF Done:  E(RB3LYP) =  -460.201626469     A.U. after   12 cycles
 SCF Done:  E(RB3LYP) =  -460.201696414     A.U. after   11 cycles
 SCF Done:  E(RB3LYP) =  -460.201711643     A.U. after   10 cycles
 SCF Done:  E(RB3LYP) =  -460.201717717     A.U. after   10 cycles
 SCF Done:  E(RB3LYP) =  -460.201720394     A.U. after    9 cycles
 SCF Done:  E(RB3LYP) =  -460.201720809     A.U. after    8 cycles
 Optimization completed.
    -- Stationary point found.
 Normal termination of Gaussian 16 at Thu Aug  4 14:23:22 2022.

 ----------------------------------------------------------------------
 #N Geom=AllCheck Guess=TCheck SCRF=Check GenChk RB3LYP/6-31G(2df,p) Fr
 eq
 ----------------------------------------------------------------------

 Structure from the checkpoint file:  "CCC1pCOOpCC1dO.chk"
 -------------------
 Title Card Required
 -------------------
 Charge =  0 Multiplicity = 1

                         Standard orientation:
 ---------------------------------------------------------------------
 Center     Atomic      Atomic             Coordinates (Angstroms)
 Number     Number       Type             X           Y           Z
 ---------------------------------------------------------------------
      1          6           0        2.891083   -0.753675   -0.110787
      2          6           0        1.457985   -1.278800   -0.243463
      3          6           0        0.348909   -0.282601    0.091069
      4          6           0       -1.035717   -0.848873   -0.171015
      5          8           0       -1.982397    0.180485    0.074920
      6          8           0       -3.290272   -0.410049   -0.054209
      7          6           0        0.492458    0.679420    1.330326
      8          6           0        0.581008    1.172160   -0.056677
      9          8           0        0.788327    2.095219   -0.787523
     10          1           0        3.601662   -1.527740   -0.413757
     11          1           0        3.132777   -0.477453    0.920054
     12          1           0        3.058091    0.122145   -0.744978
     13          1           0        1.331975   -2.162795    0.397020
     14          1           0        1.299366   -1.620896   -1.274232
     15          1           0       -1.236671   -1.701955    0.492167
     16          1           0       -1.110769   -1.193105   -1.213077
     17          1           0       -3.588720   -0.003734   -0.881137
     18          1           0        1.394094    0.630565    1.934930
     19          1           0       -0.421428    0.883936    1.880798
 ---------------------------------------------------------------------

 SCF Done:  E(RB3LYP) =  -460.201720809     A.U. after    1 cycles

 The electronic state is 1-A.
 Alpha  occ. eigenvalues --  -19.20323 -19.19930 -19.14711 -10.27808 -10.24583
 Alpha  occ. eigenvalues --  -10.21490 -10.20369 -10.19516 -10.18609  -1.12720
 Alpha  occ. eigenvalues --   -1.05089  -0.92652  -0.86532  -0.76969  -0.70866
 Alpha  occ. eigenvalues --   -0.63489  -0.59094  -0.54056  -0.51584  -0.49700
 Alpha  occ. eigenvalues --   -0.48360  -0.46189  -0.46007  -0.43710  -0.41568
 Alpha  occ. eigenvalues --   -0.40990  -0.39856  -0.37243  -0.37131  -0.36153
 Alpha  occ. eigenvalues --   -0.35218  -0.30722  -0.30102  -0.27192  -0.22834
 Alpha virt. eigenvalues --   -0.02848   0.02481   0.07338   0.08910   0.10182
 Alpha virt. eigenvalues --    0.11379   0.13744   0.14677   0.15350   0.15846
 Alpha virt. eigenvalues --    0.17334   0.18614   0.18986   0.21163   0.21433

 Mulliken charges:
               1
     1  C   -0.413586
     2  C   -0.243208
     3  C    0.110509
     4  C   -0.064678
     5  O   -0.200243
     6  O   -0.311254
     7  C   -0.445094
     8  C    0.432641
     9  O   -0.298560
    10  H    0.122170
    11  H    0.123772
    12  H    0.143113
    13  H    0.108205
    14  H    0.112754
    15  H    0.112902
    16  H    0.100610
    17  H    0.316509
    18  H    0.134938
    19  H    0.158500
 Sum of Mulliken charges =   0.00000

 Dipole moment (field-independent basis, Debye):
    X=              0.2068    Y=             -2.6276    Z=             -0.0854  Tot=              2.6372
 Quadrupole moment (field-independent basis, Debye-Ang):
   XX=            -50.0425   YY=            -58.5116   ZZ=            -51.4935
   XY=             -3.5842   XZ=              6.4246   YZ=              3.0979

  Exact polarizability:  86.172   0.846  73.091   1.516   0.369  67.257
 Approx polarizability: 108.003   5.434 113.010   0.424  -5.653 107.061

                      1                      2                      3
                      A                      A                      A
 Frequencies --     61.1553                78.7377                88.0893
 Red. masses --      2.3272                 4.6703                 4.4191
 Frc consts  --      0.0051                 0.0171                 0.0202
 IR Inten    --      0.8760                 6.3005                 6.8338

                      4                      5                      6
                      A                      A                      A
 Frequencies --    127.6396               142.1039               233.9872
 Red. masses --      3.0052                 3.7784                 1.2280
 Frc consts  --      0.0288                 0.0450                 0.0396
 IR Inten    --      0.0522                 2.2754                81.1322

                      7                      8                      9
                      A                      A                      A
 Frequencies --    239.4593               255.8835               292.1577
 Red. masses --      1.4465                 2.3914                 2.4088
 Frc consts  --      0.0489                 0.0923                 0.1211
 IR Inten    --     17.5868                 2.7927                 0.8126

                     10                     11                     12
                      A                      A                      A
 Frequencies --    342.0139               381.3392               462.8678
 Red. masses --      4.4174                 4.4053                 1.9381
 Frc consts  --      0.3044                 0.3774                 0.2446
 IR Inten    --      2.4083                 0.6127                 2.6954

                     13                     14                     15
                      A                      A                      A
 Frequencies --    492.0917               567.0423               708.4324
 Red. masses --      2.6977                 3.3265                 2.8596
 Frc consts  --      0.3849                 0.6302                 0.8456
 IR Inten    --      0.5621                 4.8783                 1.2370

                     16                     17                     18
                      A                      A                      A
 Frequencies --    750.9716               788.6943               859.5797
 Red. masses --      3.7441                 1.3631                 1.4533
 Frc consts  --      1.2441                 0.4996                 0.6327
 IR Inten    --     13.4008                 5.5938                 5.6255

                     19                     20                     21
                      A                      A                      A
 Frequencies --    920.6220               955.4081               972.5005
 Red. masses --      1.9681                 5.5348                 3.6494
 Frc consts  --      0.9828                 2.9767                 2.0335
 IR Inten    --      3.2110                22.1853                64.4986

                     22                     23                     24
                      A                      A                      A
 Frequencies --   1003.6930              1040.2182              1052.1735
 Red. masses --      2.1212                 1.6618                 2.0582
 Frc consts  --      1.2590                 1.0595                 1.3425
 IR Inten    --      7.8072                 8.1430                 1.9943

                     25                     26                     27
                      A                      A                      A
 Frequencies --   1074.0613              1085.4604              1154.6242
 Red. masses --      1.7009                 4.5654                 1.8638
 Frc consts  --      1.1561                 3.1692                 1.4639
 IR Inten    --      3.7333                14.4440                 2.9937

                     28                     29                     30
                      A                      A                      A
 Frequencies --   1202.5298              1240.4924              1260.3129
 Red. masses --      2.1799                 1.1649                 4.6264
 Frc consts  --      1.8573                 1.0561                 4.3296
 IR Inten    --      1.3197                 3.0085                22.0921

                     31                     32                     33
                      A                      A                      A
 Frequencies --   1312.9438              1371.5210              1386.5156
 Red. masses --      1.1667                 1.5436                 1.2194
 Frc consts  --      1.1849                 1.7108                 1.3812
 IR Inten    --      1.6032                16.9049                30.2304

                     34                     35                     36
                      A                      A                      A
 Frequencies --   1399.6707              1417.0970              1419.0577
 Red. masses --      1.1609                 1.2918                 1.1909
 Frc consts  --      1.3400                 1.5284                 1.4130
 IR Inten    --     26.4405                 1.8852                 9.5941

                     37                     38                     39
                      A                      A                      A
 Frequencies --   1484.5162              1502.8625              1508.2241
 Red. masses --      1.0743                 1.0427                 1.0540
 Frc consts  --      1.3949                 1.3875                 1.4125
 IR Inten    --      0.3480                 8.3186                 3.8722

                     40                     41                     42
                      A                      A                      A
 Frequencies --   1517.4397              1940.7078              2987.8633
 Red. masses --      1.0811                12.5292                 1.0548
 Frc consts  --      1.4668                27.8031                 5.5479
 IR Inten    --      5.0924               284.5522                31.4035

                     43                     44                     45
                      A                      A                      A
 Frequencies --   3008.7989              3030.5628              3043.0011
 Red. masses --      1.0606                 1.1065                 1.0396
 Frc consts  --      5.6572                 5.9874                 5.6719
 IR Inten    --     44.0148                25.2139                16.1647

                     46                     47                     48
                      A                      A                      A
 Frequencies --   3045.0860              3110.4031              3116.0187
 Red. masses --      1.0959                 1.0952                 1.0743
 Frc consts  --      5.9872                 6.2428                 6.1460
 IR Inten    --     28.9190                24.4096                12.6049

                     49                     50                     51
                      A                      A                      A
 Frequencies --   3117.3465              3207.2399              3746.2364
 Red. masses --      1.0854                 1.1140                 1.0686
 Frc consts  --      6.2146                 6.7514                 8.8364
 IR Inten    --     15.2217                 1.1471                36.9099

 - Thermochemistry -
 -------------------
 Temperature   298.150 Kelvin.  Pressure   1.00000 Atm.
 Atom     1 has atomic number  6 and mass  12.00000

 Molecular mass:   130.06299 amu.
 Principal axes and moments of inertia in atomic units:
                           1         2         3
     Eigenvalues --   686.483881757.990652118.70596
           X            0.99959  -0.02718   0.00861
           Y            0.02675   0.99859   0.04580
           Z           -0.00984  -0.04555   0.99891
 This molecule is an asymmetric top.
 Rotational symmetry number  1.
 Warning -- assumption of classical behavior for rotation
           may cause significant error
 Rotational temperatures (Kelvin)      0.12617     0.04927     0.04088
 Rotational constants (GHZ):           2.62896     1.02659     0.85181
 Zero-point vibrational energy     403784.3 (Joules/Mol)
                                   96.50675 (Kcal/Mol)
 Warning -- explicit consideration of  14 degrees of freedom as
           vibrations may cause significant error
 Vibrational temperatures:     87.99   113.29   126.74   183.64   204.46
          (Kelvin)            336.66   344.53   368.16   420.35   492.08
                              548.66   665.96   708.01   815.85  1019.28
                             1080.48  1134.76  1236.74  1324.57  1374.62
                             1399.21  1444.09  1496.64  1513.84  1545.33
                             1561.74  1661.25  1730.17  1784.79  1813.31
                             1889.03  1973.31  1994.89  2013.81  2038.89
                             2041.71  2135.89  2162.28  2170.00  2183.26
                             2792.25  4298.87  4328.99  4360.30  4378.20
                             4381.20  4475.18  4483.26  4485.17  4614.50
                             5390.00

 Zero-point correction=                           0.153793 (Hartree/Particle)
 Thermal correction to Energy=                    0.164358
 Thermal correction to Enthalpy=                  0.165302
 Thermal correction to Gibbs Free Energy=         0.117506
 Sum of electronic and zero-point Energies=           -460.047928
 Sum of electronic and thermal Energies=              -460.037363
 Sum of electronic and thermal Enthalpies=            -460.036419
 Sum of electronic and thermal Free Energies=         -460.084215

                     E (Thermal)             CV                S
                      KCal/Mol        Cal/Mol-Kelvin    Cal/Mol-Kelvin
 Total                  103.136             36.993            100.596
 Electronic               0.000              0.000              0.000
 Translational            0.889              2.981             40.502
 Rotational               0.889              2.981             29.326
 Vibrational            101.359             31.032             30.768
 Vibration     1          0.597              1.973              4.420
 Vibration     2          0.600              1.963              3.922
 Vibration     3          0.601              1.958              3.702
 Vibration     4          0.611              1.926              2.981
 Vibration     5          0.616              1.911              2.775
 Vibration     6          0.654              1.789              1.848
 Vibration     7          0.657              1.780              1.807
 Vibration     8          0.666              1.753              1.690
 Vibration     9          0.688              1.688              1.461
 Vibration    10          0.721              1.591              1.203
 Vibration    11          0.751              1.510              1.034
 Vibration    12          0.821              1.332              0.758
 Vibration    13          0.848              1.268              0.678
 Vibration    14          0.923              1.103              0.510

                           ! Non-Optimized Parameters !
 Normal termination of Gaussian 16 at Thu Aug  4 14:53:25 2022.
