 Gaussian 16, Revision A.03,
 Gaussian 16:  ES64L-G16RevA.03 25-Dec-2016

 -----------------------------
 # opt freq b3lyp/6-31g(2df,p)
 -----------------------------

 -------------------
 Title Card Required
 -------------------
 Symbolic Z-matrix:
 Charge =  0 Multiplicity = 1

 SCF Done:  E(RB3LYP) =  -440.334546297     A.U. after   13 cycles
 SCF Done:  E(RB3LYP) =  -440.345332557     A.U. after   13 cycles
 SCF Done:  E(RB3LYP) =  -440.346667590     A.U. after   12 cycles
 SCF Done:  E(RB3LYP) =  -440.347953529     A.U. after   12 cycles
 SCF Done:  E(RB3LYP) =  -440.349659882     A.U. after   14 cycles
 SCF Done:  E(RB3LYP) =  -440.350691949     A.U. after   11 cycles
 SCF Done:  E(RB3LYP) =  -440.351676045     A.U. after   11 cycles
 SCF Done:  E(RB3LYP) =  -440.351914699     A.U. after   10 cycles
 SCF Done:  E(RB3LYP) =  -440.352015743     A.U. after   10 cycles
 SCF Done:  E(RB3LYP) =  -440.352034400     A.U. after   10 cycles
 SCF Done:  E(RB3LYP) =  -440.352037554     A.U. after    8 cycles
 SCF Done:  E(RB3LYP) =  -440.352038407     A.U. after    7 cycles
 SCF Done:  E(RB3LYP) =  -440.352038541     A.U. after    7 cycles
 Optimization completed.
    -- Stationary point found.
 Normal termination of Gaussian 16 at Thu Aug  4 04:35:16 2022.

 ----------------------------------------------------------------------
 #N Geom=AllCheck Guess=TCheck SCRF=Check GenChk RB3LYP/6-31G(2df,p) Fr
 eq
 ----------------------------------------------------------------------

 Structure from the checkpoint file:  "CCC1OC1CN1CO1.chk"
 -------------------
 Title Card Required
 -------------------
 Charge =  0 Multiplicity = 1

                         Standard orientation:
 ---------------------------------------------------------------------
 Center     Atomic      Atomic             Coordinates (Angstroms)
 Number     Number       Type             X           Y           Z
 ---------------------------------------------------------------------
      1          6           0       -2.808758    0.805815   -0.720527
      2          6           0       -2.102448    0.723624    0.634831
      3          6           0       -0.955436   -0.261448    0.710971
      4          8           0       -1.149733   -1.555597    0.125638
      5          6           0       -0.146594   -0.698605   -0.436522
      6          6           0        1.279402   -1.180351   -0.255555
      7          7           0        2.366037   -0.190826   -0.149347
      8          6           0        2.072950    1.152078   -0.540207
      9          8           0        2.006093    0.877040    0.830191
     10          1           0       -3.705846    1.426782   -0.648577
     11          1           0       -3.108361   -0.189894   -1.058673
     12          1           0       -2.166535    1.247874   -1.489211
     13          1           0       -2.828699    0.440506    1.407862
     14          1           0       -1.717119    1.707875    0.930578
     15          1           0       -0.462907   -0.298029    1.683072
     16          1           0       -0.406544   -0.329193   -1.427750
     17          1           0        1.573352   -1.819427   -1.097844
     18          1           0        1.324820   -1.799129    0.645599
     19          1           0        1.124847    1.388019   -1.024232
     20          1           0        2.925164    1.742171   -0.879976
 ---------------------------------------------------------------------

 SCF Done:  E(RB3LYP) =  -440.352038541     A.U. after    1 cycles

 The electronic state is 1-A.
 Alpha  occ. eigenvalues --  -19.17842 -19.15207 -14.39076 -10.26950 -10.23985
 Alpha  occ. eigenvalues --  -10.23747 -10.22206 -10.19125 -10.17932  -1.11781
 Alpha  occ. eigenvalues --   -1.07123  -0.83087  -0.77882  -0.71039  -0.67401
 Alpha  occ. eigenvalues --   -0.66467  -0.60529  -0.57375  -0.52254  -0.50669
 Alpha  occ. eigenvalues --   -0.48368  -0.45977  -0.44964  -0.44273  -0.40591
 Alpha  occ. eigenvalues --   -0.39622  -0.39456  -0.36616  -0.36041  -0.34888
 Alpha  occ. eigenvalues --   -0.34185  -0.31731  -0.29448  -0.27099  -0.24760
 Alpha virt. eigenvalues --    0.05035   0.07085   0.07596   0.09044   0.11250
 Alpha virt. eigenvalues --    0.11591   0.12236   0.13880   0.15115   0.15565
 Alpha virt. eigenvalues --    0.16160   0.17417   0.18658   0.19933   0.20545

 Mulliken charges:
               1
     1  C   -0.387931
     2  C   -0.219566
     3  C    0.089066
     4  O   -0.264414
     5  C    0.023439
     6  C   -0.158597
     7  N   -0.065644
     8  C   -0.081489
     9  O   -0.225659
    10  H    0.115450
    11  H    0.139129
    12  H    0.111596
    13  H    0.113291
    14  H    0.110103
    15  H    0.101189
    16  H    0.095622
    17  H    0.122821
    18  H    0.137153
    19  H    0.118855
    20  H    0.125584
 Sum of Mulliken charges =  -0.00000

 Dipole moment (field-independent basis, Debye):
    X=             -0.6960    Y=              1.5446    Z=             -1.6028  Tot=              2.3322
 Quadrupole moment (field-independent basis, Debye-Ang):
   XX=            -58.4284   YY=            -54.6071   ZZ=            -52.4089
   XY=             -2.2100   XZ=             -4.3536   YZ=             -1.4855

  Exact polarizability:  82.646  -1.580  74.138  -3.099  -0.304  68.433
 Approx polarizability: 104.476   0.382 114.583  -5.708   3.745 110.435

                      1                      2                      3
                      A                      A                      A
 Frequencies --     53.5702                74.2930                91.0433
 Red. masses --      3.4694                 3.1901                 3.7351
 Frc consts  --      0.0059                 0.0104                 0.0182
 IR Inten    --      1.4744                 0.6877                 4.9452

                      4                      5                      6
                      A                      A                      A
 Frequencies --    151.1711               215.0264               229.1166
 Red. masses --      2.1718                 2.8233                 1.3949
 Frc consts  --      0.0292                 0.0769                 0.0431
 IR Inten    --      3.4759                 1.5081                 1.5362

                      7                      8                      9
                      A                      A                      A
 Frequencies --    285.1541               329.6529               383.2176
 Red. masses --      2.8192                 2.8179                 2.2806
 Frc consts  --      0.1351                 0.1804                 0.1973
 IR Inten    --      1.3670                 1.1001                 9.8540

                     10                     11                     12
                      A                      A                      A
 Frequencies --    438.8159               529.0652               604.3443
 Red. masses --      4.2813                 3.0234                 3.4027
 Frc consts  --      0.4857                 0.4986                 0.7322
 IR Inten    --     10.5784                 2.6085                 2.2298

                     13                     14                     15
                      A                      A                      A
 Frequencies --    724.4782               767.7281               809.4101
 Red. masses --      7.2684                 1.5235                 3.6794
 Frc consts  --      2.2477                 0.5291                 1.4203
 IR Inten    --     16.1351                 3.4969                10.3989

                     16                     17                     18
                      A                      A                      A
 Frequencies --    834.0467               837.5299               926.2226
 Red. masses --      3.4327                 2.5891                 2.6370
 Frc consts  --      1.4069                 1.0700                 1.3329
 IR Inten    --      4.1303                24.9700                22.2659

                     19                     20                     21
                      A                      A                      A
 Frequencies --    961.3715              1009.2392              1023.4119
 Red. masses --      2.3350                 1.7994                 2.1032
 Frc consts  --      1.2715                 1.0799                 1.2979
 IR Inten    --     10.0320                 9.2213                 5.1305

                     22                     23                     24
                      A                      A                      A
 Frequencies --   1060.1993              1085.4539              1101.0910
 Red. masses --      1.5828                 1.4914                 2.5706
 Frc consts  --      1.0482                 1.0353                 1.8363
 IR Inten    --      1.5056                 5.2305                 6.1447

                     25                     26                     27
                      A                      A                      A
 Frequencies --   1116.6197              1157.2831              1164.5769
 Red. masses --      1.7609                 1.6032                 1.4346
 Frc consts  --      1.2936                 1.2651                 1.1464
 IR Inten    --      8.0648                 1.8493                 0.8962

                     28                     29                     30
                      A                      A                      A
 Frequencies --   1180.5815              1223.1216              1262.3231
 Red. masses --      1.6162                 1.2617                 1.2817
 Frc consts  --      1.3272                 1.1121                 1.2033
 IR Inten    --      2.4246                 1.6090                 4.2628

                     31                     32                     33
                      A                      A                      A
 Frequencies --   1281.8435              1307.0813              1318.3991
 Red. masses --      1.3864                 1.3805                 2.5880
 Frc consts  --      1.3422                 1.3896                 2.6504
 IR Inten    --      2.0311                 9.0931                11.4877

                     34                     35                     36
                      A                      A                      A
 Frequencies --   1355.9278              1367.1784              1388.7010
 Red. masses --      1.2863                 1.5589                 1.2814
 Frc consts  --      1.3934                 1.7168                 1.4559
 IR Inten    --      5.8401                 4.1704                 2.0252

                     37                     38                     39
                      A                      A                      A
 Frequencies --   1412.8310              1472.9480              1478.2911
 Red. masses --      1.2967                 1.1033                 1.1259
 Frc consts  --      1.5250                 1.4103                 1.4497
 IR Inten    --      7.1878                 4.0591                 4.7093

                     40                     41                     42
                      A                      A                      A
 Frequencies --   1496.3954              1502.8589              1511.9172
 Red. masses --      1.3999                 1.4882                 1.0682
 Frc consts  --      1.8469                 1.9804                 1.4387
 IR Inten    --     11.6615                 2.6335                 6.4565

                     43                     44                     45
                      A                      A                      A
 Frequencies --   1538.1131              3021.9141              3038.5091
 Red. masses --      1.1592                 1.0604                 1.0638
 Frc consts  --      1.6158                 5.7053                 5.7867
 IR Inten    --      0.1591                23.1575                20.6967

                     46                     47                     48
                      A                      A                      A
 Frequencies --   3040.9818              3053.4370              3070.8396
 Red. masses --      1.0385                 1.0983                 1.0486
 Frc consts  --      5.6585                 6.0332                 5.8262
 IR Inten    --     17.9572                14.5234                27.9561

                     49                     50                     51
                      A                      A                      A
 Frequencies --   3091.9998              3105.1921              3108.7551
 Red. masses --      1.0964                 1.0989                 1.0892
 Frc consts  --      6.1761                 6.2430                 6.2019
 IR Inten    --      2.2991                24.1232                16.7799

                     52                     53                     54
                      A                      A                      A
 Frequencies --   3119.3243              3123.0145              3156.4531
 Red. masses --      1.0893                 1.1015                 1.1194
 Frc consts  --      6.2445                 6.3299                 6.5710
 IR Inten    --     43.2595                20.3993                31.8482

 - Thermochemistry -
 -------------------
 Temperature   298.150 Kelvin.  Pressure   1.00000 Atm.
 Atom     1 has atomic number  6 and mass  12.00000

 Molecular mass:   129.07898 amu.
 Principal axes and moments of inertia in atomic units:
                           1         2         3
     Eigenvalues --   619.107891778.355912039.11531
           X            0.99952  -0.03093  -0.00231
           Y            0.03084   0.99892  -0.03490
           Z            0.00339   0.03481   0.99939
 This molecule is an asymmetric top.
 Rotational symmetry number  1.
 Warning -- assumption of classical behavior for rotation
           may cause significant error
 Rotational temperatures (Kelvin)      0.13990     0.04870     0.04248
 Rotational constants (GHZ):           2.91507     1.01484     0.88506
 Zero-point vibrational energy     442570.8 (Joules/Mol)
                                  105.77697 (Kcal/Mol)
 Warning -- explicit consideration of  12 degrees of freedom as
           vibrations may cause significant error
 Vibrational temperatures:     77.08   106.89   130.99   217.50   309.38
          (Kelvin)            329.65   410.27   474.30   551.36   631.36
                              761.21   869.52  1042.36  1104.59  1164.56
                             1200.01  1205.02  1332.63  1383.20  1452.07
                             1472.46  1525.39  1561.73  1584.22  1606.57
                             1665.07  1675.57  1698.59  1759.80  1816.20
                             1844.29  1880.60  1896.88  1950.88  1967.06
                             1998.03  2032.75  2119.24  2126.93  2152.98
                             2162.28  2175.31  2213.00  4347.86  4371.74
                             4375.29  4393.21  4418.25  4448.70  4467.68
                             4472.81  4488.01  4493.32  4541.43

 Zero-point correction=                           0.168566 (Hartree/Particle)
 Thermal correction to Energy=                    0.178092
 Thermal correction to Enthalpy=                  0.179037
 Thermal correction to Gibbs Free Energy=         0.133228
 Sum of electronic and zero-point Energies=           -440.183472
 Sum of electronic and thermal Energies=              -440.173946
 Sum of electronic and thermal Enthalpies=            -440.173002
 Sum of electronic and thermal Free Energies=         -440.218811

                     E (Thermal)             CV                S
                      KCal/Mol        Cal/Mol-Kelvin    Cal/Mol-Kelvin
 Total                  111.755             34.248             96.413
 Electronic               0.000              0.000              0.000
 Translational            0.889              2.981             40.479
 Rotational               0.889              2.981             29.197
 Vibrational            109.977             28.287             26.737
 Vibration     1          0.596              1.976              4.681
 Vibration     2          0.599              1.966              4.036
 Vibration     3          0.602              1.956              3.638
 Vibration     4          0.619              1.901              2.657
 Vibration     5          0.645              1.818              2.001
 Vibration     6          0.652              1.797              1.886
 Vibration     7          0.683              1.701              1.503
 Vibration     8          0.712              1.616              1.262
 Vibration     9          0.752              1.506              1.026
 Vibration    10          0.799              1.386              0.830
 Vibration    11          0.884              1.186              0.589
 Vibration    12          0.963              1.023              0.442

 Optimization completed.
    -- Stationary point found.
 Normal termination of Gaussian 16 at Thu Aug  4 05:04:38 2022.
