 Gaussian 16, Revision A.03,
 Gaussian 16:  ES64L-G16RevA.03 25-Dec-2016

 -----------------------------
 # opt freq b3lyp/6-31g(2df,p)
 -----------------------------

 -------------------
 Title Card Required
 -------------------
 Symbolic Z-matrix:
 Charge =  0 Multiplicity = 1

 SCF Done:  E(RB3LYP) =  -423.027510700     A.U. after   14 cycles
 SCF Done:  E(RB3LYP) =  -423.072225843     A.U. after   13 cycles
 SCF Done:  E(RB3LYP) =  -423.073548248     A.U. after   16 cycles
 SCF Done:  E(RB3LYP) =  -423.110012098     A.U. after   13 cycles
 SCF Done:  E(RB3LYP) =  -423.125170318     A.U. after   12 cycles
 SCF Done:  E(RB3LYP) =  -423.137308106     A.U. after   12 cycles
 SCF Done:  E(RB3LYP) =  -423.139430798     A.U. after   13 cycles
 SCF Done:  E(RB3LYP) =  -423.141031016     A.U. after   13 cycles
 SCF Done:  E(RB3LYP) =  -423.142087484     A.U. after   12 cycles
 SCF Done:  E(RB3LYP) =  -423.142646681     A.U. after   13 cycles
 SCF Done:  E(RB3LYP) =  -423.143807546     A.U. after   11 cycles
 SCF Done:  E(RB3LYP) =  -423.143808628     A.U. after   11 cycles
 SCF Done:  E(RB3LYP) =  -423.143809744     A.U. after   11 cycles
 SCF Done:  E(RB3LYP) =  -423.143811518     A.U. after   10 cycles
 SCF Done:  E(RB3LYP) =  -423.143811706     A.U. after    8 cycles
 SCF Done:  E(RB3LYP) =  -423.143811782     A.U. after    7 cycles
 SCF Done:  E(RB3LYP) =  -423.143811812     A.U. after    7 cycles
 SCF Done:  E(RB3LYP) =  -423.143811847     A.U. after    7 cycles
 SCF Done:  E(RB3LYP) =  -423.143811859     A.U. after    6 cycles
 Optimization completed.
    -- Stationary point found.
 Normal termination of Gaussian 16 at Thu Aug  4 04:12:24 2022.

 ----------------------------------------------------------------------
 #N Geom=AllCheck Guess=TCheck SCRF=Check GenChk RB3LYP/6-31G(2df,p) Fr
 eq
 ----------------------------------------------------------------------

 Structure from the checkpoint file:  "CCC1dCC1pOpCCdO.chk"
 -------------------
 Title Card Required
 -------------------
 Charge =  0 Multiplicity = 1

                         Standard orientation:
 ---------------------------------------------------------------------
 Center     Atomic      Atomic             Coordinates (Angstroms)
 Number     Number       Type             X           Y           Z
 ---------------------------------------------------------------------
      1          6           0        2.821156    1.431396    0.147129
      2          6           0        2.670085   -0.099237    0.107992
      3          6           0        1.309601   -0.529434   -0.293884
      4          6           0        0.517153   -1.202342   -1.086992
      5          6           0       -0.141007   -0.506110    0.050647
      6          8           0       -0.633775   -1.239820    1.163009
      7          6           0       -1.047149    0.702942   -0.097896
      8          6           0       -2.486519    0.296298   -0.358440
      9          8           0       -3.449940    0.851264    0.100058
     10          1           0        3.829147    1.706787    0.469552
     11          1           0        2.106415    1.878285    0.844006
     12          1           0        2.648899    1.868561   -0.840771
     13          1           0        2.879546   -0.503561    1.106944
     14          1           0        3.409908   -0.537734   -0.571469
     15          1           0        0.412790   -1.865413   -1.932248
     16          1           0       -0.142461   -2.066448    1.213816
     17          1           0       -0.708891    1.303576   -0.951069
     18          1           0       -1.028703    1.334492    0.795553
     19          1           0       -2.596849   -0.571173   -1.050178
 ---------------------------------------------------------------------

 SCF Done:  E(RB3LYP) =  -423.143811859     A.U. after    1 cycles

 The electronic state is 1-A.
 Alpha  occ. eigenvalues --  -19.13777 -19.12809 -10.26160 -10.25848 -10.21108
 Alpha  occ. eigenvalues --  -10.21063 -10.20110 -10.19155 -10.18674  -1.03603
 Alpha  occ. eigenvalues --   -1.02484  -0.87910  -0.78466  -0.75275  -0.65430
 Alpha  occ. eigenvalues --   -0.59834  -0.56194  -0.55345  -0.50305  -0.47834
 Alpha  occ. eigenvalues --   -0.46841  -0.43283  -0.42729  -0.42602  -0.40527
 Alpha  occ. eigenvalues --   -0.39480  -0.38510  -0.37074  -0.35906  -0.34693
 Alpha  occ. eigenvalues --   -0.32185  -0.27224  -0.25043  -0.23422
 Alpha virt. eigenvalues --   -0.00924   0.00193   0.07402   0.09858   0.11681
 Alpha virt. eigenvalues --    0.12706   0.13189   0.13972   0.14965   0.15725
 Alpha virt. eigenvalues --    0.16137   0.18217   0.19056   0.19929   0.20933

 Mulliken charges:
               1
     1  C   -0.376915
     2  C   -0.312263
     3  C    0.185903
     4  C   -0.334065
     5  C    0.342564
     6  O   -0.467774
     7  C   -0.317577
     8  C    0.179201
     9  O   -0.246163
    10  H    0.121946
    11  H    0.134303
    12  H    0.126535
    13  H    0.125328
    14  H    0.117793
    15  H    0.138984
    16  H    0.269989
    17  H    0.119237
    18  H    0.124457
    19  H    0.068518
 Sum of Mulliken charges =  -0.00000

 Dipole moment (field-independent basis, Debye):
    X=              4.5736    Y=             -1.3128    Z=             -1.4562  Tot=              4.9761
 Quadrupole moment (field-independent basis, Debye-Ang):
   XX=            -63.1368   YY=            -49.9647   ZZ=            -52.4193
   XY=              2.9742   XZ=              3.9250   YZ=              0.0937

  Exact polarizability:  96.132   1.703  72.806  -0.226   7.265  67.861
 Approx polarizability: 128.094   1.400 106.614  -1.791  14.124 110.336

                      1                      2                      3
                      A                      A                      A
 Frequencies --     49.9708                63.5761                70.6040
 Red. masses --      2.3068                 4.3985                 4.6081
 Frc consts  --      0.0034                 0.0105                 0.0135
 IR Inten    --      0.8325                 0.9093                 0.9736

                      4                      5                      6
                      A                      A                      A
 Frequencies --    101.2611               172.8295               197.1794
 Red. masses --      2.6458                 1.9176                 3.0491
 Frc consts  --      0.0160                 0.0337                 0.0698
 IR Inten    --      4.4442                 0.2214                 0.7202

                      7                      8                      9
                      A                      A                      A
 Frequencies --    253.1143               314.9736               333.2427
 Red. masses --      1.4367                 1.4025                 2.1848
 Frc consts  --      0.0542                 0.0820                 0.1429
 IR Inten    --      0.5414                31.2494                27.0481

                     10                     11                     12
                      A                      A                      A
 Frequencies --    363.3697               429.8333               486.6364
 Red. masses --      2.4257                 2.9062                 3.1136
 Frc consts  --      0.1887                 0.3164                 0.4344
 IR Inten    --     21.3097                 9.7483                 8.9448

                     13                     14                     15
                      A                      A                      A
 Frequencies --    530.6666               576.9516               736.6140
 Red. masses --      2.8590                 3.1130                 2.5786
 Frc consts  --      0.4744                 0.6105                 0.8243
 IR Inten    --      0.9368                23.0450                 1.4109

                     16                     17                     18
                      A                      A                      A
 Frequencies --    745.9748               785.7104               799.1225
 Red. masses --      2.0554                 1.7863                 1.5200
 Frc consts  --      0.6739                 0.6497                 0.5719
 IR Inten    --      9.8574                13.0243                 2.1108

                     19                     20                     21
                      A                      A                      A
 Frequencies --    817.4549               930.0539               978.6410
 Red. masses --      1.8154                 2.1043                 1.9092
 Frc consts  --      0.7148                 1.0724                 1.0773
 IR Inten    --     24.6480                22.1839                30.1275

                     22                     23                     24
                      A                      A                      A
 Frequencies --   1017.9336              1038.7784              1068.0546
 Red. masses --      1.5834                 2.9716                 3.2132
 Frc consts  --      0.9667                 1.8892                 2.1596
 IR Inten    --     26.6298                11.9250                24.4961

                     25                     26                     27
                      A                      A                      A
 Frequencies --   1086.3775              1116.8785              1149.9656
 Red. masses --      1.7203                 2.2810                 2.1294
 Frc consts  --      1.1963                 1.6764                 1.6591
 IR Inten    --      8.5583                95.4551                 5.7774

                     28                     29                     30
                      A                      A                      A
 Frequencies --   1203.1015              1255.3785              1287.3961
 Red. masses --      1.7924                 1.5865                 1.4064
 Frc consts  --      1.5286                 1.4731                 1.3734
 IR Inten    --      1.9295                20.9410                23.5176

                     31                     32                     33
                      A                      A                      A
 Frequencies --   1296.7450              1341.1106              1390.2531
 Red. masses --      1.2734                 1.4296                 2.3891
 Frc consts  --      1.2616                 1.5149                 2.7206
 IR Inten    --      1.9531                20.7135               104.5035

                     34                     35                     36
                      A                      A                      A
 Frequencies --   1409.4144              1427.5250              1443.6084
 Red. masses --      1.2145                 1.1903                 1.1043
 Frc consts  --      1.4215                 1.4292                 1.3560
 IR Inten    --      1.1646                 4.0169                 5.3119

                     37                     38                     39
                      A                      A                      A
 Frequencies --   1475.4713              1497.3365              1505.3283
 Red. masses --      1.0756                 1.0396                 1.0570
 Frc consts  --      1.3796                 1.3732                 1.4113
 IR Inten    --      2.8578                 5.9565                 3.6172

                     40                     41                     42
                      A                      A                      A
 Frequencies --   1811.2105              1839.5157              2860.3283
 Red. masses --      7.8524                10.3105                 1.0821
 Frc consts  --     15.1772                20.5558                 5.2160
 IR Inten    --     23.9831               184.9821                99.8969

                     43                     44                     45
                      A                      A                      A
 Frequencies --   3022.1487              3039.1949              3043.7010
 Red. masses --      1.0603                 1.0597                 1.0347
 Frc consts  --      5.7055                 5.7672                 5.6478
 IR Inten    --     20.1638                 4.0936                24.1628

                     46                     47                     48
                      A                      A                      A
 Frequencies --   3062.5986              3096.8153              3116.9835
 Red. masses --      1.1003                 1.1012                 1.1026
 Frc consts  --      6.0805                 6.2224                 6.3116
 IR Inten    --     14.0987                 9.7068                24.6201

                     49                     50                     51
                      A                      A                      A
 Frequencies --   3120.0369              3242.6092              3813.5520
 Red. masses --      1.1024                 1.1137                 1.0657
 Frc consts  --      6.3229                 6.8994                 9.1315
 IR Inten    --     29.6199                 0.2676                16.4598

 - Thermochemistry -
 -------------------
 Temperature   298.150 Kelvin.  Pressure   1.00000 Atm.
 Atom     1 has atomic number  6 and mass  12.00000

 Molecular mass:   126.06808 amu.
 Principal axes and moments of inertia in atomic units:
                           1         2         3
     Eigenvalues --   584.603502120.174552346.88440
           X            0.99964   0.02523   0.00903
           Y           -0.02552   0.99911   0.03360
           Z           -0.00817  -0.03382   0.99939
 This molecule is an asymmetric top.
 Rotational symmetry number  1.
 Warning -- assumption of classical behavior for rotation
           may cause significant error
 Rotational temperatures (Kelvin)      0.14816     0.04085     0.03691
 Rotational constants (GHZ):           3.08712     0.85122     0.76899
 Zero-point vibrational energy     405636.5 (Joules/Mol)
                                   96.94946 (Kcal/Mol)
 Warning -- explicit consideration of  14 degrees of freedom as
           vibrations may cause significant error
 Vibrational temperatures:     71.90    91.47   101.58   145.69   248.66
          (Kelvin)            283.70   364.18   453.18   479.46   522.81
                              618.43   700.16   763.51   830.10  1059.82
                             1073.29  1130.46  1149.76  1176.14  1338.14
                             1408.05  1464.58  1494.57  1536.69  1563.05
                             1606.94  1654.54  1730.99  1806.21  1852.28
                             1865.73  1929.56  2000.26  2027.83  2053.89
                             2077.03  2122.87  2154.33  2165.83  2605.93
                             2646.65  4115.37  4348.20  4372.72  4379.21
                             4406.40  4455.63  4484.64  4489.04  4665.39
                             5486.85

 Zero-point correction=                           0.154499 (Hartree/Particle)
 Thermal correction to Energy=                    0.164959
 Thermal correction to Enthalpy=                  0.165903
 Thermal correction to Gibbs Free Energy=         0.117809
 Sum of electronic and zero-point Energies=           -422.989313
 Sum of electronic and thermal Energies=              -422.978853
 Sum of electronic and thermal Enthalpies=            -422.977909
 Sum of electronic and thermal Free Energies=         -423.026003

                     E (Thermal)             CV                S
                      KCal/Mol        Cal/Mol-Kelvin    Cal/Mol-Kelvin
 Total                  103.513             36.656            101.223
 Electronic               0.000              0.000              0.000
 Translational            0.889              2.981             40.409
 Rotational               0.889              2.981             29.455
 Vibrational            101.736             30.694             31.360
 Vibration     1          0.595              1.978              4.819
 Vibration     2          0.597              1.972              4.343
 Vibration     3          0.598              1.968              4.136
 Vibration     4          0.604              1.948              3.430
 Vibration     5          0.626              1.876              2.404
 Vibration     6          0.637              1.844              2.159
 Vibration     7          0.664              1.758              1.709
 Vibration     8          0.702              1.645              1.336
 Vibration     9          0.715              1.609              1.244
 Vibration    10          0.737              1.548              1.108
 Vibration    11          0.791              1.405              0.859
 Vibration    12          0.843              1.280              0.692
 Vibration    13          0.886              1.182              0.586
 Vibration    14          0.933              1.081              0.491

 Optimization completed.
    -- Stationary point found.
 Normal termination of Gaussian 16 at Thu Aug  4 04:40:15 2022.
