 Gaussian 16, Revision A.03,
 Gaussian 16:  ES64L-G16RevA.03 25-Dec-2016

 -----------------------------
 # opt freq b3lyp/6-31g(2df,p)
 -----------------------------

 -------------------
 Title Card Required
 -------------------
 Symbolic Z-matrix:
 Charge =  0 Multiplicity = 1

 SCF Done:  E(RB3LYP) =  -382.297113271     A.U. after   13 cycles
 SCF Done:  E(RB3LYP) =  -382.299804711     A.U. after   12 cycles
 SCF Done:  E(RB3LYP) =  -382.300850909     A.U. after   11 cycles
 SCF Done:  E(RB3LYP) =  -382.301356418     A.U. after   11 cycles
 SCF Done:  E(RB3LYP) =  -382.301619071     A.U. after   11 cycles
 SCF Done:  E(RB3LYP) =  -382.301740748     A.U. after   10 cycles
 SCF Done:  E(RB3LYP) =  -382.301840814     A.U. after   10 cycles
 SCF Done:  E(RB3LYP) =  -382.301877974     A.U. after    9 cycles
 SCF Done:  E(RB3LYP) =  -382.301897759     A.U. after   10 cycles
 SCF Done:  E(RB3LYP) =  -382.301903734     A.U. after    9 cycles
 SCF Done:  E(RB3LYP) =  -382.301905765     A.U. after    7 cycles
 SCF Done:  E(RB3LYP) =  -382.301907299     A.U. after    7 cycles
 SCF Done:  E(RB3LYP) =  -382.301908264     A.U. after    7 cycles
 SCF Done:  E(RB3LYP) =  -382.301908503     A.U. after    7 cycles
 Optimization completed.
    -- Stationary point found.
 Normal termination of Gaussian 16 at Thu Aug  4 04:06:25 2022.

 ----------------------------------------------------------------------
 #N Geom=AllCheck Guess=TCheck SCRF=Check GenChk RB3LYP/6-31G(2df,p) Fr
 eq
 ----------------------------------------------------------------------

 Structure from the checkpoint file:  "CCc1ncncc1C.chk"
 -------------------
 Title Card Required
 -------------------
 Charge =  0 Multiplicity = 1

                         Standard orientation:
 ---------------------------------------------------------------------
 Center     Atomic      Atomic             Coordinates (Angstroms)
 Number     Number       Type             X           Y           Z
 ---------------------------------------------------------------------
      1          6           0       -2.628187   -0.649706    0.686101
      2          6           0       -1.820406   -0.334545   -0.586465
      3          6           0       -0.339610   -0.270279   -0.304620
      4          7           0        0.300996   -1.446915   -0.275750
      5          6           0        1.603147   -1.426955   -0.001576
      6          7           0        2.352359   -0.353837    0.247339
      7          6           0        1.701482    0.810298    0.216123
      8          6           0        0.339984    0.933769   -0.053364
      9          6           0       -0.327196    2.284354   -0.070206
     10          1           0       -3.695057   -0.726532    0.457149
     11          1           0       -2.500490    0.128782    1.445474
     12          1           0       -2.298323   -1.598809    1.117394
     13          1           0       -2.169838    0.604482   -1.025822
     14          1           0       -1.985108   -1.128418   -1.320755
     15          1           0        2.109186   -2.389638    0.018228
     16          1           0        2.295742    1.701291    0.416700
     17          1           0        0.386502    3.068928    0.196182
     18          1           0       -1.160473    2.337673    0.638275
     19          1           0       -0.730905    2.525884   -1.059909
 ---------------------------------------------------------------------

 SCF Done:  E(RB3LYP) =  -382.301908503     A.U. after    1 cycles

 The electronic state is 1-A.
 Alpha  occ. eigenvalues --  -14.32564 -14.32508 -10.24115 -10.23437 -10.22717
 Alpha  occ. eigenvalues --  -10.20569 -10.19701 -10.19125 -10.18366  -0.97819
 Alpha  occ. eigenvalues --   -0.88414  -0.81747  -0.76745  -0.70916  -0.66219
 Alpha  occ. eigenvalues --   -0.62762  -0.59937  -0.52443  -0.50388  -0.44801
 Alpha  occ. eigenvalues --   -0.44132  -0.43159  -0.42563  -0.40652  -0.40089
 Alpha  occ. eigenvalues --   -0.39963  -0.37912  -0.35585  -0.34958  -0.30061
 Alpha  occ. eigenvalues --   -0.29255  -0.26451  -0.24282
 Alpha virt. eigenvalues --   -0.03208  -0.01737   0.08016   0.11118   0.11986
 Alpha virt. eigenvalues --    0.13410   0.14111   0.15169   0.15766   0.17174
 Alpha virt. eigenvalues --    0.17670   0.18244   0.20034   0.22090   0.22521

 Mulliken charges:
               1
     1  C   -0.376182
     2  C   -0.269493
     3  C    0.249743
     4  N   -0.296564
     5  C    0.059282
     6  N   -0.257551
     7  C   -0.038023
     8  C    0.210334
     9  C   -0.512406
    10  H    0.118463
    11  H    0.118235
    12  H    0.139297
    13  H    0.101065
    14  H    0.123839
    15  H    0.114398
    16  H    0.107259
    17  H    0.129078
    18  H    0.139055
    19  H    0.140171
 Sum of Mulliken charges =   0.00000

 Dipole moment (field-independent basis, Debye):
    X=             -1.8960    Y=              2.0404    Z=             -0.0979  Tot=              2.7870
 Quadrupole moment (field-independent basis, Debye-Ang):
   XX=            -56.6382   YY=            -51.7698   ZZ=            -54.0384
   XY=              0.3024   XZ=             -0.2683   YZ=             -0.3189

  Exact polarizability: 102.289  -2.811  95.205   4.994   1.797  54.615
 Approx polarizability: 155.992  -3.738 152.406  12.933   5.069  86.121

                      1                      2                      3
                      A                      A                      A
 Frequencies --     49.2263               116.5582               150.6862
 Red. masses --      2.5458                 3.7543                 1.0567
 Frc consts  --      0.0036                 0.0301                 0.0141
 IR Inten    --      0.4120                 0.0355                 0.1110

                      4                      5                      6
                      A                      A                      A
 Frequencies --    205.8944               221.4387               306.3570
 Red. masses --      2.6895                 1.1100                 2.3252
 Frc consts  --      0.0672                 0.0321                 0.1286
 IR Inten    --      0.1299                 0.1542                 0.3190

                      7                      8                      9
                      A                      A                      A
 Frequencies --    327.1339               418.9129               440.4409
 Red. masses --      3.7210                 2.5519                 3.1819
 Frc consts  --      0.2346                 0.2638                 0.3637
 IR Inten    --      0.3362                 0.1890                 0.3878

                     10                     11                     12
                      A                      A                      A
 Frequencies --    522.2248               594.0350               621.7611
 Red. masses --      4.6623                 3.7782                 4.3209
 Frc consts  --      0.7491                 0.7855                 0.9842
 IR Inten    --      4.6372                 4.4514                 5.8469

                     13                     14                     15
                      A                      A                      A
 Frequencies --    738.9079               795.5393               818.9554
 Red. masses --      4.1389                 1.2112                 3.8220
 Frc consts  --      1.3314                 0.4516                 1.5103
 IR Inten    --      8.1844                 1.2867                 9.4026

                     16                     17                     18
                      A                      A                      A
 Frequencies --    866.9213               945.2239               980.5345
 Red. masses --      4.9403                 1.4115                 2.3373
 Frc consts  --      2.1876                 0.7430                 1.3240
 IR Inten    --     10.0433                 1.0033                 0.5479

                     19                     20                     21
                      A                      A                      A
 Frequencies --   1008.6104              1018.3499              1054.1278
 Red. masses --      1.4426                 1.5513                 1.7503
 Frc consts  --      0.8646                 0.9478                 1.1459
 IR Inten    --      0.0441                13.2455                 1.8588

                     22                     23                     24
                      A                      A                      A
 Frequencies --   1062.6932              1085.0316              1162.0742
 Red. masses --      1.5653                 1.9044                 3.5574
 Frc consts  --      1.0415                 1.3210                 2.8304
 IR Inten    --      4.4289                 5.9649                 0.9957

                     25                     26                     27
                      A                      A                      A
 Frequencies --   1202.1527              1239.5930              1281.0324
 Red. masses --      3.1144                 4.1783                 1.8711
 Frc consts  --      2.6518                 3.7828                 1.8091
 IR Inten    --      8.6938                 1.9595                 1.6279

                     28                     29                     30
                      A                      A                      A
 Frequencies --   1291.2855              1329.4446              1352.3250
 Red. masses --      1.5959                 1.6811                 1.6134
 Frc consts  --      1.5678                 1.7506                 1.7384
 IR Inten    --      0.7879                10.0474                 1.2860

                     31                     32                     33
                      A                      A                      A
 Frequencies --   1402.7966              1418.3460              1436.2717
 Red. masses --      1.2291                 1.2444                 2.0956
 Frc consts  --      1.4250                 1.4750                 2.5470
 IR Inten    --      5.5463                 1.2924                44.5658

                     34                     35                     36
                      A                      A                      A
 Frequencies --   1463.0605              1483.2014              1486.8585
 Red. masses --      1.5753                 1.0891                 1.1125
 Frc consts  --      1.9868                 1.4117                 1.4491
 IR Inten    --     20.5514                 6.3118                 4.0452

                     37                     38                     39
                      A                      A                      A
 Frequencies --   1496.6264              1502.7942              1509.8565
 Red. masses --      1.0556                 1.1952                 1.1315
 Frc consts  --      1.3931                 1.5904                 1.5198
 IR Inten    --      6.8763                10.8767                 7.0791

                     40                     41                     42
                      A                      A                      A
 Frequencies --   1590.3197              1619.3988              3031.8269
 Red. masses --      6.7676                 5.7635                 1.0370
 Frc consts  --     10.0845                 8.9052                 5.6163
 IR Inten    --     78.4006                71.2612                16.4140

                     43                     44                     45
                      A                      A                      A
 Frequencies --   3038.2540              3055.0625              3087.4337
 Red. masses --      1.0349                 1.0587                 1.0994
 Frc consts  --      5.6286                 5.8217                 6.1746
 IR Inten    --     24.6643                18.5000                12.2592

                     46                     47                     48
                      A                      A                      A
 Frequencies --   3094.0124              3110.0360              3111.7564
 Red. masses --      1.1019                 1.1011                 1.1018
 Frc consts  --      6.2149                 6.2752                 6.2859
 IR Inten    --      3.0531                41.4254                 6.4816

                     49                     50                     51
                      A                      A                      A
 Frequencies --   3123.8371              3133.1996              3159.6549
 Red. masses --      1.1030                 1.0898                 1.0904
 Frc consts  --      6.3418                 6.3033                 6.4136
 IR Inten    --     24.5183                32.7407                26.2110

 - Thermochemistry -
 -------------------
 Temperature   298.150 Kelvin.  Pressure   1.00000 Atm.
 Atom     1 has atomic number  6 and mass  12.00000

 Molecular mass:   122.08440 amu.
 Principal axes and moments of inertia in atomic units:
                           1         2         3
     Eigenvalues --   714.309931206.512911766.62590
           X            0.99986   0.01505  -0.00675
           Y           -0.01509   0.99987  -0.00609
           Z            0.00665   0.00619   0.99996
 This molecule is an asymmetric top.
 Rotational symmetry number  1.
 Warning -- assumption of classical behavior for rotation
           may cause significant error
 Rotational temperatures (Kelvin)      0.12126     0.07179     0.04903
 Rotational constants (GHZ):           2.52655     1.49583     1.02158
 Zero-point vibrational energy     422054.9 (Joules/Mol)
                                  100.87355 (Kcal/Mol)
 Warning -- explicit consideration of  11 degrees of freedom as
           vibrations may cause significant error
 Vibrational temperatures:     70.83   167.70   216.80   296.24   318.60
          (Kelvin)            440.78   470.67   602.72   633.70   751.37
                              854.68   894.58  1063.12  1144.60  1178.29
                             1247.31  1359.97  1410.77  1451.17  1465.18
                             1516.65  1528.98  1561.12  1671.97  1729.63
                             1783.50  1843.12  1857.87  1912.77  1945.69
                             2018.31  2040.68  2066.47  2105.02  2134.00
                             2139.26  2153.31  2162.19  2172.35  2288.12
                             2329.95  4362.12  4371.37  4395.55  4442.13
                             4451.59  4474.65  4477.12  4494.50  4507.98
                             4546.04

 Zero-point correction=                           0.160752 (Hartree/Particle)
 Thermal correction to Energy=                    0.169432
 Thermal correction to Enthalpy=                  0.170376
 Thermal correction to Gibbs Free Energy=         0.126913
 Sum of electronic and zero-point Energies=           -382.141156
 Sum of electronic and thermal Energies=              -382.132476
 Sum of electronic and thermal Enthalpies=            -382.131532
 Sum of electronic and thermal Free Energies=         -382.174996

                     E (Thermal)             CV                S
                      KCal/Mol        Cal/Mol-Kelvin    Cal/Mol-Kelvin
 Total                  106.320             31.869             91.477
 Electronic               0.000              0.000              0.000
 Translational            0.889              2.981             40.313
 Rotational               0.889              2.981             28.811
 Vibrational            104.543             25.907             22.353
 Vibration     1          0.595              1.978              4.848
 Vibration     2          0.608              1.936              3.157
 Vibration     3          0.618              1.902              2.664
 Vibration     4          0.640              1.831              2.080
 Vibration     5          0.648              1.808              1.947
 Vibration     6          0.697              1.662              1.382
 Vibration     7          0.711              1.621              1.274
 Vibration     8          0.782              1.429              0.896
 Vibration     9          0.800              1.382              0.825
 Vibration    10          0.877              1.201              0.605
 Vibration    11          0.952              1.044              0.460

 Optimization completed.
    -- Stationary point found.
 Normal termination of Gaussian 16 at Thu Aug  4 04:38:51 2022.
