 Gaussian 16, Revision A.03,
 Gaussian 16:  ES64L-G16RevA.03 25-Dec-2016

 -----------------------------
 # opt freq b3lyp/6-31g(2df,p)
 -----------------------------

 -------------------
 Title Card Required
 -------------------
 Symbolic Z-matrix:
 Charge =  0 Multiplicity = 1

 SCF Done:  E(RB3LYP) =  -420.598285105     A.U. after   13 cycles
 SCF Done:  E(RB3LYP) =  -420.603228020     A.U. after   13 cycles
 SCF Done:  E(RB3LYP) =  -420.604161120     A.U. after   12 cycles
 SCF Done:  E(RB3LYP) =  -420.604428983     A.U. after   12 cycles
 SCF Done:  E(RB3LYP) =  -420.604965803     A.U. after   10 cycles
 SCF Done:  E(RB3LYP) =  -420.605046210     A.U. after   10 cycles
 SCF Done:  E(RB3LYP) =  -420.605061022     A.U. after    9 cycles
 SCF Done:  E(RB3LYP) =  -420.605065821     A.U. after    8 cycles
 SCF Done:  E(RB3LYP) =  -420.605067452     A.U. after    8 cycles
 SCF Done:  E(RB3LYP) =  -420.605068330     A.U. after    8 cycles
 SCF Done:  E(RB3LYP) =  -420.605068374     A.U. after    6 cycles
 Optimization completed.
    -- Stationary point found.
 Normal termination of Gaussian 16 at Thu Aug  4 09:56:58 2022.

 ----------------------------------------------------------------------
 #N Geom=AllCheck Guess=TCheck SCRF=Check GenChk RB3LYP/6-31G(2df,p) Fr
 eq
 ----------------------------------------------------------------------

 Structure from the checkpoint file:  "CCC1NCCpNpC1dO.chk"
 -------------------
 Title Card Required
 -------------------
 Charge =  0 Multiplicity = 1

                         Standard orientation:
 ---------------------------------------------------------------------
 Center     Atomic      Atomic             Coordinates (Angstroms)
 Number     Number       Type             X           Y           Z
 ---------------------------------------------------------------------
      1          6           0       -2.533367   -0.231603    1.009558
      2          6           0       -2.174088   -0.133444   -0.477916
      3          6           0       -0.721240    0.256950   -0.769144
      4          7           0       -0.309785    1.580362   -0.270946
      5          6           0        1.139909    1.497049   -0.015424
      6          6           0        1.409077    0.073230    0.502302
      7          7           0        2.772368   -0.410049    0.339610
      8          6           0        0.315760   -0.735935   -0.219052
      9          8           0        0.311526   -1.933949   -0.359063
     10          1           0       -3.569044   -0.562577    1.128710
     11          1           0       -2.446734    0.729665    1.528061
     12          1           0       -1.894918   -0.955074    1.527148
     13          1           0       -2.835068    0.584032   -0.976602
     14          1           0       -2.339826   -1.106223   -0.952438
     15          1           0       -0.587503    0.248162   -1.863408
     16          1           0       -0.784370    1.767941    0.606427
     17          1           0        1.456037    2.279107    0.676769
     18          1           0        1.681937    1.654981   -0.958940
     19          1           0        1.158076    0.041804    1.574324
     20          1           0        3.027121   -0.356692   -0.644582
     21          1           0        2.787692   -1.403207    0.564440
 ---------------------------------------------------------------------

 SCF Done:  E(RB3LYP) =  -420.605068374     A.U. after    1 cycles

 The electronic state is 1-A.
 Alpha  occ. eigenvalues --  -19.13641 -14.32225 -14.31668 -10.26143 -10.21762
 Alpha  occ. eigenvalues --  -10.21717 -10.21430 -10.19284 -10.18483  -1.04513
 Alpha  occ. eigenvalues --   -0.92955  -0.88315  -0.78428  -0.72019  -0.70500
 Alpha  occ. eigenvalues --   -0.63369  -0.59832  -0.52746  -0.50804  -0.49123
 Alpha  occ. eigenvalues --   -0.46800  -0.45864  -0.44367  -0.42619  -0.42028
 Alpha  occ. eigenvalues --   -0.40140  -0.38554  -0.37892  -0.36245  -0.35195
 Alpha  occ. eigenvalues --   -0.34334  -0.33618  -0.28149  -0.24994  -0.21174
 Alpha virt. eigenvalues --   -0.02270   0.06744   0.08738   0.11183   0.11348
 Alpha virt. eigenvalues --    0.12659   0.14251   0.15258   0.16310   0.16688
 Alpha virt. eigenvalues --    0.17562   0.17859   0.19777   0.21162   0.21294

 Mulliken charges:
               1
     1  C   -0.398437
     2  C   -0.206552
     3  C   -0.065029
     4  N   -0.312241
     5  C   -0.187533
     6  C   -0.075615
     7  N   -0.514003
     8  C    0.373013
     9  O   -0.335879
    10  H    0.124593
    11  H    0.114338
    12  H    0.131228
    13  H    0.109045
    14  H    0.124985
    15  H    0.105288
    16  H    0.220544
    17  H    0.117260
    18  H    0.105152
    19  H    0.103776
    20  H    0.225962
    21  H    0.240107
 Sum of Mulliken charges =  -0.00000

 Dipole moment (field-independent basis, Debye):
    X=             -0.8170    Y=              1.0145    Z=              0.3807  Tot=              1.3571
 Quadrupole moment (field-independent basis, Debye-Ang):
   XX=            -54.8176   YY=            -61.0860   ZZ=            -52.7727
   XY=             -0.4841   XZ=             -3.4723   YZ=              0.9690

  Exact polarizability:  89.380   0.493  76.339   0.160   1.166  68.108
 Approx polarizability: 113.101  -0.519 119.516   0.300   3.278 104.241

                      1                      2                      3
                      A                      A                      A
 Frequencies --     48.1794                80.2879               154.0203
 Red. masses --      4.0930                 2.2475                 2.5430
 Frc consts  --      0.0056                 0.0085                 0.0355
 IR Inten    --      1.0594                 0.5795                 0.6297

                      4                      5                      6
                      A                      A                      A
 Frequencies --    174.3936               209.9160               247.4026
 Red. masses --      1.6844                 1.2067                 2.7846
 Frc consts  --      0.0302                 0.0313                 0.1004
 IR Inten    --      4.3874                50.6602                19.0870

                      7                      8                      9
                      A                      A                      A
 Frequencies --    272.4008               279.8136               349.9948
 Red. masses --      1.6672                 2.3661                 2.8351
 Frc consts  --      0.0729                 0.1091                 0.2046
 IR Inten    --      1.1095                 2.3581                 3.2465

                     10                     11                     12
                      A                      A                      A
 Frequencies --    473.3838               506.9766               555.8919
 Red. masses --      3.9593                 2.9692                 3.9765
 Frc consts  --      0.5228                 0.4496                 0.7240
 IR Inten    --      2.7038                 0.5862                 7.8089

                     13                     14                     15
                      A                      A                      A
 Frequencies --    610.0128               699.4054               747.9793
 Red. masses --      4.1046                 3.9512                 1.7229
 Frc consts  --      0.8999                 1.1388                 0.5679
 IR Inten    --      0.6350                 3.2488                 2.0244

                     16                     17                     18
                      A                      A                      A
 Frequencies --    772.6041               827.6596               890.2613
 Red. masses --      1.6574                 1.7675                 2.3162
 Frc consts  --      0.5829                 0.7134                 1.0816
 IR Inten    --     59.4169                42.7015                21.2690

                     19                     20                     21
                      A                      A                      A
 Frequencies --    930.7079               940.7084               975.4261
 Red. masses --      1.5670                 1.9095                 2.4360
 Frc consts  --      0.7997                 0.9956                 1.3656
 IR Inten    --     65.4397                64.3374                52.0222

                     22                     23                     24
                      A                      A                      A
 Frequencies --    996.4499              1037.0884              1058.7218
 Red. masses --      1.5890                 1.7698                 2.3881
 Frc consts  --      0.9296                 1.1215                 1.5771
 IR Inten    --     10.9201                 3.9712                10.7970

                     25                     26                     27
                      A                      A                      A
 Frequencies --   1072.6839              1146.4712              1154.0601
 Red. masses --      1.9622                 1.9227                 2.3930
 Frc consts  --      1.3303                 1.4890                 1.8778
 IR Inten    --     13.7972                 5.5459                 6.2029

                     28                     29                     30
                      A                      A                      A
 Frequencies --   1189.1711              1211.6212              1232.9904
 Red. masses --      2.4588                 1.6243                 1.6121
 Frc consts  --      2.0486                 1.4049                 1.4440
 IR Inten    --     19.5322                 0.9985                 9.5718

                     31                     32                     33
                      A                      A                      A
 Frequencies --   1275.4975              1299.2448              1317.9225
 Red. masses --      1.3207                 1.4174                 1.3341
 Frc consts  --      1.2660                 1.4097                 1.3652
 IR Inten    --      0.6083                 0.1833                 2.8894

                     34                     35                     36
                      A                      A                      A
 Frequencies --   1335.3436              1357.6190              1378.7121
 Red. masses --      1.4258                 1.3534                 1.3531
 Frc consts  --      1.4979                 1.4697                 1.5154
 IR Inten    --      3.1599                 6.1947                 1.4833

                     37                     38                     39
                      A                      A                      A
 Frequencies --   1398.7187              1416.1373              1460.8646
 Red. masses --      1.4807                 1.2591                 1.1477
 Frc consts  --      1.7068                 1.4877                 1.4431
 IR Inten    --      2.0245                 6.5408                13.7601

                     40                     41                     42
                      A                      A                      A
 Frequencies --   1476.1208              1498.6215              1500.3263
 Red. masses --      1.0794                 1.0895                 1.0597
 Frc consts  --      1.3858                 1.4417                 1.4055
 IR Inten    --      3.7668                 0.8672                 4.9809

                     43                     44                     45
                      A                      A                      A
 Frequencies --   1509.3889              1661.9779              1837.9288
 Red. masses --      1.0438                 1.0860                12.8732
 Frc consts  --      1.4011                 1.7674                25.6209
 IR Inten    --      8.7196                26.7936               135.6633

                     46                     47                     48
                      A                      A                      A
 Frequencies --   2968.3645              2984.9201              3010.3381
 Red. masses --      1.0810                 1.0804                 1.0717
 Frc consts  --      5.6119                 5.6716                 5.7223
 IR Inten    --     20.7249                 6.9278                59.2385

                     49                     50                     51
                      A                      A                      A
 Frequencies --   3033.9486              3044.1602              3079.3645
 Red. masses --      1.0374                 1.0605                 1.1007
 Frc consts  --      5.6263                 5.7903                 6.1494
 IR Inten    --     13.8541                29.8066                 0.8660

                     52                     53                     54
                      A                      A                      A
 Frequencies --   3102.3052              3110.5055              3115.1732
 Red. masses --      1.1008                 1.1014                 1.0945
 Frc consts  --      6.2423                 6.2787                 6.2581
 IR Inten    --     38.0010                30.3902                20.5528

                     55                     56                     57
                      A                      A                      A
 Frequencies --   3465.9691              3521.2727              3539.4115
 Red. masses --      1.0494                 1.0736                 1.0910
 Frc consts  --      7.4272                 7.8431                 8.0529
 IR Inten    --      1.0548                 0.4977                 1.1473

 - Thermochemistry -
 -------------------
 Temperature   298.150 Kelvin.  Pressure   1.00000 Atm.
 Atom     1 has atomic number  6 and mass  12.00000

 Molecular mass:   128.09496 amu.
 Principal axes and moments of inertia in atomic units:
                           1         2         3
     Eigenvalues --   698.074641421.947211786.89715
           X            0.99983   0.01213  -0.01404
           Y           -0.01219   0.99992  -0.00394
           Z            0.01399   0.00412   0.99989
 This molecule is an asymmetric top.
 Rotational symmetry number  1.
 Warning -- assumption of classical behavior for rotation
           may cause significant error
 Rotational temperatures (Kelvin)      0.12408     0.06091     0.04847
 Rotational constants (GHZ):           2.58531     1.26920     1.00999
 Zero-point vibrational energy     481777.1 (Joules/Mol)
                                  115.14749 (Kcal/Mol)
 Warning -- explicit consideration of  13 degrees of freedom as
           vibrations may cause significant error
 Vibrational temperatures:     69.32   115.52   221.60   250.91   302.02
          (Kelvin)            355.96   391.92   402.59   503.56   681.09
                              729.43   799.80   877.67  1006.29  1076.18
                             1111.61  1190.82  1280.89  1339.08  1353.47
                             1403.42  1433.67  1492.14  1523.26  1543.35
                             1649.52  1660.44  1710.95  1743.25  1774.00
                             1835.16  1869.32  1896.20  1921.26  1953.31
                             1983.66  2012.44  2037.51  2101.86  2123.81
                             2156.18  2158.63  2171.67  2391.22  2644.37
                             4270.81  4294.63  4331.21  4365.18  4379.87
                             4430.52  4463.53  4475.32  4482.04  4986.76
                             5066.33  5092.42

 Zero-point correction=                           0.183499 (Hartree/Particle)
 Thermal correction to Energy=                    0.193160
 Thermal correction to Enthalpy=                  0.194105
 Thermal correction to Gibbs Free Energy=         0.148552
 Sum of electronic and zero-point Energies=           -420.421569
 Sum of electronic and thermal Energies=              -420.411908
 Sum of electronic and thermal Enthalpies=            -420.410964
 Sum of electronic and thermal Free Energies=         -420.456516

                     E (Thermal)             CV                S
                      KCal/Mol        Cal/Mol-Kelvin    Cal/Mol-Kelvin
 Total                  121.210             35.549             95.873
 Electronic               0.000              0.000              0.000
 Translational            0.889              2.981             40.456
 Rotational               0.889              2.981             28.963
 Vibrational            119.433             29.587             26.454
 Vibration     1          0.595              1.978              4.891
 Vibration     2          0.600              1.963              3.884
 Vibration     3          0.620              1.898              2.622
 Vibration     4          0.627              1.874              2.388
 Vibration     5          0.642              1.826              2.044
 Vibration     6          0.661              1.767              1.749
 Vibration     7          0.675              1.724              1.581
 Vibration     8          0.680              1.711              1.535
 Vibration     9          0.727              1.575              1.166
 Vibration    10          0.830              1.309              0.728
 Vibration    11          0.862              1.235              0.641
 Vibration    12          0.911              1.127              0.532
 Vibration    13          0.969              1.011              0.433

                           ! Non-Optimized Parameters !
 Normal termination of Gaussian 16 at Thu Aug  4 10:35:40 2022.
