 Gaussian 16, Revision A.03,
 Gaussian 16:  ES64L-G16RevA.03 25-Dec-2016

 -----------------------------
 # opt freq b3lyp/6-31g(2df,p)
 -----------------------------

 -------------------
 Title Card Required
 -------------------
 Symbolic Z-matrix:
 Charge =  0 Multiplicity = 1

 SCF Done:  E(RB3LYP) =  -441.680097797     A.U. after   12 cycles
 SCF Done:  E(RB3LYP) =  -441.686360397     A.U. after   11 cycles
 SCF Done:  E(RB3LYP) =  -441.687251136     A.U. after   10 cycles
 SCF Done:  E(RB3LYP) =  -441.687533059     A.U. after   10 cycles
 SCF Done:  E(RB3LYP) =  -441.687677635     A.U. after   10 cycles
 SCF Done:  E(RB3LYP) =  -441.687844181     A.U. after   10 cycles
 SCF Done:  E(RB3LYP) =  -441.687960793     A.U. after   10 cycles
 SCF Done:  E(RB3LYP) =  -441.688044093     A.U. after   10 cycles
 SCF Done:  E(RB3LYP) =  -441.688086974     A.U. after   10 cycles
 SCF Done:  E(RB3LYP) =  -441.688101001     A.U. after   10 cycles
 SCF Done:  E(RB3LYP) =  -441.688330430     A.U. after   10 cycles
 SCF Done:  E(RB3LYP) =  -441.688398879     A.U. after   10 cycles
 SCF Done:  E(RB3LYP) =  -441.688398952     A.U. after   10 cycles
 SCF Done:  E(RB3LYP) =  -441.688395071     A.U. after    8 cycles
 SCF Done:  E(RB3LYP) =  -441.688408938     A.U. after   10 cycles
 SCF Done:  E(RB3LYP) =  -441.688407890     A.U. after    9 cycles
 SCF Done:  E(RB3LYP) =  -441.688409382     A.U. after    9 cycles
 SCF Done:  E(RB3LYP) =  -441.688409409     A.U. after    7 cycles
 SCF Done:  E(RB3LYP) =  -441.688409439     A.U. after    7 cycles
 Optimization completed.
    -- Stationary point found.
 Normal termination of Gaussian 16 at Thu Aug  4 11:35:17 2022.

 ----------------------------------------------------------------------
 #N Geom=AllCheck Guess=TCheck SCRF=Check GenChk RB3LYP/6-31G(2df,p) Fr
 eq
 ----------------------------------------------------------------------

 Structure from the checkpoint file:  "CCC1OCpCpNC1O.chk"
 -------------------
 Title Card Required
 -------------------
 Charge =  0 Multiplicity = 1

                         Standard orientation:
 ---------------------------------------------------------------------
 Center     Atomic      Atomic             Coordinates (Angstroms)
 Number     Number       Type             X           Y           Z
 ---------------------------------------------------------------------
      1          6           0       -3.058077   -0.527647    0.035333
      2          6           0       -1.700619   -1.184100   -0.237452
      3          6           0       -0.531529   -0.397352    0.347467
      4          8           0        0.683017   -1.137847    0.220507
      5          6           0        1.684000   -0.334522   -0.389184
      6          6           0        3.020944   -0.563289    0.293788
      7          7           0        1.196343    1.034641   -0.237966
      8          6           0       -0.252832    0.965335   -0.330464
      9          8           0       -0.875634    2.069035    0.275534
     10          1           0       -3.868421   -1.108431   -0.414695
     11          1           0       -3.103693    0.489144   -0.365396
     12          1           0       -3.253143   -0.461049    1.111283
     13          1           0       -1.540740   -1.301875   -1.316846
     14          1           0       -1.676655   -2.192595    0.190195
     15          1           0       -0.719210   -0.208407    1.416658
     16          1           0        1.765055   -0.625282   -1.455934
     17          1           0        2.953012   -0.273709    1.345190
     18          1           0        3.804429    0.030281   -0.188709
     19          1           0        3.299366   -1.618651    0.226494
     20          1           0        1.597317    1.663636   -0.924854
     21          1           0       -0.635558    0.965801   -1.363693
     22          1           0       -0.426546    2.198597    1.120809
 ---------------------------------------------------------------------

 SCF Done:  E(RB3LYP) =  -441.688409439     A.U. after    1 cycles

 The electronic state is 1-A.
 Alpha  occ. eigenvalues --  -19.13917 -19.13507 -14.32249 -10.25853 -10.25659
 Alpha  occ. eigenvalues --  -10.22612 -10.17813 -10.17328 -10.17095  -1.05177
 Alpha  occ. eigenvalues --   -1.02277  -0.88710  -0.79148  -0.74367  -0.68197
 Alpha  occ. eigenvalues --   -0.63340  -0.59889  -0.58269  -0.53143  -0.49768
 Alpha  occ. eigenvalues --   -0.48611  -0.46257  -0.43358  -0.41197  -0.40591
 Alpha  occ. eigenvalues --   -0.39631  -0.38868  -0.37618  -0.35720  -0.35370
 Alpha  occ. eigenvalues --   -0.34782  -0.33495  -0.33381  -0.26974  -0.25682
 Alpha  occ. eigenvalues --   -0.23607
 Alpha virt. eigenvalues --    0.08048   0.08707   0.10240   0.11426   0.12963
 Alpha virt. eigenvalues --    0.14540   0.14778   0.15505   0.16312   0.17187
 Alpha virt. eigenvalues --    0.17307   0.18701   0.19111   0.19532   0.21760

 Mulliken charges:
               1
     1  C   -0.385743
     2  C   -0.205362
     3  C    0.129699
     4  O   -0.284770
     5  C    0.169618
     6  C   -0.386856
     7  N   -0.345561
     8  C    0.108566
     9  O   -0.424085
    10  H    0.111907
    11  H    0.134941
    12  H    0.116212
    13  H    0.095390
    14  H    0.105445
    15  H    0.066826
    16  H    0.055451
    17  H    0.124857
    18  H    0.109214
    19  H    0.124846
    20  H    0.224897
    21  H    0.078466
    22  H    0.276043
 Sum of Mulliken charges =  -0.00000

 Dipole moment (field-independent basis, Debye):
    X=              0.8515    Y=              0.3042    Z=             -0.5984  Tot=              1.0843
 Quadrupole moment (field-independent basis, Debye-Ang):
   XX=            -54.1256   YY=            -58.8217   ZZ=            -52.1590
   XY=              3.7757   XZ=             -2.2137   YZ=              0.6560

  Exact polarizability:  94.990  -0.703  73.676  -1.864   1.252  68.849
 Approx polarizability: 113.515  -2.152 106.572  -2.849   1.403 105.955

                      1                      2                      3
                      A                      A                      A
 Frequencies --     27.9145               104.2737               106.7834
 Red. masses --      3.7054                 3.2142                 2.2792
 Frc consts  --      0.0017                 0.0206                 0.0153
 IR Inten    --      2.2232                 2.4350                 0.0970

                      4                      5                      6
                      A                      A                      A
 Frequencies --    175.9257               224.7631               232.3324
 Red. masses --      1.8238                 1.2314                 1.2521
 Frc consts  --      0.0333                 0.0367                 0.0398
 IR Inten    --      0.3203                 0.6426                 0.5772

                      7                      8                      9
                      A                      A                      A
 Frequencies --    282.2081               324.5286               363.5048
 Red. masses --      2.6304                 1.9295                 2.1881
 Frc consts  --      0.1234                 0.1197                 0.1704
 IR Inten    --      2.8048                14.8945                 3.7339

                     10                     11                     12
                      A                      A                      A
 Frequencies --    373.3166               450.4813               482.6019
 Red. masses --      1.8053                 3.0375                 3.2541
 Frc consts  --      0.1482                 0.3632                 0.4465
 IR Inten    --     45.4078                31.7711                 5.2664

                     13                     14                     15
                      A                      A                      A
 Frequencies --    561.0623               595.0997               677.2852
 Red. masses --      2.9193                 2.9383                 4.7196
 Frc consts  --      0.5414                 0.6131                 1.2756
 IR Inten    --      2.7459                13.8836                 5.9161

                     16                     17                     18
                      A                      A                      A
 Frequencies --    779.0216               836.7208               861.3787
 Red. masses --      1.2659                 1.7199                 2.3590
 Frc consts  --      0.4526                 0.7094                 1.0313
 IR Inten    --      7.7491                77.4728                20.9702

                     19                     20                     21
                      A                      A                      A
 Frequencies --    911.7916               941.1723               967.7093
 Red. masses --      1.9722                 1.6826                 1.9221
 Frc consts  --      0.9661                 0.8781                 1.0605
 IR Inten    --     30.7644                 6.5323                16.1966

                     22                     23                     24
                      A                      A                      A
 Frequencies --   1034.1354              1043.9642              1090.0189
 Red. masses --      2.9235                 2.8318                 1.7495
 Frc consts  --      1.8421                 1.8184                 1.2247
 IR Inten    --      9.8800                 7.8099                59.3214

                     25                     26                     27
                      A                      A                      A
 Frequencies --   1094.5644              1120.6825              1129.5562
 Red. masses --      2.7910                 2.6290                 2.2203
 Frc consts  --      1.9701                 1.9454                 1.6691
 IR Inten    --     52.4872                26.8911                98.2577

                     28                     29                     30
                      A                      A                      A
 Frequencies --   1142.7860              1167.8016              1178.7222
 Red. masses --      2.3512                 2.3084                 2.3608
 Frc consts  --      1.8091                 1.8548                 1.9326
 IR Inten    --     30.8946                30.3940                58.0202

                     31                     32                     33
                      A                      A                      A
 Frequencies --   1258.4293              1286.4996              1306.2847
 Red. masses --      1.3875                 1.3719                 1.2897
 Frc consts  --      1.2946                 1.3378                 1.2966
 IR Inten    --     24.8735                40.4326                12.5597

                     34                     35                     36
                      A                      A                      A
 Frequencies --   1326.0719              1363.0447              1379.2529
 Red. masses --      1.2544                 1.3763                 1.3177
 Frc consts  --      1.2996                 1.5065                 1.4769
 IR Inten    --      7.7739                12.5891                16.9512

                     37                     38                     39
                      A                      A                      A
 Frequencies --   1393.1863              1403.8510              1413.4342
 Red. masses --      1.2399                 1.3135                 1.3658
 Frc consts  --      1.4180                 1.5252                 1.6076
 IR Inten    --     14.2317                18.8211                 2.9878

                     40                     41                     42
                      A                      A                      A
 Frequencies --   1419.2409              1431.8911              1451.6581
 Red. masses --      1.2998                 1.5240                 1.3034
 Frc consts  --      1.5426                 1.8410                 1.6183
 IR Inten    --      6.3052                72.6755                47.8932

                     43                     44                     45
                      A                      A                      A
 Frequencies --   1486.1638              1488.6762              1490.2495
 Red. masses --      1.0697                 1.0591                 1.0688
 Frc consts  --      1.3920                 1.3828                 1.3985
 IR Inten    --      4.0251                 0.9849                 6.0638

                     46                     47                     48
                      A                      A                      A
 Frequencies --   1499.8416              1508.3291              2885.5500
 Red. masses --      1.0413                 1.0817                 1.0818
 Frc consts  --      1.3801                 1.4499                 5.3069
 IR Inten    --      5.1013                 6.8461               104.5992

                     49                     50                     51
                      A                      A                      A
 Frequencies --   2967.2013              2979.0912              3027.8665
 Red. masses --      1.0817                 1.0848                 1.0622
 Frc consts  --      5.6111                 5.6722                 5.7376
 IR Inten    --     23.8544                72.0443                28.1691

                     52                     53                     54
                      A                      A                      A
 Frequencies --   3037.8593              3042.0394              3067.5658
 Red. masses --      1.0363                 1.0352                 1.0999
 Frc consts  --      5.6347                 5.6443                 6.0979
 IR Inten    --     29.3244                15.5483                15.9574

                     55                     56                     57
                      A                      A                      A
 Frequencies --   3103.2065              3114.2937              3116.3491
 Red. masses --      1.1009                 1.1003                 1.1017
 Frc consts  --      6.2460                 6.2878                 6.3039
 IR Inten    --     37.1053                18.5184                30.3313

                     58                     59                     60
                      A                      A                      A
 Frequencies --   3133.9875              3543.1121              3774.7233
 Red. masses --      1.1031                 1.0748                 1.0648
 Frc consts  --      6.3833                 7.9500                 8.9386
 IR Inten    --     20.2985                 2.5841                18.5780

 - Thermochemistry -
 -------------------
 Temperature   298.150 Kelvin.  Pressure   1.00000 Atm.
 Atom     1 has atomic number  6 and mass  12.00000

 Molecular mass:   131.09463 amu.
 Principal axes and moments of inertia in atomic units:
                           1         2         3
     Eigenvalues --   660.480791566.911262066.74297
           X            0.99987   0.01597   0.00046
           Y           -0.01597   0.99986   0.00400
           Z           -0.00040  -0.00401   0.99999
 This molecule is an asymmetric top.
 Rotational symmetry number  1.
 Warning -- assumption of classical behavior for rotation
           may cause significant error
 Rotational temperatures (Kelvin)      0.13114     0.05528     0.04191
 Rotational constants (GHZ):           2.73247     1.15178     0.87323
 Zero-point vibrational energy     508299.6 (Joules/Mol)
                                  121.48652 (Kcal/Mol)
 Warning -- explicit consideration of  14 degrees of freedom as
           vibrations may cause significant error
 Vibrational temperatures:     40.16   150.03   153.64   253.12   323.38
          (Kelvin)            334.27   406.03   466.92   523.00   537.12
                              648.14   694.36   807.24   856.22   974.46
                             1120.84  1203.85  1239.33  1311.86  1354.14
                             1392.32  1487.89  1502.03  1568.29  1574.83
                             1612.41  1625.18  1644.21  1680.21  1695.92
                             1810.60  1850.99  1879.45  1907.92  1961.12
                             1984.44  2004.48  2019.83  2033.62  2041.97
                             2060.17  2088.61  2138.26  2141.87  2144.14
                             2157.94  2170.15  4151.66  4269.14  4286.25
                             4356.42  4370.80  4376.82  4413.54  4464.82
                             4480.77  4483.73  4509.11  5097.75  5430.98

 Zero-point correction=                           0.193601 (Hartree/Particle)
 Thermal correction to Energy=                    0.203585
 Thermal correction to Enthalpy=                  0.204529
 Thermal correction to Gibbs Free Energy=         0.157931
 Sum of electronic and zero-point Energies=           -441.494808
 Sum of electronic and thermal Energies=              -441.484824
 Sum of electronic and thermal Enthalpies=            -441.483880
 Sum of electronic and thermal Free Energies=         -441.530479

                     E (Thermal)             CV                S
                      KCal/Mol        Cal/Mol-Kelvin    Cal/Mol-Kelvin
 Total                  127.752             36.841             98.075
 Electronic               0.000              0.000              0.000
 Translational            0.889              2.981             40.525
 Rotational               0.889              2.981             29.149
 Vibrational            125.974             30.880             28.401
 Vibration     1          0.593              1.984              5.972
 Vibration     2          0.605              1.946              3.373
 Vibration     3          0.606              1.944              3.327
 Vibration     4          0.628              1.872              2.371
 Vibration     5          0.649              1.803              1.920
 Vibration     6          0.653              1.792              1.861
 Vibration     7          0.681              1.707              1.520
 Vibration     8          0.709              1.626              1.287
 Vibration     9          0.737              1.547              1.107
 Vibration    10          0.745              1.527              1.066
 Vibration    11          0.809              1.360              0.794
 Vibration    12          0.839              1.289              0.703
 Vibration    13          0.917              1.116              0.522
 Vibration    14          0.953              1.042              0.458

 Optimization completed.
    -- Stationary point found.
 Normal termination of Gaussian 16 at Thu Aug  4 12:20:04 2022.
