 Gaussian 16, Revision A.03,
 Gaussian 16:  ES64L-G16RevA.03 25-Dec-2016

 -----------------------------
 # opt freq b3lyp/6-31g(2df,p)
 -----------------------------

 -------------------
 Title Card Required
 -------------------
 Symbolic Z-matrix:
 Charge =  0 Multiplicity = 1

 SCF Done:  E(RB3LYP) =  -311.054999422     A.U. after   12 cycles
 SCF Done:  E(RB3LYP) =  -311.058488590     A.U. after   10 cycles
 SCF Done:  E(RB3LYP) =  -311.059371607     A.U. after   10 cycles
 SCF Done:  E(RB3LYP) =  -311.060137539     A.U. after   10 cycles
 SCF Done:  E(RB3LYP) =  -311.061098651     A.U. after   12 cycles
 SCF Done:  E(RB3LYP) =  -311.061677164     A.U. after   10 cycles
 SCF Done:  E(RB3LYP) =  -311.062127379     A.U. after   10 cycles
 SCF Done:  E(RB3LYP) =  -311.062285380     A.U. after   10 cycles
 SCF Done:  E(RB3LYP) =  -311.062333863     A.U. after    9 cycles
 SCF Done:  E(RB3LYP) =  -311.062378099     A.U. after    9 cycles
 SCF Done:  E(RB3LYP) =  -311.062454723     A.U. after    9 cycles
 SCF Done:  E(RB3LYP) =  -311.062479106     A.U. after    9 cycles
 SCF Done:  E(RB3LYP) =  -311.062499893     A.U. after    9 cycles
 SCF Done:  E(RB3LYP) =  -311.062501901     A.U. after    8 cycles
 SCF Done:  E(RB3LYP) =  -311.062491788     A.U. after   10 cycles
 SCF Done:  E(RB3LYP) =  -311.062505200     A.U. after    9 cycles
 SCF Done:  E(RB3LYP) =  -311.062505251     A.U. after    7 cycles
 SCF Done:  E(RB3LYP) =  -311.062505641     A.U. after    7 cycles
 SCF Done:  E(RB3LYP) =  -311.062505673     A.U. after    6 cycles
 Optimization completed.
    -- Stationary point found.
 Normal termination of Gaussian 16 at Thu Aug  4 03:12:11 2022.

 ----------------------------------------------------------------------
 #N Geom=AllCheck Guess=TCheck SCRF=Check GenChk RB3LYP/6-31G(2df,p) Fr
 eq
 ----------------------------------------------------------------------

 Structure from the checkpoint file:  "CCC1pOCpCC1.chk"
 -------------------
 Title Card Required
 -------------------
 Charge =  0 Multiplicity = 1

                         Standard orientation:
 ---------------------------------------------------------------------
 Center     Atomic      Atomic             Coordinates (Angstroms)
 Number     Number       Type             X           Y           Z
 ---------------------------------------------------------------------
      1          6           0       -2.553682   -0.263153    0.059107
      2          6           0       -1.183451   -0.941930    0.023279
      3          6           0        0.038061   -0.038490   -0.045775
      4          8           0        1.149668   -0.894861   -0.187023
      5          6           0        2.433398   -0.400018    0.102160
      6          6           0        0.000956    1.281598   -0.768662
      7          6           0        0.113580    1.238155    0.748790
      8          1           0       -3.340879   -1.020015    0.125932
      9          1           0       -2.745560    0.325396   -0.843226
     10          1           0       -2.666494    0.397786    0.924433
     11          1           0       -1.130967   -1.613801   -0.842153
     12          1           0       -1.065702   -1.580442    0.907500
     13          1           0        3.134411   -1.198125   -0.155483
     14          1           0        2.558769   -0.158316    1.167101
     15          1           0        2.696469    0.488368   -0.491059
     16          1           0       -0.929771    1.612803   -1.214285
     17          1           0        0.884414    1.584075   -1.320524
     18          1           0       -0.746099    1.529438    1.341983
     19          1           0        1.060896    1.534748    1.182571
 ---------------------------------------------------------------------

 SCF Done:  E(RB3LYP) =  -311.062505673     A.U. after    1 cycles

 The electronic state is 1-A.
 Alpha  occ. eigenvalues --  -19.13647 -10.23539 -10.22226 -10.17949 -10.17691
 Alpha  occ. eigenvalues --  -10.17653 -10.17429  -1.03004  -0.84478  -0.75523
 Alpha  occ. eigenvalues --   -0.69894  -0.62476  -0.60160  -0.54076  -0.50692
 Alpha  occ. eigenvalues --   -0.48136  -0.44972  -0.43675  -0.42561  -0.40447
 Alpha  occ. eigenvalues --   -0.36748  -0.35844  -0.35789  -0.35170  -0.33170
 Alpha  occ. eigenvalues --   -0.31037  -0.27636  -0.22811
 Alpha virt. eigenvalues --    0.08664   0.09526   0.12256   0.12467   0.13950
 Alpha virt. eigenvalues --    0.14579   0.16079   0.16278   0.17155   0.17620
 Alpha virt. eigenvalues --    0.18312   0.19373   0.22012   0.23904   0.24950

 Mulliken charges:
               1
     1  C   -0.403735
     2  C   -0.222238
     3  C    0.451308
     4  O   -0.284814
     5  C   -0.245764
     6  C   -0.321882
     7  C   -0.333750
     8  H    0.117600
     9  H    0.120424
    10  H    0.118334
    11  H    0.108063
    12  H    0.102959
    13  H    0.127182
    14  H    0.109420
    15  H    0.105765
    16  H    0.113397
    17  H    0.112409
    18  H    0.113000
    19  H    0.112323
 Sum of Mulliken charges =  -0.00000

 Dipole moment (field-independent basis, Debye):
    X=              0.1591    Y=              0.7611    Z=              0.3354  Tot=              0.8468
 Quadrupole moment (field-independent basis, Debye-Ang):
   XX=            -40.4660   YY=            -46.2816   ZZ=            -44.5027
   XY=              1.0079   XZ=              0.4003   YZ=             -0.3627

  Exact polarizability:  77.683  -0.123  64.604   0.472  -0.344  59.788
 Approx polarizability:  94.916  -0.719  94.099   0.759   0.379  90.866

                      1                      2                      3
                      A                      A                      A
 Frequencies --     57.0951                68.3413               210.9551
 Red. masses --      2.3572                 1.8511                 1.4555
 Frc consts  --      0.0045                 0.0051                 0.0382
 IR Inten    --      2.0533                 1.8860                 1.1083

                      4                      5                      6
                      A                      A                      A
 Frequencies --    233.2269               259.5112               312.7132
 Red. masses --      1.5494                 1.3578                 2.6108
 Frc consts  --      0.0497                 0.0539                 0.1504
 IR Inten    --      0.5753                 0.7744                 1.3036

                      7                      8                      9
                      A                      A                      A
 Frequencies --    331.1037               420.6086               450.5395
 Red. masses --      1.9209                 3.6039                 2.5767
 Frc consts  --      0.1241                 0.3756                 0.3082
 IR Inten    --      0.3203                 1.0556                 1.4258

                     10                     11                     12
                      A                      A                      A
 Frequencies --    498.8521               658.4979               764.2236
 Red. masses --      2.5607                 3.6521                 1.0583
 Frc consts  --      0.3754                 0.9331                 0.3642
 IR Inten    --      1.0391                 8.1230                 0.1371

                     13                     14                     15
                      A                      A                      A
 Frequencies --    774.6523               862.8591               875.3192
 Red. masses --      1.2729                 1.9373                 1.4279
 Frc consts  --      0.4500                 0.8498                 0.6446
 IR Inten    --      0.2049                 8.0244                 9.3344

                     16                     17                     18
                      A                      A                      A
 Frequencies --    921.1277               950.7609              1029.2591
 Red. masses --      1.9772                 2.0296                 1.7465
 Frc consts  --      0.9884                 1.0809                 1.0901
 IR Inten    --     17.0717                 3.5884                 8.4573

                     19                     20                     21
                      A                      A                      A
 Frequencies --   1038.0662              1069.9223              1078.2153
 Red. masses --      1.7158                 1.4856                 2.1281
 Frc consts  --      1.0893                 1.0020                 1.4577
 IR Inten    --     17.5842                 1.3471                 4.2012

                     22                     23                     24
                      A                      A                      A
 Frequencies --   1131.5063              1147.0088              1176.5907
 Red. masses --      3.5085                 1.7802                 1.2923
 Frc consts  --      2.6466                 1.3799                 1.0540
 IR Inten    --     45.5918                 7.3023                 2.1524

                     25                     26                     27
                      A                      A                      A
 Frequencies --   1187.0703              1214.7118              1249.4444
 Red. masses --      1.3055                 1.4691                 2.7100
 Frc consts  --      1.0839                 1.2772                 2.4926
 IR Inten    --      0.0692                 1.2552               156.6949

                     28                     29                     30
                      A                      A                      A
 Frequencies --   1299.1783              1346.8873              1382.2559
 Red. masses --      1.1622                 2.2856                 1.7915
 Frc consts  --      1.1557                 2.4429                 2.0167
 IR Inten    --      2.1573                11.2574                 8.8794

                     31                     32                     33
                      A                      A                      A
 Frequencies --   1415.5573              1453.8122              1481.5309
 Red. masses --      1.2637                 1.0852                 1.1610
 Frc consts  --      1.4920                 1.3514                 1.5014
 IR Inten    --      1.1544                 0.9908                 1.4077

                     34                     35                     36
                      A                      A                      A
 Frequencies --   1488.5536              1493.7058              1501.9954
 Red. masses --      1.0973                 1.0651                 1.2089
 Frc consts  --      1.4325                 1.4001                 1.6069
 IR Inten    --      2.9053                 2.5500                17.9104

                     37                     38                     39
                      A                      A                      A
 Frequencies --   1506.7403              1511.8939              1514.6044
 Red. masses --      1.0573                 1.0527                 1.1674
 Frc consts  --      1.4143                 1.4177                 1.5779
 IR Inten    --      9.7698                13.1258                 6.1135

                     40                     41                     42
                      A                      A                      A
 Frequencies --   2983.4874              3026.7520              3033.3182
 Red. masses --      1.0365                 1.0596                 1.1027
 Frc consts  --      5.4358                 5.7194                 5.9778
 IR Inten    --     51.8890                26.5489                48.3197

                     43                     44                     45
                      A                      A                      A
 Frequencies --   3039.8374              3057.8541              3105.3184
 Red. masses --      1.0357                 1.1016                 1.1003
 Frc consts  --      5.6389                 6.0686                 6.2515
 IR Inten    --     22.6793                13.1555                31.0313

                     46                     47                     48
                      A                      A                      A
 Frequencies --   3108.0727              3108.5938              3137.6645
 Red. masses --      1.0961                 1.1011                 1.0539
 Frc consts  --      6.2388                 6.2693                 6.1128
 IR Inten    --     31.0748                30.1740                15.7775

                     49                     50                     51
                      A                      A                      A
 Frequencies --   3142.8813              3214.7580              3228.2592
 Red. masses --      1.0563                 1.1163                 1.1140
 Frc consts  --      6.1474                 6.7970                 6.8401
 IR Inten    --     11.8304                 0.8301                17.4073

 - Thermochemistry -
 -------------------
 Temperature   298.150 Kelvin.  Pressure   1.00000 Atm.
 Atom     1 has atomic number  6 and mass  12.00000

 Molecular mass:   100.08882 amu.
 Principal axes and moments of inertia in atomic units:
                           1         2         3
     Eigenvalues --   386.11509 960.113591161.89039
           X            0.99988   0.01523   0.00349
           Y           -0.01520   0.99984  -0.00890
           Z           -0.00362   0.00885   0.99995
 This molecule is an asymmetric top.
 Rotational symmetry number  1.
 Rotational temperatures (Kelvin)      0.22432     0.09021     0.07455
 Rotational constants (GHZ):           4.67410     1.87972     1.55328
 Zero-point vibrational energy     445942.1 (Joules/Mol)
                                  106.58272 (Kcal/Mol)
 Warning -- explicit consideration of  10 degrees of freedom as
           vibrations may cause significant error
 Vibrational temperatures:     82.15    98.33   303.52   335.56   373.38
          (Kelvin)            449.92   476.38   605.16   648.23   717.74
                              947.43  1099.55  1114.55  1241.46  1259.39
                             1325.30  1367.93  1480.87  1493.55  1539.38
                             1551.31  1627.99  1650.29  1692.85  1707.93
                             1747.70  1797.67  1869.23  1937.87  1988.76
                             2036.67  2091.71  2131.59  2141.70  2149.11
                             2161.04  2167.86  2175.28  2179.18  4292.57
                             4354.82  4364.27  4373.65  4399.57  4467.86
                             4471.82  4472.57  4514.40  4521.91  4625.32
                             4644.74

 Zero-point correction=                           0.169850 (Hartree/Particle)
 Thermal correction to Energy=                    0.178219
 Thermal correction to Enthalpy=                  0.179163
 Thermal correction to Gibbs Free Energy=         0.137031
 Sum of electronic and zero-point Energies=           -310.892655
 Sum of electronic and thermal Energies=              -310.884287
 Sum of electronic and thermal Enthalpies=            -310.883343
 Sum of electronic and thermal Free Energies=         -310.925474

                     E (Thermal)             CV                S
                      KCal/Mol        Cal/Mol-Kelvin    Cal/Mol-Kelvin
 Total                  111.834             30.569             88.673
 Electronic               0.000              0.000              0.000
 Translational            0.889              2.981             39.721
 Rotational               0.889              2.981             27.557
 Vibrational            110.056             24.607             21.396
 Vibration     1          0.596              1.975              4.555
 Vibration     2          0.598              1.969              4.201
 Vibration     3          0.643              1.824              2.035
 Vibration     4          0.654              1.790              1.854
 Vibration     5          0.668              1.747              1.665
 Vibration     6          0.701              1.649              1.348
 Vibration     7          0.713              1.613              1.255
 Vibration     8          0.783              1.425              0.890
 Vibration     9          0.809              1.360              0.794
 Vibration    10          0.854              1.253              0.661

 Optimization completed.
    -- Stationary point found.
 Normal termination of Gaussian 16 at Thu Aug  4 03:31:15 2022.
