 Gaussian 16, Revision A.03,
 Gaussian 16:  ES64L-G16RevA.03 25-Dec-2016

 -----------------------------
 # opt freq b3lyp/6-31g(2df,p)
 -----------------------------

 -------------------
 Title Card Required
 -------------------
 Symbolic Z-matrix:
 Charge =  0 Multiplicity = 1

 SCF Done:  E(RB3LYP) =  -387.064971485     A.U. after   19 cycles
 SCF Done:  E(RB3LYP) =  -387.111997208     A.U. after   15 cycles
 SCF Done:  E(RB3LYP) =  -387.147716510     A.U. after   15 cycles
 SCF Done:  E(RB3LYP) =  -387.177863063     A.U. after   14 cycles
 SCF Done:  E(RB3LYP) =  -387.197814558     A.U. after   14 cycles
 SCF Done:  E(RB3LYP) =  -387.203044944     A.U. after   13 cycles
 SCF Done:  E(RB3LYP) =  -387.207062630     A.U. after   14 cycles
 SCF Done:  E(RB3LYP) =  -387.209366263     A.U. after   12 cycles
 SCF Done:  E(RB3LYP) =  -387.212011662     A.U. after   13 cycles
 SCF Done:  E(RB3LYP) =  -387.213476209     A.U. after   13 cycles
 SCF Done:  E(RB3LYP) =  -387.214211078     A.U. after   13 cycles
 SCF Done:  E(RB3LYP) =  -387.214204961     A.U. after   11 cycles
 SCF Done:  E(RB3LYP) =  -387.214304887     A.U. after   13 cycles
 SCF Done:  E(RB3LYP) =  -387.214329882     A.U. after   12 cycles
 SCF Done:  E(RB3LYP) =  -387.214346157     A.U. after   12 cycles
 SCF Done:  E(RB3LYP) =  -387.214346804     A.U. after    8 cycles
 SCF Done:  E(RB3LYP) =  -387.214348608     A.U. after   10 cycles
 SCF Done:  E(RB3LYP) =  -387.214348497     A.U. after   10 cycles
 SCF Done:  E(RB3LYP) =  -387.214348733     A.U. after    9 cycles
 Optimization completed.
    -- Stationary point found.
 Normal termination of Gaussian 16 at Thu Aug  4 10:00:52 2022.

 ----------------------------------------------------------------------
 #N Geom=AllCheck Guess=TCheck SCRF=Check GenChk RB3LYP/6-31G(2df,p) Fr
 eq
 ----------------------------------------------------------------------

 Structure from the checkpoint file:  "CCC1dC2CCCC12O.chk"
 -------------------
 Title Card Required
 -------------------
 Charge =  0 Multiplicity = 1

                         Standard orientation:
 ---------------------------------------------------------------------
 Center     Atomic      Atomic             Coordinates (Angstroms)
 Number     Number       Type             X           Y           Z
 ---------------------------------------------------------------------
      1          6           0        2.880465   -0.773598    0.511894
      2          6           0        2.050398    0.300854   -0.200433
      3          6           0        0.567479   -0.032860   -0.173469
      4          6           0        0.104329   -1.266009   -0.662743
      5          6           0       -1.311191   -1.658493   -0.373989
      6          6           0       -2.087884   -0.760110    0.601328
      7          6           0       -1.851250    0.688058    0.184808
      8          6           0       -0.388260    0.953703   -0.015722
      9          8           0       -0.028293    2.246205   -0.155067
     10          1           0        3.952778   -0.582638    0.404607
     11          1           0        2.656068   -1.756157    0.086023
     12          1           0        2.648510   -0.807947    1.582209
     13          1           0        2.379209    0.374390   -1.244372
     14          1           0        2.226408    1.281844    0.252090
     15          1           0       -1.303615   -2.703656   -0.034907
     16          1           0       -1.826070   -1.711461   -1.348230
     17          1           0       -1.700092   -0.905333    1.616350
     18          1           0       -3.158795   -0.987168    0.624667
     19          1           0       -2.232213    1.391529    0.938725
     20          1           0       -2.391793    0.914686   -0.748838
     21          1           0       -0.808566    2.812992   -0.117836
 ---------------------------------------------------------------------

 SCF Done:  E(RB3LYP) =  -387.214348733     A.U. after    1 cycles

 The electronic state is 1-A.
 Alpha  occ. eigenvalues --  -19.19870 -10.26859 -10.20918 -10.18580 -10.17738
 Alpha  occ. eigenvalues --  -10.17329 -10.16471 -10.16025 -10.15498  -1.08842
 Alpha  occ. eigenvalues --   -0.84033  -0.77706  -0.73005  -0.71473  -0.63123
 Alpha  occ. eigenvalues --   -0.61781  -0.58418  -0.51581  -0.49485  -0.47128
 Alpha  occ. eigenvalues --   -0.46509  -0.42440  -0.41944  -0.41574  -0.39137
 Alpha  occ. eigenvalues --   -0.36976  -0.36862  -0.35044  -0.34557  -0.34287
 Alpha  occ. eigenvalues --   -0.32594  -0.30724  -0.24226  -0.16356
 Alpha virt. eigenvalues --   -0.05086   0.04567   0.06117   0.08949   0.13002
 Alpha virt. eigenvalues --    0.13211   0.14420   0.16578   0.16921   0.17545
 Alpha virt. eigenvalues --    0.17861   0.18878   0.19116   0.20714   0.21584

 Mulliken charges:
               1
     1  C   -0.375033
     2  C   -0.258020
     3  C    0.174744
     4  C   -0.203287
     5  C   -0.230656
     6  C   -0.226436
     7  C   -0.323956
     8  C    0.312940
     9  O   -0.388057
    10  H    0.101353
    11  H    0.133928
    12  H    0.102064
    13  H    0.109203
    14  H    0.094632
    15  H    0.121781
    16  H    0.118344
    17  H    0.106324
    18  H    0.092679
    19  H    0.111457
    20  H    0.123748
    21  H    0.302248
 Sum of Mulliken charges =  -0.00000

 Dipole moment (field-independent basis, Debye):
    X=             -3.2302    Y=              2.8335    Z=              1.1714  Tot=              4.4537
 Quadrupole moment (field-independent basis, Debye-Ang):
   XX=            -52.3833   YY=            -52.8756   ZZ=            -56.6536
   XY=             -2.1384   XZ=              1.0787   YZ=             -2.2445

  Exact polarizability: 105.221  -4.318 106.704  -0.862   4.467  66.459
 Approx polarizability: 138.869 -16.024 201.436  -1.852  17.261 106.761

                      1                      2                      3
                      A                      A                      A
 Frequencies --     36.4820                99.1737               147.3212
 Red. masses --      2.2579                 3.2905                 2.6658
 Frc consts  --      0.0018                 0.0191                 0.0341
 IR Inten    --      2.0264                 3.2253                 2.4739

                      4                      5                      6
                      A                      A                      A
 Frequencies --    208.7388               249.3358               256.3652
 Red. masses --      1.4905                 2.1038                 1.6260
 Frc consts  --      0.0383                 0.0771                 0.0630
 IR Inten    --      3.1429                11.2796                14.6951

                      7                      8                      9
                      A                      A                      A
 Frequencies --    295.2809               367.2763               422.4378
 Red. masses --      2.2170                 2.9322                 2.7384
 Frc consts  --      0.1139                 0.2330                 0.2879
 IR Inten    --      6.5699                 4.8706                 4.7609

                     10                     11                     12
                      A                      A                      A
 Frequencies --    460.6166               491.1502               509.0164
 Red. masses --      1.2434                 4.0649                 3.6617
 Frc consts  --      0.1554                 0.5777                 0.5590
 IR Inten    --     72.7083                 8.3125                 4.3865

                     13                     14                     15
                      A                      A                      A
 Frequencies --    602.4433               635.6374               748.4745
 Red. masses --      2.3985                 2.8742                 3.8396
 Frc consts  --      0.5129                 0.6842                 1.2673
 IR Inten    --      2.8838                 8.0592                 2.2664

                     16                     17                     18
                      A                      A                      A
 Frequencies --    786.6740               793.9162               869.9269
 Red. masses --      1.3356                 1.7429                 2.1819
 Frc consts  --      0.4870                 0.6473                 0.9728
 IR Inten    --      5.2516                 4.8183                15.7232

                     19                     20                     21
                      A                      A                      A
 Frequencies --    886.9541               944.0839               977.3506
 Red. masses --      2.7711                 2.4768                 2.1406
 Frc consts  --      1.2844                 1.3007                 1.2047
 IR Inten    --      5.0388                34.0256                 3.3041

                     22                     23                     24
                      A                      A                      A
 Frequencies --   1032.0921              1042.7996              1078.7478
 Red. masses --      1.8315                 1.8944                 2.4905
 Frc consts  --      1.1495                 1.2138                 1.7076
 IR Inten    --      8.6552                 1.6160                11.2260

                     25                     26                     27
                      A                      A                      A
 Frequencies --   1092.9538              1115.4213              1141.0212
 Red. masses --      2.0094                 1.6679                 1.1696
 Frc consts  --      1.4142                 1.2227                 0.8972
 IR Inten    --      2.0764                56.6852                 1.7547

                     28                     29                     30
                      A                      A                      A
 Frequencies --   1192.8585              1222.8774              1260.3864
 Red. masses --      1.4907                 1.5862                 1.2392
 Frc consts  --      1.2498                 1.3976                 1.1598
 IR Inten    --      5.4961                26.2307                 2.4079

                     31                     32                     33
                      A                      A                      A
 Frequencies --   1289.4349              1292.6301              1311.1698
 Red. masses --      1.6647                 1.5692                 1.5601
 Frc consts  --      1.6307                 1.5448                 1.5802
 IR Inten    --    122.1850               103.4028                29.6503

                     34                     35                     36
                      A                      A                      A
 Frequencies --   1351.0798              1363.5027              1371.4850
 Red. masses --      1.7049                 1.4740                 1.7102
 Frc consts  --      1.8336                 1.6145                 1.8953
 IR Inten    --      1.9357                 9.3777                 0.1561

                     37                     38                     39
                      A                      A                      A
 Frequencies --   1387.3237              1399.2090              1437.2561
 Red. masses --      1.9376                 1.2530                 1.5451
 Frc consts  --      2.1972                 1.4454                 1.8805
 IR Inten    --    131.1178                23.8225                31.4599

                     40                     41                     42
                      A                      A                      A
 Frequencies --   1461.4289              1481.7808              1487.4001
 Red. masses --      1.0992                 1.0827                 1.0993
 Frc consts  --      1.3832                 1.4006                 1.4330
 IR Inten    --      4.3988                 3.9459                 4.6902

                     43                     44                     45
                      A                      A                      A
 Frequencies --   1494.4881              1510.1375              1586.3620
 Red. masses --      1.0453                 1.0568                 4.4233
 Frc consts  --      1.3755                 1.4200                 6.5585
 IR Inten    --      5.8534                 3.9797                41.4531

                     46                     47                     48
                      A                      A                      A
 Frequencies --   2978.7058              2981.6438              3021.5083
 Red. masses --      1.0659                 1.0704                 1.0813
 Frc consts  --      5.5720                 5.6069                 5.8165
 IR Inten    --     29.5451                18.0064                 3.6152

                     49                     50                     51
                      A                      A                      A
 Frequencies --   3025.9955              3029.0457              3030.7583
 Red. masses --      1.0883                 1.0513                 1.0477
 Frc consts  --      5.8711                 5.6829                 5.6701
 IR Inten    --     17.9027                21.6878                34.3803

                     52                     53                     54
                      A                      A                      A
 Frequencies --   3040.9337              3074.5092              3078.9283
 Red. masses --      1.0683                 1.0962                 1.1048
 Frc consts  --      5.8205                 6.1048                 6.1706
 IR Inten    --     45.3269                10.3207                36.0294

                     55                     56                     57
                      A                      A                      A
 Frequencies --   3098.3013              3112.6310              3779.6025
 Red. masses --      1.1018                 1.1017                 1.0659
 Frc consts  --      6.2317                 6.2890                 8.9718
 IR Inten    --     41.7879                23.4287                67.5405

 - Thermochemistry -
 -------------------
 Temperature   298.150 Kelvin.  Pressure   1.00000 Atm.
 Atom     1 has atomic number  6 and mass  12.00000

 Molecular mass:   124.08882 amu.
 Principal axes and moments of inertia in atomic units:
                           1         2         3
     Eigenvalues --   786.215481309.541201905.24528
           X            0.99993  -0.01100   0.00385
           Y            0.01103   0.99991  -0.00742
           Z           -0.00377   0.00746   0.99997
 This molecule is an asymmetric top.
 Rotational symmetry number  1.
 Warning -- assumption of classical behavior for rotation
           may cause significant error
 Rotational temperatures (Kelvin)      0.11017     0.06614     0.04546
 Rotational constants (GHZ):           2.29548     1.37815     0.94725
 Zero-point vibrational energy     475187.0 (Joules/Mol)
                                  113.57242 (Kcal/Mol)
 Warning -- explicit consideration of  13 degrees of freedom as
           vibrations may cause significant error
 Vibrational temperatures:     52.49   142.69   211.96   300.33   358.74
          (Kelvin)            368.85   424.84   528.43   607.79   662.72
                              706.66   732.36   866.78   914.54  1076.89
                             1131.85  1142.27  1251.63  1276.13  1358.33
                             1406.19  1484.95  1500.36  1552.08  1572.52
                             1604.84  1641.68  1716.26  1759.45  1813.41
                             1855.21  1859.81  1886.48  1943.90  1961.78
                             1973.26  1996.05  2013.15  2067.89  2102.67
                             2131.95  2140.04  2150.24  2172.75  2282.42
                             4285.69  4289.92  4347.28  4353.73  4358.12
                             4360.59  4375.23  4423.53  4429.89  4457.76
                             4478.38  5438.00

 Zero-point correction=                           0.180989 (Hartree/Particle)
 Thermal correction to Energy=                    0.190420
 Thermal correction to Enthalpy=                  0.191364
 Thermal correction to Gibbs Free Energy=         0.146298
 Sum of electronic and zero-point Energies=           -387.033360
 Sum of electronic and thermal Energies=              -387.023929
 Sum of electronic and thermal Enthalpies=            -387.022985
 Sum of electronic and thermal Free Energies=         -387.068051

                     E (Thermal)             CV                S
                      KCal/Mol        Cal/Mol-Kelvin    Cal/Mol-Kelvin
 Total                  119.490             35.497             94.850
 Electronic               0.000              0.000              0.000
 Translational            0.889              2.981             40.361
 Rotational               0.889              2.981             29.063
 Vibrational            117.713             29.535             25.426
 Vibration     1          0.594              1.982              5.442
 Vibration     2          0.604              1.950              3.470
 Vibration     3          0.617              1.906              2.707
 Vibration     4          0.642              1.827              2.055
 Vibration     5          0.662              1.764              1.735
 Vibration     6          0.666              1.752              1.686
 Vibration     7          0.689              1.683              1.444
 Vibration     8          0.740              1.540              1.091
 Vibration     9          0.785              1.421              0.884
 Vibration    10          0.818              1.337              0.764
 Vibration    11          0.847              1.270              0.681
 Vibration    12          0.864              1.230              0.636
 Vibration    13          0.961              1.027              0.445

 Optimization completed.
    -- Stationary point found.
 Normal termination of Gaussian 16 at Thu Aug  4 10:39:56 2022.
