 Gaussian 16, Revision A.03,
 Gaussian 16:  ES64L-G16RevA.03 25-Dec-2016

 -----------------------------
 # opt freq b3lyp/6-31g(2df,p)
 -----------------------------

 -------------------
 Title Card Required
 -------------------
 Symbolic Z-matrix:
 Charge =  0 Multiplicity = 1

 SCF Done:  E(RB3LYP) =  -387.064268913     A.U. after   16 cycles
 SCF Done:  E(RB3LYP) =  -387.112740426     A.U. after   14 cycles
 SCF Done:  E(RB3LYP) =  -387.164492397     A.U. after   14 cycles
 SCF Done:  E(RB3LYP) =  -387.178680060     A.U. after   14 cycles
 SCF Done:  E(RB3LYP) =  -387.191229486     A.U. after   15 cycles
 SCF Done:  E(RB3LYP) =  -387.196601946     A.U. after   14 cycles
 SCF Done:  E(RB3LYP) =  -387.201025196     A.U. after   13 cycles
 SCF Done:  E(RB3LYP) =  -387.202448438     A.U. after   13 cycles
 SCF Done:  E(RB3LYP) =  -387.203529842     A.U. after   13 cycles
 SCF Done:  E(RB3LYP) =  -387.205325337     A.U. after   13 cycles
 SCF Done:  E(RB3LYP) =  -387.210226789     A.U. after   13 cycles
 SCF Done:  E(RB3LYP) =  -387.210395292     A.U. after   12 cycles
 SCF Done:  E(RB3LYP) =  -387.210441474     A.U. after   11 cycles
 SCF Done:  E(RB3LYP) =  -387.210457702     A.U. after   11 cycles
 SCF Done:  E(RB3LYP) =  -387.210459208     A.U. after    9 cycles
 SCF Done:  E(RB3LYP) =  -387.210460249     A.U. after    8 cycles
 SCF Done:  E(RB3LYP) =  -387.210461331     A.U. after    8 cycles
 SCF Done:  E(RB3LYP) =  -387.210462284     A.U. after    9 cycles
 SCF Done:  E(RB3LYP) =  -387.210463072     A.U. after    9 cycles
 Optimization completed.
    -- Stationary point found.
 Normal termination of Gaussian 16 at Thu Aug  4 06:26:50 2022.

 ----------------------------------------------------------------------
 #N Geom=AllCheck Guess=TCheck SCRF=Check GenChk RB3LYP/6-31G(2df,p) Fr
 eq
 ----------------------------------------------------------------------

 Structure from the checkpoint file:  "CCC12CdC1CpCpCO2.chk"
 -------------------
 Title Card Required
 -------------------
 Charge =  0 Multiplicity = 1

                         Standard orientation:
 ---------------------------------------------------------------------
 Center     Atomic      Atomic             Coordinates (Angstroms)
 Number     Number       Type             X           Y           Z
 ---------------------------------------------------------------------
      1          6           0       -2.619640    1.041839    0.567488
      2          6           0       -2.288665   -0.271697   -0.166936
      3          6           0       -0.813441   -0.526575   -0.255521
      4          6           0       -0.120927   -1.416198    0.566456
      5          6           0        1.167211   -1.072730    0.983308
      6          6           0        1.899284   -0.139953    0.053076
      7          6           0        2.168129    1.202588    0.763894
      8          6           0        1.194918    0.018400   -1.300165
      9          8           0       -0.203274    0.304202   -1.088648
     10          1           0       -3.701495    1.197114    0.601141
     11          1           0       -2.165462    1.894587    0.056319
     12          1           0       -2.244210    1.016818    1.594530
     13          1           0       -2.690363   -0.228320   -1.186133
     14          1           0       -2.755813   -1.117460    0.345589
     15          1           0       -0.723976   -2.130084    1.125383
     16          1           0        2.873999   -0.605889   -0.150237
     17          1           0        1.232311    1.735837    0.959345
     18          1           0        2.804204    1.850666    0.151635
     19          1           0        2.656886    1.024101    1.723629
     20          1           0        1.259478   -0.923827   -1.858435
     21          1           0        1.559424    0.838797   -1.923176
 ---------------------------------------------------------------------

 SCF Done:  E(RB3LYP) =  -387.210463072     A.U. after    1 cycles

 The electronic state is 1-A.
 Alpha  occ. eigenvalues --  -19.19870 -10.27099 -10.23900 -10.20362 -10.18976
 Alpha  occ. eigenvalues --  -10.18828 -10.17398 -10.17023 -10.16095  -1.09728
 Alpha  occ. eigenvalues --   -0.81496  -0.80602  -0.74833  -0.70055  -0.65256
 Alpha  occ. eigenvalues --   -0.62196  -0.57845  -0.51065  -0.50428  -0.48547
 Alpha  occ. eigenvalues --   -0.46543  -0.44601  -0.42267  -0.41411  -0.40052
 Alpha  occ. eigenvalues --   -0.38388  -0.37560  -0.36406  -0.35974  -0.34302
 Alpha  occ. eigenvalues --   -0.33100  -0.32202  -0.25306  -0.16895
 Alpha virt. eigenvalues --   -0.05680   0.05646   0.08723   0.10680   0.12124
 Alpha virt. eigenvalues --    0.12725   0.13845   0.14541   0.15557   0.16264
 Alpha virt. eigenvalues --    0.16727   0.17177   0.18323   0.18797   0.19827

 Mulliken charges:
               1
     1  C   -0.377803
     2  C   -0.271535
     3  C    0.373019
     4  C   -0.218764
     5  C   -0.170610
     6  C   -0.022911
     7  C   -0.388172
     8  C   -0.112319
     9  O   -0.221038
    10  H    0.122730
    11  H    0.135937
    12  H    0.135010
    13  H    0.124358
    14  H    0.120744
    15  H    0.082150
    16  H    0.102715
    17  H    0.120568
    18  H    0.106162
    19  H    0.136893
    20  H    0.111598
    21  H    0.111267
 Sum of Mulliken charges =  -0.00000

 Dipole moment (field-independent basis, Debye):
    X=             -1.4972    Y=              1.1384    Z=             -2.2141  Tot=              2.9051
 Quadrupole moment (field-independent basis, Debye-Ang):
   XX=            -50.1801   YY=            -56.9473   ZZ=            -58.3333
   XY=              2.8615   XZ=             -4.8819   YZ=              3.2030

  Exact polarizability: 115.537  -0.749  80.188   5.650  -6.815  78.983
 Approx polarizability: 176.854 -11.417 125.922  26.167 -21.769 132.094

                      1                      2                      3
                      A                      A                      A
 Frequencies --     48.3383                71.9057               146.5209
 Red. masses --      2.5580                 2.9584                 3.3118
 Frc consts  --      0.0035                 0.0090                 0.0419
 IR Inten    --      0.5068                 1.2932                 6.5670

                      4                      5                      6
                      A                      A                      A
 Frequencies --    204.7052               214.4969               239.5171
 Red. masses --      1.2732                 1.1616                 1.9976
 Frc consts  --      0.0314                 0.0315                 0.0675
 IR Inten    --      0.4311                 0.1160                 4.7504

                      7                      8                      9
                      A                      A                      A
 Frequencies --    287.8486               357.5574               373.1295
 Red. masses --      3.1849                 2.4177                 2.0210
 Frc consts  --      0.1555                 0.1821                 0.1658
 IR Inten    --      3.4822                 6.4811                 0.7477

                     10                     11                     12
                      A                      A                      A
 Frequencies --    447.4445               517.7410               583.5156
 Red. masses --      4.0789                 4.6153                 5.2416
 Frc consts  --      0.4811                 0.7289                 1.0515
 IR Inten    --     28.5397                 4.7985                 0.5512

                     13                     14                     15
                      A                      A                      A
 Frequencies --    713.6510               741.4867               783.7502
 Red. masses --      3.8997                 2.9057                 2.9265
 Frc consts  --      1.1702                 0.9413                 1.0591
 IR Inten    --      7.2962                 3.7736                 1.5135

                     16                     17                     18
                      A                      A                      A
 Frequencies --    800.2503               878.3198               892.0400
 Red. masses --      1.3424                 2.1204                 1.6099
 Frc consts  --      0.5065                 0.9638                 0.7548
 IR Inten    --      0.5980                47.3387                 3.3528

                     19                     20                     21
                      A                      A                      A
 Frequencies --    896.6287               941.2641               956.7317
 Red. masses --      1.8717                 2.3724                 2.1032
 Frc consts  --      0.8866                 1.2384                 1.1342
 IR Inten    --     20.2619                11.6223                16.7362

                     22                     23                     24
                      A                      A                      A
 Frequencies --    990.9585              1021.1154              1071.6776
 Red. masses --      2.5909                 1.5935                 1.8722
 Frc consts  --      1.4991                 0.9789                 1.2669
 IR Inten    --      5.6744                16.1979                14.1087

                     25                     26                     27
                      A                      A                      A
 Frequencies --   1094.6251              1122.7758              1145.4241
 Red. masses --      1.5138                 2.1709                 2.1999
 Frc consts  --      1.0687                 1.6124                 1.7005
 IR Inten    --      1.6370                25.2640                 0.8295

                     28                     29                     30
                      A                      A                      A
 Frequencies --   1228.4940              1236.2957              1258.0877
 Red. masses --      1.5873                 2.3530                 1.3602
 Frc consts  --      1.4114                 2.1189                 1.2684
 IR Inten    --      6.8374                39.6748                17.8135

                     31                     32                     33
                      A                      A                      A
 Frequencies --   1277.0051              1303.5895              1318.4182
 Red. masses --      1.2718                 1.3813                 1.6643
 Frc consts  --      1.2220                 1.3830                 1.7045
 IR Inten    --      6.4819                 6.2199                16.2440

                     34                     35                     36
                      A                      A                      A
 Frequencies --   1336.5122              1371.3567              1399.3885
 Red. masses --      1.4480                 1.4448                 1.2527
 Frc consts  --      1.5240                 1.6009                 1.4453
 IR Inten    --     10.1528                 2.8734                 7.0941

                     37                     38                     39
                      A                      A                      A
 Frequencies --   1402.0949              1455.6383              1463.8865
 Red. masses --      1.2843                 2.0754                 1.5007
 Frc consts  --      1.4875                 2.5909                 1.8947
 IR Inten    --      7.8142                55.7760                37.3836

                     40                     41                     42
                      A                      A                      A
 Frequencies --   1482.1106              1488.5573              1495.6695
 Red. masses --      1.3200                 1.0595                 1.0417
 Frc consts  --      1.7084                 1.3831                 1.3730
 IR Inten    --     20.0376                 9.1572                 9.0431

                     43                     44                     45
                      A                      A                      A
 Frequencies --   1501.5338              1510.1557              1521.0049
 Red. masses --      1.0540                 1.1206                 1.6860
 Frc consts  --      1.4001                 1.5058                 2.2981
 IR Inten    --      1.0558                14.4178                47.4936

                     46                     47                     48
                      A                      A                      A
 Frequencies --   3006.7746              3029.0487              3035.9241
 Red. masses --      1.0797                 1.0629                 1.0371
 Frc consts  --      5.7514                 5.7456                 5.6321
 IR Inten    --      4.1961                48.1458                25.2005

                     49                     50                     51
                      A                      A                      A
 Frequencies --   3039.4179              3045.7401              3092.8379
 Red. masses --      1.0603                 1.0344                 1.1004
 Frc consts  --      5.7709                 5.6538                 6.2019
 IR Inten    --     13.4820                24.1966                 3.3132

                     52                     53                     54
                      A                      A                      A
 Frequencies --   3099.8537              3101.8914              3119.6730
 Red. masses --      1.1025                 1.1018                 1.1027
 Frc consts  --      6.2420                 6.2462                 6.3230
 IR Inten    --     12.1859                47.0287                25.6278

                     55                     56                     57
                      A                      A                      A
 Frequencies --   3122.6366              3128.7255              3133.1330
 Red. masses --      1.0885                 1.1022                 1.1000
 Frc consts  --      6.2534                 6.3570                 6.3620
 IR Inten    --     19.8620                31.6469                12.8586

 - Thermochemistry -
 -------------------
 Temperature   298.150 Kelvin.  Pressure   1.00000 Atm.
 Atom     1 has atomic number  6 and mass  12.00000

 Molecular mass:   124.08882 amu.
 Principal axes and moments of inertia in atomic units:
                           1         2         3
     Eigenvalues --   639.298371563.032081613.55349
           X            0.99983   0.01475  -0.01147
           Y           -0.01093   0.95957   0.28126
           Z            0.01515  -0.28108   0.95956
 This molecule is an asymmetric top.
 Rotational symmetry number  1.
 Warning -- assumption of classical behavior for rotation
           may cause significant error
 Rotational temperatures (Kelvin)      0.13548     0.05541     0.05368
 Rotational constants (GHZ):           2.82300     1.15464     1.11849
 Zero-point vibrational energy     475807.9 (Joules/Mol)
                                  113.72083 (Kcal/Mol)
 Warning -- explicit consideration of  12 degrees of freedom as
           vibrations may cause significant error
 Vibrational temperatures:     69.55   103.46   210.81   294.53   308.61
          (Kelvin)            344.61   414.15   514.45   536.85   643.77
                              744.91   839.55  1026.78  1066.83  1127.64
                             1151.38  1263.71  1283.45  1290.05  1354.27
                             1376.52  1425.77  1469.16  1541.91  1574.92
                             1615.42  1648.01  1767.53  1778.75  1810.11
                             1837.33  1875.57  1896.91  1922.94  1973.08
                             2013.41  2017.30  2094.34  2106.21  2132.43
                             2141.70  2151.93  2160.37  2172.78  2188.39
                             4326.08  4358.13  4368.02  4373.04  4382.14
                             4449.90  4460.00  4462.93  4488.51  4492.78
                             4501.54  4507.88

 Zero-point correction=                           0.181226 (Hartree/Particle)
 Thermal correction to Energy=                    0.190644
 Thermal correction to Enthalpy=                  0.191589
 Thermal correction to Gibbs Free Energy=         0.146520
 Sum of electronic and zero-point Energies=           -387.029237
 Sum of electronic and thermal Energies=              -387.019819
 Sum of electronic and thermal Enthalpies=            -387.018874
 Sum of electronic and thermal Free Energies=         -387.063943

                     E (Thermal)             CV                S
                      KCal/Mol        Cal/Mol-Kelvin    Cal/Mol-Kelvin
 Total                  119.631             34.879             94.854
 Electronic               0.000              0.000              0.000
 Translational            0.889              2.981             40.361
 Rotational               0.889              2.981             28.868
 Vibrational            117.854             28.918             25.625
 Vibration     1          0.595              1.978              4.884
 Vibration     2          0.598              1.967              4.100
 Vibration     3          0.617              1.906              2.717
 Vibration     4          0.640              1.833              2.090
 Vibration     5          0.644              1.819              2.005
 Vibration     6          0.657              1.780              1.806
 Vibration     7          0.685              1.696              1.487
 Vibration     8          0.733              1.560              1.133
 Vibration     9          0.745              1.527              1.067
 Vibration    10          0.807              1.367              0.804
 Vibration    11          0.873              1.211              0.615
 Vibration    12          0.940              1.067              0.479

 Optimization completed.
    -- Stationary point found.
 Normal termination of Gaussian 16 at Thu Aug  4 07:05:45 2022.
