 Gaussian 16, Revision A.03,
 Gaussian 16:  ES64L-G16RevA.03 25-Dec-2016

 -----------------------------
 # opt freq b3lyp/6-31g(2df,p)
 -----------------------------

 -------------------
 Title Card Required
 -------------------
 Symbolic Z-matrix:
 Charge =  0 Multiplicity = 1

 SCF Done:  E(RB3LYP) =  -365.160069743     A.U. after   12 cycles
 SCF Done:  E(RB3LYP) =  -365.169800881     A.U. after   11 cycles
 SCF Done:  E(RB3LYP) =  -365.171495048     A.U. after   10 cycles
 SCF Done:  E(RB3LYP) =  -365.172824558     A.U. after   11 cycles
 SCF Done:  E(RB3LYP) =  -365.173702700     A.U. after   11 cycles
 SCF Done:  E(RB3LYP) =  -365.174037616     A.U. after   10 cycles
 SCF Done:  E(RB3LYP) =  -365.174110540     A.U. after    9 cycles
 SCF Done:  E(RB3LYP) =  -365.174164135     A.U. after    9 cycles
 SCF Done:  E(RB3LYP) =  -365.174174503     A.U. after    7 cycles
 SCF Done:  E(RB3LYP) =  -365.174178661     A.U. after    7 cycles
 SCF Done:  E(RB3LYP) =  -365.174179723     A.U. after    7 cycles
 SCF Done:  E(RB3LYP) =  -365.174180396     A.U. after    7 cycles
 SCF Done:  E(RB3LYP) =  -365.174180527     A.U. after    6 cycles
 Optimization completed.
    -- Stationary point found.
 Normal termination of Gaussian 16 at Wed Aug  3 02:38:10 2022.

 ----------------------------------------------------------------------
 #N Geom=AllCheck Guess=TCheck SCRF=Check GenChk RB3LYP/6-31G(2df,p) Fr
 eq
 ----------------------------------------------------------------------

 Structure from the checkpoint file:  "CCC1NC12CC2O.chk"
 -------------------
 Title Card Required
 -------------------
 Charge =  0 Multiplicity = 1

                         Standard orientation:
 ---------------------------------------------------------------------
 Center     Atomic      Atomic             Coordinates (Angstroms)
 Number     Number       Type             X           Y           Z
 ---------------------------------------------------------------------
      1          6           0       -2.736373   -0.906418    0.222962
      2          6           0       -1.922454    0.104447   -0.592830
      3          6           0       -0.875598    0.806613    0.240467
      4          7           0        0.261099    1.445346   -0.497027
      5          6           0        0.492072    0.306898    0.373961
      6          6           0        1.579096   -0.036247    1.323264
      7          6           0        1.345679   -0.847859    0.036726
      8          8           0        2.229032   -0.698964   -1.030167
      9          1           0       -3.494992   -1.392068   -0.397657
     10          1           0       -3.252519   -0.421337    1.058942
     11          1           0       -2.092822   -1.688007    0.640089
     12          1           0       -2.591229    0.856503   -1.030184
     13          1           0       -1.423185   -0.394284   -1.430164
     14          1           0       -1.265693    1.372695    1.087441
     15          1           0        0.530481    2.309354   -0.030020
     16          1           0        1.327220   -0.498602    2.273448
     17          1           0        2.461588    0.596785    1.336990
     18          1           0        0.964380   -1.860877    0.148036
     19          1           0        1.882295    0.029525   -1.563700
 ---------------------------------------------------------------------

 SCF Done:  E(RB3LYP) =  -365.174180527     A.U. after    1 cycles

 The electronic state is 1-A.
 Alpha  occ. eigenvalues --  -19.13169 -14.33396 -10.23179 -10.22286 -10.21913
 Alpha  occ. eigenvalues --  -10.18645 -10.18532 -10.17908  -1.02232  -0.96021
 Alpha  occ. eigenvalues --   -0.82208  -0.77304  -0.66211  -0.60602  -0.60064
 Alpha  occ. eigenvalues --   -0.56806  -0.52243  -0.48904  -0.45533  -0.44352
 Alpha  occ. eigenvalues --   -0.41933  -0.40889  -0.38836  -0.36740  -0.36065
 Alpha  occ. eigenvalues --   -0.34886  -0.32748  -0.31732  -0.29150  -0.25596
 Alpha  occ. eigenvalues --   -0.23882
 Alpha virt. eigenvalues --    0.07616   0.08050   0.09565   0.11199   0.12180
 Alpha virt. eigenvalues --    0.14044   0.15025   0.15216   0.16604   0.17445
 Alpha virt. eigenvalues --    0.18407   0.19649   0.19768   0.21763   0.22956

 Mulliken charges:
               1
     1  C   -0.379163
     2  C   -0.186420
     3  C   -0.089697
     4  N   -0.400950
     5  C    0.308554
     6  C   -0.397534
     7  C    0.068491
     8  O   -0.435751
     9  H    0.118319
    10  H    0.114969
    11  H    0.119885
    12  H    0.101571
    13  H    0.109011
    14  H    0.086880
    15  H    0.233604
    16  H    0.115457
    17  H    0.121145
    18  H    0.096901
    19  H    0.294728
 Sum of Mulliken charges =  -0.00000

 Dipole moment (field-independent basis, Debye):
    X=             -1.6827    Y=              1.0607    Z=              1.4705  Tot=              2.4737
 Quadrupole moment (field-independent basis, Debye-Ang):
   XX=            -52.0766   YY=            -46.9942   ZZ=            -48.9493
   XY=              3.0741   XZ=              1.8599   YZ=              0.5435

  Exact polarizability:  82.666  -0.752  68.300   2.049  -0.883  66.950
 Approx polarizability: 106.652  -4.303 101.246  -0.106  -2.064  99.972

                      1                      2                      3
                      A                      A                      A
 Frequencies --     69.0618               121.2976               146.1645
 Red. masses --      2.8620                 3.1335                 2.2436
 Frc consts  --      0.0080                 0.0272                 0.0282
 IR Inten    --      0.4475                 1.4523                 0.9136

                      4                      5                      6
                      A                      A                      A
 Frequencies --    182.1805               236.2193               295.2413
 Red. masses --      3.3715                 1.2506                 2.5212
 Frc consts  --      0.0659                 0.0411                 0.1295
 IR Inten    --      4.4779                 0.0239                 5.0595

                      7                      8                      9
                      A                      A                      A
 Frequencies --    364.4458               429.1268               437.1241
 Red. masses --      1.4553                 1.8957                 2.5347
 Frc consts  --      0.1139                 0.2057                 0.2854
 IR Inten    --     35.4152                16.2381                 1.1591

                     10                     11                     12
                      A                      A                      A
 Frequencies --    484.9791               533.3261               661.4323
 Red. masses --      2.9009                 2.8967                 4.0735
 Frc consts  --      0.4020                 0.4854                 1.0500
 IR Inten    --      5.0724                13.7264                14.6372

                     13                     14                     15
                      A                      A                      A
 Frequencies --    771.3111               808.4951               825.0345
 Red. masses --      1.4964                 2.3368                 1.5360
 Frc consts  --      0.5245                 0.9000                 0.6160
 IR Inten    --      2.2581                10.1881                 5.1682

                     16                     17                     18
                      A                      A                      A
 Frequencies --    906.2692               908.1611               956.4750
 Red. masses --      1.7239                 2.9753                 1.9645
 Frc consts  --      0.8342                 1.4458                 1.0589
 IR Inten    --      2.5828                52.0804                 7.2860

                     19                     20                     21
                      A                      A                      A
 Frequencies --    982.7253              1021.7787              1030.8744
 Red. masses --      2.0100                 1.5476                 1.3990
 Frc consts  --      1.1437                 0.9519                 0.8760
 IR Inten    --     36.8785                 2.0935                 2.0984

                     22                     23                     24
                      A                      A                      A
 Frequencies --   1053.1417              1087.5821              1099.5863
 Red. masses --      1.6097                 1.4990                 1.5160
 Frc consts  --      1.0519                 1.0447                 1.0800
 IR Inten    --      3.1982                 3.9411                10.3422

                     25                     26                     27
                      A                      A                      A
 Frequencies --   1126.6904              1154.1905              1173.0510
 Red. masses --      1.7320                 2.4289                 2.2540
 Frc consts  --      1.2954                 1.9064                 1.8274
 IR Inten    --     35.7258                10.1847                55.6718

                     28                     29                     30
                      A                      A                      A
 Frequencies --   1219.3414              1261.2732              1293.5135
 Red. masses --      1.6478                 1.5369                 1.2604
 Frc consts  --      1.4435                 1.4405                 1.2425
 IR Inten    --      8.0391                16.8528                 0.6648

                     31                     32                     33
                      A                      A                      A
 Frequencies --   1329.6297              1343.1061              1375.2352
 Red. masses --      1.3139                 1.4253                 1.3335
 Frc consts  --      1.3686                 1.5148                 1.4860
 IR Inten    --      3.2863                19.9049                33.9063

                     34                     35                     36
                      A                      A                      A
 Frequencies --   1408.5234              1412.9337              1450.6753
 Red. masses --      1.2753                 1.2390                 1.2220
 Frc consts  --      1.4907                 1.4574                 1.5152
 IR Inten    --     38.1585                 7.7736                 8.7130

                     37                     38                     39
                      A                      A                      A
 Frequencies --   1484.9964              1499.3907              1507.0696
 Red. masses --      1.0636                 1.0402                 1.0772
 Frc consts  --      1.3820                 1.3779                 1.4415
 IR Inten    --      1.2559                 4.7318                 4.2104

                     40                     41                     42
                      A                      A                      A
 Frequencies --   1584.3498              3029.1325              3033.1092
 Red. masses --      6.9693                 1.0625                 1.0371
 Frc consts  --     10.3071                 5.7443                 5.6212
 IR Inten    --     14.8119                20.8281                28.0873

                     43                     44                     45
                      A                      A                      A
 Frequencies --   3071.0600              3096.5409              3105.7527
 Red. masses --      1.0962                 1.0942                 1.0954
 Frc consts  --      6.0915                 6.1816                 6.2254
 IR Inten    --      1.1195                 2.7868                63.9341

                     46                     47                     48
                      A                      A                      A
 Frequencies --   3109.1481              3114.0478              3125.0146
 Red. masses --      1.1012                 1.0535                 1.0885
 Frc consts  --      6.2719                 6.0189                 6.2631
 IR Inten    --     33.2668                12.0376                26.8886

                     49                     50                     51
                      A                      A                      A
 Frequencies --   3205.2152              3477.9915              3739.5541
 Red. masses --      1.1166                 1.0757                 1.0660
 Frc consts  --      6.7586                 7.6668                 8.7832
 IR Inten    --      7.4557                 0.6436                35.6110

 - Thermochemistry -
 -------------------
 Temperature   298.150 Kelvin.  Pressure   1.00000 Atm.
 Atom     1 has atomic number  6 and mass  12.00000

 Molecular mass:   113.08406 amu.
 Principal axes and moments of inertia in atomic units:
                           1         2         3
     Eigenvalues --   520.706421402.547911465.57709
           X            0.99956   0.02736   0.01169
           Y           -0.02705   0.99930  -0.02566
           Z           -0.01238   0.02533   0.99960
 This molecule is an asymmetric top.
 Rotational symmetry number  1.
 Warning -- assumption of classical behavior for rotation
           may cause significant error
 Rotational temperatures (Kelvin)      0.16634     0.06175     0.05910
 Rotational constants (GHZ):           3.46595     1.28676     1.23142
 Zero-point vibrational energy     431508.4 (Joules/Mol)
                                  103.13298 (Kcal/Mol)
 Warning -- explicit consideration of  11 degrees of freedom as
           vibrations may cause significant error
 Vibrational temperatures:     99.36   174.52   210.30   262.12   339.87
          (Kelvin)            424.79   524.36   617.42   628.92   697.78
                              767.34   951.65  1109.74  1163.24  1187.04
                             1303.92  1306.64  1376.15  1413.92  1470.11
                             1483.20  1515.24  1564.79  1582.06  1621.06
                             1660.62  1687.76  1754.36  1814.69  1861.08
                             1913.04  1932.43  1978.66  2026.55  2032.90
                             2087.20  2136.58  2157.29  2168.34  2279.53
                             4358.25  4363.97  4418.57  4455.23  4468.49
                             4473.37  4480.42  4496.20  4611.59  5004.05
                             5380.38

 Zero-point correction=                           0.164353 (Hartree/Particle)
 Thermal correction to Energy=                    0.173053
 Thermal correction to Enthalpy=                  0.173997
 Thermal correction to Gibbs Free Energy=         0.131033
 Sum of electronic and zero-point Energies=           -365.009828
 Sum of electronic and thermal Energies=              -365.001128
 Sum of electronic and thermal Enthalpies=            -365.000184
 Sum of electronic and thermal Free Energies=         -365.043147

                     E (Thermal)             CV                S
                      KCal/Mol        Cal/Mol-Kelvin    Cal/Mol-Kelvin
 Total                  108.592             32.334             90.425
 Electronic               0.000              0.000              0.000
 Translational            0.889              2.981             40.085
 Rotational               0.889              2.981             28.461
 Vibrational            106.815             26.372             21.879
 Vibration     1          0.598              1.969              4.180
 Vibration     2          0.609              1.931              3.080
 Vibration     3          0.617              1.907              2.722
 Vibration     4          0.630              1.864              2.306
 Vibration     5          0.655              1.785              1.831
 Vibration     6          0.689              1.683              1.444
 Vibration     7          0.738              1.545              1.103
 Vibration     8          0.790              1.407              0.862
 Vibration     9          0.797              1.389              0.836
 Vibration    10          0.841              1.283              0.697
 Vibration    11          0.888              1.176              0.580

                           ! Non-Optimized Parameters !
 Normal termination of Gaussian 16 at Wed Aug  3 03:02:16 2022.
