 Gaussian 16, Revision A.03,
 Gaussian 16:  ES64L-G16RevA.03 25-Dec-2016

 -----------------------------
 # opt freq b3lyp/6-31g(2df,p)
 -----------------------------

 -------------------
 Title Card Required
 -------------------
 Symbolic Z-matrix:
 Charge =  0 Multiplicity = 1

 SCF Done:  E(RB3LYP) =  -368.561705807     A.U. after   12 cycles
 SCF Done:  E(RB3LYP) =  -368.584199216     A.U. after   10 cycles
 SCF Done:  E(RB3LYP) =  -368.590601295     A.U. after   10 cycles
 SCF Done:  E(RB3LYP) =  -368.591484646     A.U. after   10 cycles
 SCF Done:  E(RB3LYP) =  -368.591689326     A.U. after   10 cycles
 SCF Done:  E(RB3LYP) =  -368.591748831     A.U. after    9 cycles
 SCF Done:  E(RB3LYP) =  -368.591774124     A.U. after    9 cycles
 SCF Done:  E(RB3LYP) =  -368.591779794     A.U. after    8 cycles
 SCF Done:  E(RB3LYP) =  -368.591780742     A.U. after    8 cycles
 SCF Done:  E(RB3LYP) =  -368.591780903     A.U. after    6 cycles
 Optimization completed.
    -- Stationary point found.
 Normal termination of Gaussian 16 at Wed Aug  3 23:51:06 2022.

 ----------------------------------------------------------------------
 #N Geom=AllCheck Guess=TCheck SCRF=Check GenChk RB3LYP/6-31G(2df,p) Fr
 eq
 ----------------------------------------------------------------------

 Structure from the checkpoint file:  "CCC1NC2CCCC12.chk"
 -------------------
 Title Card Required
 -------------------
 Charge =  0 Multiplicity = 1

                         Standard orientation:
 ---------------------------------------------------------------------
 Center     Atomic      Atomic             Coordinates (Angstroms)
 Number     Number       Type             X           Y           Z
 ---------------------------------------------------------------------
      1          6           0        2.756787    0.450128    1.052144
      2          6           0        2.444602    0.294980   -0.440267
      3          6           0        1.028998   -0.143201   -0.798769
      4          7           0        0.562889   -1.514148   -0.306912
      5          6           0       -0.822168   -0.900119   -0.278279
      6          6           0       -2.020605   -0.876844    0.657749
      7          6           0       -2.569508    0.574779    0.320149
      8          6           0       -1.426971    1.390589   -0.427443
      9          6           0       -0.238441    0.481265   -0.135706
     10          1           0        3.804312    0.732992    1.193242
     11          1           0        2.598058   -0.481133    1.606802
     12          1           0        2.141958    1.225756    1.519196
     13          1           0        3.138462   -0.431962   -0.881560
     14          1           0        2.638237    1.247904   -0.949424
     15          1           0        0.931291   -0.157635   -1.891220
     16          1           0        0.884048   -1.607919    0.658286
     17          1           0       -1.202782   -1.030413   -1.302458
     18          1           0       -1.714822   -0.938431    1.707744
     19          1           0       -2.774861   -1.647635    0.479327
     20          1           0       -2.871872    1.087606    1.236752
     21          1           0       -3.460763    0.506973   -0.309006
     22          1           0       -1.343854    2.411077   -0.044739
     23          1           0       -1.640684    1.451677   -1.499470
     24          1           0        0.016886    0.600719    0.927444
 ---------------------------------------------------------------------

 SCF Done:  E(RB3LYP) =  -368.591780903     A.U. after    1 cycles

 The electronic state is 1-A.
 Alpha  occ. eigenvalues --  -14.30616 -10.21005 -10.19432 -10.18419 -10.18161
 Alpha  occ. eigenvalues --  -10.18152 -10.18107 -10.17679 -10.17175  -0.92196
 Alpha  occ. eigenvalues --   -0.80788  -0.76702  -0.70869  -0.67306  -0.65895
 Alpha  occ. eigenvalues --   -0.58781  -0.57096  -0.54580  -0.47143  -0.45824
 Alpha  occ. eigenvalues --   -0.44622  -0.43973  -0.42317  -0.40385  -0.39516
 Alpha  occ. eigenvalues --   -0.37729  -0.35480  -0.35143  -0.33888  -0.33721
 Alpha  occ. eigenvalues --   -0.32126  -0.31448  -0.30969  -0.27428  -0.21625
 Alpha virt. eigenvalues --    0.08048   0.08840   0.09512   0.10421   0.12554
 Alpha virt. eigenvalues --    0.13781   0.14308   0.15084   0.15256   0.16289
 Alpha virt. eigenvalues --    0.17093   0.17799   0.19189   0.19985   0.20445

 Mulliken charges:
               1
     1  C   -0.388963
     2  C   -0.213423
     3  C   -0.013400
     4  N   -0.395022
     5  C    0.119149
     6  C   -0.285334
     7  C   -0.189233
     8  C   -0.293758
     9  C    0.064903
    10  H    0.116143
    11  H    0.115104
    12  H    0.121171
    13  H    0.109308
    14  H    0.101774
    15  H    0.079903
    16  H    0.208035
    17  H    0.079361
    18  H    0.095647
    19  H    0.096821
    20  H    0.104659
    21  H    0.106169
    22  H    0.092872
    23  H    0.099944
    24  H    0.068170
 Sum of Mulliken charges =  -0.00000

 Dipole moment (field-independent basis, Debye):
    X=             -0.1838    Y=              1.3668    Z=              0.7693  Tot=              1.5792
 Quadrupole moment (field-independent basis, Debye-Ang):
   XX=            -54.9630   YY=            -61.3051   ZZ=            -56.0938
   XY=              1.3246   XZ=              0.8426   YZ=             -1.9743

  Exact polarizability: 107.085  -0.214  81.707  -0.827  -1.036  80.799
 Approx polarizability: 134.736  -1.216 123.015  -0.124  -0.438 124.713

                      1                      2                      3
                      A                      A                      A
 Frequencies --     69.8264               112.4388               150.5296
 Red. masses --      2.0023                 2.4643                 1.8572
 Frc consts  --      0.0058                 0.0184                 0.0248
 IR Inten    --      0.1194                 0.2288                 0.4856

                      4                      5                      6
                      A                      A                      A
 Frequencies --    189.9507               261.6108               281.1746
 Red. masses --      1.6818                 1.5331                 2.7771
 Frc consts  --      0.0358                 0.0618                 0.1294
 IR Inten    --      0.3582                 0.7486                 1.8203

                      7                      8                      9
                      A                      A                      A
 Frequencies --    310.4598               445.0829               472.9251
 Red. masses --      2.3143                 3.0915                 2.6350
 Frc consts  --      0.1314                 0.3608                 0.3472
 IR Inten    --      0.2904                 0.5267                 2.4054

                     10                     11                     12
                      A                      A                      A
 Frequencies --    526.5428               621.1208               652.5698
 Red. masses --      2.7138                 3.4860                 2.3630
 Frc consts  --      0.4433                 0.7924                 0.5929
 IR Inten    --      0.4616                 0.4603                 3.7471

                     13                     14                     15
                      A                      A                      A
 Frequencies --    747.9572               759.2236               817.1633
 Red. masses --      1.5655                 1.2700                 2.8162
 Frc consts  --      0.5160                 0.4313                 1.1080
 IR Inten    --      4.3139                 1.1248                20.7766

                     16                     17                     18
                      A                      A                      A
 Frequencies --    828.2154               862.8901               878.0284
 Red. masses --      2.9254                 2.4386                 2.9020
 Frc consts  --      1.1823                 1.0698                 1.3181
 IR Inten    --      4.2076                 4.4536                37.3057

                     19                     20                     21
                      A                      A                      A
 Frequencies --    916.7893               928.8425               963.3807
 Red. masses --      1.5625                 2.6345                 1.9064
 Frc consts  --      0.7737                 1.3392                 1.0424
 IR Inten    --      4.1946                 8.5010                 5.3094

                     22                     23                     24
                      A                      A                      A
 Frequencies --   1000.5655              1022.0206              1057.5545
 Red. masses --      1.4770                 1.4576                 1.7341
 Frc consts  --      0.8712                 0.8970                 1.1427
 IR Inten    --      8.9717                23.1513                 4.2851

                     25                     26                     27
                      A                      A                      A
 Frequencies --   1068.2077              1106.1092              1117.5735
 Red. masses --      1.6957                 2.4685                 2.6411
 Frc consts  --      1.1400                 1.7795                 1.9435
 IR Inten    --      1.5039                 4.0714                 4.8264

                     28                     29                     30
                      A                      A                      A
 Frequencies --   1127.8978              1162.0336              1180.3206
 Red. masses --      1.5677                 1.7742                 1.6520
 Frc consts  --      1.1751                 1.4115                 1.3560
 IR Inten    --      1.6746                 2.3564                 2.5174

                     31                     32                     33
                      A                      A                      A
 Frequencies --   1197.5828              1216.4534              1241.9291
 Red. masses --      1.3637                 1.9753                 1.3453
 Frc consts  --      1.1523                 1.7221                 1.2226
 IR Inten    --      2.6374                 3.6720                 2.3419

                     34                     35                     36
                      A                      A                      A
 Frequencies --   1253.8735              1282.9529              1295.0697
 Red. masses --      1.1717                 1.1953                 1.4006
 Frc consts  --      1.0854                 1.1592                 1.3840
 IR Inten    --      1.8841                 3.1160                 0.0716

                     37                     38                     39
                      A                      A                      A
 Frequencies --   1307.5393              1314.4626              1318.0910
 Red. masses --      1.2810                 1.3778                 1.2441
 Frc consts  --      1.2903                 1.4026                 1.2735
 IR Inten    --      1.0571                 0.1152                 1.3758

                     40                     41                     42
                      A                      A                      A
 Frequencies --   1336.5444              1370.2427              1390.2232
 Red. masses --      1.4734                 1.4244                 1.2565
 Frc consts  --      1.5507                 1.5757                 1.4308
 IR Inten    --      0.9081                 1.7999                16.9794

                     43                     44                     45
                      A                      A                      A
 Frequencies --   1413.9576              1431.1360              1436.5264
 Red. masses --      1.2576                 1.2767                 1.3990
 Frc consts  --      1.4814                 1.5406                 1.7010
 IR Inten    --     12.7338                18.5456                 5.3580

                     46                     47                     48
                      A                      A                      A
 Frequencies --   1474.0894              1484.6953              1500.0183
 Red. masses --      1.0771                 1.0823                 1.0940
 Frc consts  --      1.3790                 1.4057                 1.4503
 IR Inten    --      2.3780                 0.3703                 2.1164

                     49                     50                     51
                      A                      A                      A
 Frequencies --   1502.0929              1505.1394              1511.1334
 Red. masses --      1.0510                 1.0488                 1.1085
 Frc consts  --      1.3972                 1.4000                 1.4914
 IR Inten    --      6.2830                 6.4763                 0.3003

                     52                     53                     54
                      A                      A                      A
 Frequencies --   2984.1632              2997.7022              3016.7092
 Red. masses --      1.0797                 1.0820                 1.0648
 Frc consts  --      5.6650                 5.7286                 5.7096
 IR Inten    --      5.7388                21.3747                13.5025

                     55                     56                     57
                      A                      A                      A
 Frequencies --   3034.8799              3035.4842              3043.8947
 Red. masses --      1.0803                 1.0368                 1.0607
 Frc consts  --      5.8622                 5.6285                 5.7904
 IR Inten    --     48.9009                22.3705                18.7768

                     58                     59                     60
                      A                      A                      A
 Frequencies --   3048.1686              3052.9036              3064.8499
 Red. masses --      1.0607                 1.1010                 1.0618
 Frc consts  --      5.8064                 6.0459                 5.8763
 IR Inten    --     63.9080                15.3639                43.4162

                     61                     62                     63
                      A                      A                      A
 Frequencies --   3086.7155              3095.6499              3099.2775
 Red. masses --      1.1041                 1.1039                 1.1003
 Frc consts  --      6.1982                 6.2329                 6.2270
 IR Inten    --     17.6965                17.1959                35.9866

                     64                     65                     66
                      A                      A                      A
 Frequencies --   3107.1044              3114.1886              3443.0834
 Red. masses --      1.1013                 1.1061                 1.0728
 Frc consts  --      6.2645                 6.3205                 7.4933
 IR Inten    --     36.3620                65.6490                 2.7421

 - Thermochemistry -
 -------------------
 Temperature   298.150 Kelvin.  Pressure   1.00000 Atm.
 Atom     1 has atomic number  6 and mass  12.00000

 Molecular mass:   125.12045 amu.
 Principal axes and moments of inertia in atomic units:
                           1         2         3
     Eigenvalues --   577.955571711.408141889.37373
           X            0.99996   0.00487   0.00775
           Y           -0.00469   0.99974  -0.02234
           Z           -0.00785   0.02230   0.99972
 This molecule is an asymmetric top.
 Rotational symmetry number  1.
 Warning -- assumption of classical behavior for rotation
           may cause significant error
 Rotational temperatures (Kelvin)      0.14986     0.05061     0.04584
 Rotational constants (GHZ):           3.12263     1.05454     0.95521
 Zero-point vibrational energy     578080.6 (Joules/Mol)
                                  138.16459 (Kcal/Mol)
 Warning -- explicit consideration of  10 degrees of freedom as
           vibrations may cause significant error
 Vibrational temperatures:    100.46   161.77   216.58   273.30   376.40
          (Kelvin)            404.55   446.68   640.38   680.43   757.58
                              893.65   938.90  1076.14  1092.35  1175.72
                             1191.62  1241.51  1263.29  1319.06  1336.40
                             1386.09  1439.59  1470.46  1521.59  1536.91
                             1591.44  1607.94  1622.79  1671.91  1698.22
                             1723.05  1750.21  1786.86  1804.04  1845.88
                             1863.32  1881.26  1891.22  1896.44  1922.99
                             1971.47  2000.22  2034.37  2059.09  2066.84
                             2120.89  2136.15  2158.19  2161.18  2165.56
                             2174.18  4293.55  4313.02  4340.37  4366.52
                             4367.38  4379.49  4385.63  4392.45  4409.64
                             4441.10  4453.95  4459.17  4470.43  4480.62
                             4953.83

 Zero-point correction=                           0.220179 (Hartree/Particle)
 Thermal correction to Energy=                    0.229077
 Thermal correction to Enthalpy=                  0.230022
 Thermal correction to Gibbs Free Energy=         0.186430
 Sum of electronic and zero-point Energies=           -368.371602
 Sum of electronic and thermal Energies=              -368.362704
 Sum of electronic and thermal Enthalpies=            -368.361759
 Sum of electronic and thermal Free Energies=         -368.405351

                     E (Thermal)             CV                S
                      KCal/Mol        Cal/Mol-Kelvin    Cal/Mol-Kelvin
 Total                  143.748             34.837             91.746
 Electronic               0.000              0.000              0.000
 Translational            0.889              2.981             40.386
 Rotational               0.889              2.981             29.015
 Vibrational            141.971             28.875             22.345
 Vibration     1          0.598              1.969              4.158
 Vibration     2          0.607              1.939              3.226
 Vibration     3          0.618              1.902              2.666
 Vibration     4          0.633              1.854              2.228
 Vibration     5          0.669              1.743              1.651
 Vibration     6          0.681              1.708              1.527
 Vibration     7          0.699              1.654              1.360
 Vibration     8          0.804              1.372              0.811
 Vibration     9          0.830              1.310              0.729
 Vibration    10          0.881              1.191              0.595

 Optimization completed.
    -- Stationary point found.
 Normal termination of Gaussian 16 at Thu Aug  4 00:30:33 2022.
