 Gaussian 16, Revision A.03,
 Gaussian 16:  ES64L-G16RevA.03 25-Dec-2016

 -----------------------------
 # opt freq b3lyp/6-31g(2df,p)
 -----------------------------

 -------------------
 Title Card Required
 -------------------
 Symbolic Z-matrix:
 Charge =  0 Multiplicity = 1

 SCF Done:  E(RB3LYP) =  -351.331633682     A.U. after   13 cycles
 SCF Done:  E(RB3LYP) =  -351.360388007     A.U. after   12 cycles
 SCF Done:  E(RB3LYP) =  -351.376830568     A.U. after   11 cycles
 SCF Done:  E(RB3LYP) =  -351.385157216     A.U. after   11 cycles
 SCF Done:  E(RB3LYP) =  -351.387730124     A.U. after   10 cycles
 SCF Done:  E(RB3LYP) =  -351.388359099     A.U. after   10 cycles
 SCF Done:  E(RB3LYP) =  -351.388519139     A.U. after   10 cycles
 SCF Done:  E(RB3LYP) =  -351.388535306     A.U. after    8 cycles
 SCF Done:  E(RB3LYP) =  -351.388537115     A.U. after    7 cycles
 SCF Done:  E(RB3LYP) =  -351.388537455     A.U. after    7 cycles
 SCF Done:  E(RB3LYP) =  -351.388537566     A.U. after    5 cycles
 Optimization completed.
    -- Stationary point found.
 Normal termination of Gaussian 16 at Thu Aug  4 04:31:30 2022.

 ----------------------------------------------------------------------
 #N Geom=AllCheck Guess=TCheck SCRF=Check GenChk RB3LYP/6-31G(2df,p) Fr
 eq
 ----------------------------------------------------------------------

 Structure from the checkpoint file:  "CCC1dCC2CCC1C2.chk"
 -------------------
 Title Card Required
 -------------------
 Charge =  0 Multiplicity = 1

                         Standard orientation:
 ---------------------------------------------------------------------
 Center     Atomic      Atomic             Coordinates (Angstroms)
 Number     Number       Type             X           Y           Z
 ---------------------------------------------------------------------
      1          6           0        3.095291   -0.144340    0.378610
      2          6           0        2.046203    0.033656   -0.733504
      3          6           0        0.660397    0.254651   -0.212278
      4          6           0       -0.142889    1.314665   -0.373287
      5          6           0       -1.497638    0.981418    0.230622
      6          6           0       -2.150179   -0.086319   -0.712031
      7          6           0       -1.219171   -1.323572   -0.520647
      8          6           0       -0.163173   -0.808444    0.515660
      9          6           0       -1.054834    0.082628    1.408935
     10          1           0        4.088772   -0.319097   -0.046110
     11          1           0        2.853808   -0.995463    1.023298
     12          1           0        3.146577    0.747654    1.010653
     13          1           0        2.057714   -0.860740   -1.373496
     14          1           0        2.332475    0.875526   -1.374657
     15          1           0        0.074897    2.210302   -0.944236
     16          1           0       -2.144074    1.828544    0.463642
     17          1           0       -2.191965    0.258028   -1.747960
     18          1           0       -3.174376   -0.307277   -0.394873
     19          1           0       -0.749986   -1.651551   -1.451787
     20          1           0       -1.770733   -2.176362   -0.112813
     21          1           0        0.402247   -1.602468    1.006111
     22          1           0       -0.487950    0.626899    2.168342
     23          1           0       -1.881454   -0.460051    1.881397
 ---------------------------------------------------------------------

 SCF Done:  E(RB3LYP) =  -351.388537566     A.U. after    1 cycles

 The electronic state is 1-A.
 Alpha  occ. eigenvalues --  -10.18170 -10.18009 -10.17986 -10.17400 -10.17273
 Alpha  occ. eigenvalues --  -10.17253 -10.17163 -10.17116 -10.16197  -0.87116
 Alpha  occ. eigenvalues --   -0.77566  -0.72282  -0.70215  -0.68494  -0.61706
 Alpha  occ. eigenvalues --   -0.56759  -0.54776  -0.50425  -0.48576  -0.46333
 Alpha  occ. eigenvalues --   -0.43699  -0.42735  -0.41346  -0.37735  -0.36699
 Alpha  occ. eigenvalues --   -0.35530  -0.35187  -0.33981  -0.33421  -0.32322
 Alpha  occ. eigenvalues --   -0.31613  -0.31434  -0.29067  -0.22152
 Alpha virt. eigenvalues --    0.02952   0.09014   0.11091   0.12452   0.13497
 Alpha virt. eigenvalues --    0.14144   0.14866   0.16008   0.16834   0.17109
 Alpha virt. eigenvalues --    0.17688   0.18564   0.18812   0.19701   0.20507

 Mulliken charges:
               1
     1  C   -0.371451
     2  C   -0.312128
     3  C    0.371842
     4  C   -0.209894
     5  C   -0.045814
     6  C   -0.196461
     7  C   -0.205761
     8  C   -0.102784
     9  C   -0.209234
    10  H    0.110568
    11  H    0.118862
    12  H    0.119556
    13  H    0.101065
    14  H    0.099639
    15  H    0.081599
    16  H    0.053077
    17  H    0.093990
    18  H    0.091522
    19  H    0.094572
    20  H    0.092042
    21  H    0.052059
    22  H    0.090997
    23  H    0.082140
 Sum of Mulliken charges =  -0.00000

 Dipole moment (field-independent basis, Debye):
    X=              0.1086    Y=             -0.2239    Z=             -0.1136  Tot=              0.2735
 Quadrupole moment (field-independent basis, Debye-Ang):
   XX=            -55.5825   YY=            -55.7969   ZZ=            -56.6151
   XY=             -0.2572   XZ=             -0.8581   YZ=             -0.6842

  Exact polarizability: 105.919  -3.563  87.017  -1.292  -2.234  78.869
 Approx polarizability: 140.824 -10.598 139.060  -1.940  -4.923 117.804

                      1                      2                      3
                      A                      A                      A
 Frequencies --     71.1367               124.1262               195.6659
 Red. masses --      2.3278                 2.6222                 1.3807
 Frc consts  --      0.0069                 0.0238                 0.0311
 IR Inten    --      0.0322                 0.4441                 0.0835

                      4                      5                      6
                      A                      A                      A
 Frequencies --    244.0825               261.8243               373.0060
 Red. masses --      2.0318                 1.6598                 2.2434
 Frc consts  --      0.0713                 0.0670                 0.1839
 IR Inten    --      0.0142                 0.2196                 0.7967

                      7                      8                      9
                      A                      A                      A
 Frequencies --    427.8944               472.9706               572.2150
 Red. masses --      2.3627                 2.0066                 3.2444
 Frc consts  --      0.2549                 0.2645                 0.6259
 IR Inten    --      0.0828                 0.1359                 0.8031

                     10                     11                     12
                      A                      A                      A
 Frequencies --    604.5276               714.9320               784.2390
 Red. masses --      3.7767                 2.9606                 2.0353
 Frc consts  --      0.8132                 0.8916                 0.7375
 IR Inten    --      3.3520                 2.7965                 2.3946

                     13                     14                     15
                      A                      A                      A
 Frequencies --    789.3103               819.4340               841.9051
 Red. masses --      1.5712                 1.5482                 1.8671
 Frc consts  --      0.5767                 0.6125                 0.7797
 IR Inten    --      0.8452                 0.3870                10.5381

                     16                     17                     18
                      A                      A                      A
 Frequencies --    848.7320               860.5787               887.7802
 Red. masses --      2.2966                 2.5087                 2.1521
 Frc consts  --      0.9747                 1.0946                 0.9994
 IR Inten    --      3.2452                 0.6522                 7.1052

                     19                     20                     21
                      A                      A                      A
 Frequencies --    928.0980               945.7788               952.4292
 Red. masses --      2.5889                 2.4632                 2.0284
 Frc consts  --      1.3139                 1.2981                 1.0841
 IR Inten    --      1.2456                 1.4270                 1.6867

                     22                     23                     24
                      A                      A                      A
 Frequencies --    965.9731               974.1330              1039.4296
 Red. masses --      1.7531                 2.2053                 1.5745
 Frc consts  --      0.9638                 1.2330                 1.0022
 IR Inten    --      0.9027                 0.0858                 0.7678

                     25                     26                     27
                      A                      A                      A
 Frequencies --   1047.2724              1064.3678              1089.1762
 Red. masses --      1.5860                 1.8067                 1.6142
 Frc consts  --      1.0249                 1.2059                 1.1283
 IR Inten    --      3.0271                 1.0784                 0.5515

                     28                     29                     30
                      A                      A                      A
 Frequencies --   1132.3678              1141.2945              1160.9484
 Red. masses --      1.1463                 1.1330                 1.7753
 Frc consts  --      0.8660                 0.8695                 1.4098
 IR Inten    --      1.2193                 3.7433                 0.5662

                     31                     32                     33
                      A                      A                      A
 Frequencies --   1190.2108              1224.6366              1239.7424
 Red. masses --      1.3975                 2.0776                 1.1911
 Frc consts  --      1.1664                 1.8358                 1.0786
 IR Inten    --      0.2523                 0.6686                 0.5101

                     34                     35                     36
                      A                      A                      A
 Frequencies --   1249.6168              1282.8919              1293.3720
 Red. masses --      1.4190                 1.3348                 1.2532
 Frc consts  --      1.3055                 1.2944                 1.2352
 IR Inten    --      0.1475                 0.6223                 0.3041

                     37                     38                     39
                      A                      A                      A
 Frequencies --   1306.3172              1309.4827              1332.2160
 Red. masses --      1.5402                 1.6529                 1.4741
 Frc consts  --      1.5486                 1.6699                 1.5414
 IR Inten    --      0.7477                 1.7693                 1.0165

                     40                     41                     42
                      A                      A                      A
 Frequencies --   1353.1449              1362.5827              1406.5976
 Red. masses --      1.5794                 1.7754                 1.2229
 Frc consts  --      1.7039                 1.9421                 1.4256
 IR Inten    --      7.3435                 6.4512                 1.2640

                     43                     44                     45
                      A                      A                      A
 Frequencies --   1476.5354              1489.2498              1489.5728
 Red. masses --      1.0738                 1.1061                 1.0796
 Frc consts  --      1.3793                 1.4454                 1.4114
 IR Inten    --      1.8813                 2.4203                 0.2311

                     46                     47                     48
                      A                      A                      A
 Frequencies --   1497.5972              1506.1327              1512.3795
 Red. masses --      1.0405                 1.0649                 1.1054
 Frc consts  --      1.3749                 1.4233                 1.4897
 IR Inten    --      5.1549                 1.9131                 0.3912

                     49                     50                     51
                      A                      A                      A
 Frequencies --   1687.9538              2999.7432              3035.1262
 Red. masses --      7.1528                 1.0655                 1.0345
 Frc consts  --     12.0074                 5.6490                 5.6148
 IR Inten    --      2.4099                26.9744                28.6678

                     52                     53                     54
                      A                      A                      A
 Frequencies --   3039.7200              3043.7631              3053.4790
 Red. masses --      1.0610                 1.0617                 1.0947
 Frc consts  --      5.7762                 5.7953                 6.0137
 IR Inten    --     40.1334                25.9176                17.5697

                     55                     56                     57
                      A                      A                      A
 Frequencies --   3055.9171              3086.9999              3096.7210
 Red. masses --      1.0618                 1.1030                 1.0888
 Frc consts  --      5.8423                 6.1930                 6.1518
 IR Inten    --     58.2283                 5.2774                43.6825

                     58                     59                     60
                      A                      A                      A
 Frequencies --   3101.3982              3104.8752              3106.0088
 Red. masses --      1.0956                 1.0986                 1.1000
 Frc consts  --      6.2087                 6.2400                 6.2521
 IR Inten    --     37.0897                15.0863                86.9230

                     61                     62                     63
                      A                      A                      A
 Frequencies --   3107.7515              3109.0474              3190.3754
 Red. masses --      1.1030                 1.1020                 1.0950
 Frc consts  --      6.2762                 6.2760                 6.5665
 IR Inten    --     25.2655                37.9225                16.0559

 - Thermochemistry -
 -------------------
 Temperature   298.150 Kelvin.  Pressure   1.00000 Atm.
 Atom     1 has atomic number  6 and mass  12.00000

 Molecular mass:   122.10955 amu.
 Principal axes and moments of inertia in atomic units:
                           1         2         3
     Eigenvalues --   549.191231520.339351576.19614
           X            0.99999   0.00045   0.00343
           Y           -0.00038   0.99980  -0.01999
           Z           -0.00344   0.01999   0.99979
 This molecule is an asymmetric top.
 Rotational symmetry number  1.
 Warning -- assumption of classical behavior for rotation
           may cause significant error
 Rotational temperatures (Kelvin)      0.15771     0.05697     0.05495
 Rotational constants (GHZ):           3.28618     1.18706     1.14500
 Zero-point vibrational energy     548349.0 (Joules/Mol)
                                  131.05855 (Kcal/Mol)
 Warning -- explicit consideration of  10 degrees of freedom as
           vibrations may cause significant error
 Vibrational temperatures:    102.35   178.59   281.52   351.18   376.71
          (Kelvin)            536.67   615.64   680.50   823.29   869.78
                             1028.63  1128.34  1135.64  1178.98  1211.31
                             1221.14  1238.18  1277.32  1335.33  1360.76
                             1370.33  1389.82  1401.56  1495.51  1506.79
                             1531.39  1567.08  1629.22  1642.07  1670.35
                             1712.45  1761.98  1783.71  1797.92  1845.80
                             1860.87  1879.50  1884.05  1916.76  1946.87
                             1960.45  2023.78  2124.41  2142.70  2143.16
                             2154.71  2166.99  2175.98  2428.59  4315.96
                             4366.87  4373.48  4379.30  4393.28  4396.78
                             4441.50  4455.49  4462.22  4467.22  4468.85
                             4471.36  4473.23  4590.24

 Zero-point correction=                           0.208855 (Hartree/Particle)
 Thermal correction to Energy=                    0.217069
 Thermal correction to Enthalpy=                  0.218013
 Thermal correction to Gibbs Free Energy=         0.176036
 Sum of electronic and zero-point Energies=           -351.179682
 Sum of electronic and thermal Energies=              -351.171469
 Sum of electronic and thermal Enthalpies=            -351.170525
 Sum of electronic and thermal Free Energies=         -351.212502

                     E (Thermal)             CV                S
                      KCal/Mol        Cal/Mol-Kelvin    Cal/Mol-Kelvin
 Total                  136.213             33.062             88.348
 Electronic               0.000              0.000              0.000
 Translational            0.889              2.981             40.313
 Rotational               0.889              2.981             28.666
 Vibrational            134.435             27.101             19.368
 Vibration     1          0.598              1.968              4.122
 Vibration     2          0.610              1.929              3.035
 Vibration     3          0.636              1.846              2.173
 Vibration     4          0.659              1.773              1.773
 Vibration     5          0.669              1.743              1.650
 Vibration     6          0.744              1.528              1.067
 Vibration     7          0.789              1.410              0.866
 Vibration     8          0.830              1.310              0.729
 Vibration     9          0.928              1.091              0.500
 Vibration    10          0.963              1.022              0.442

 Optimization completed.
    -- Stationary point found.
 Normal termination of Gaussian 16 at Thu Aug  4 05:17:20 2022.
