 Gaussian 16, Revision A.03,
 Gaussian 16:  ES64L-G16RevA.03 25-Dec-2016

 -----------------------------
 # opt freq b3lyp/6-31g(2df,p)
 -----------------------------

 -------------------
 Title Card Required
 -------------------
 Symbolic Z-matrix:
 Charge =  0 Multiplicity = 1

 SCF Done:  E(RB3LYP) =  -424.406803195     A.U. after   13 cycles
 SCF Done:  E(RB3LYP) =  -424.414843746     A.U. after   12 cycles
 SCF Done:  E(RB3LYP) =  -424.417095375     A.U. after   11 cycles
 SCF Done:  E(RB3LYP) =  -424.418560056     A.U. after   11 cycles
 SCF Done:  E(RB3LYP) =  -424.418994086     A.U. after   11 cycles
 SCF Done:  E(RB3LYP) =  -424.419058102     A.U. after   10 cycles
 SCF Done:  E(RB3LYP) =  -424.419066226     A.U. after    9 cycles
 SCF Done:  E(RB3LYP) =  -424.419067434     A.U. after    8 cycles
 SCF Done:  E(RB3LYP) =  -424.419067628     A.U. after    7 cycles
 Optimization completed.
    -- Stationary point found.
 Normal termination of Gaussian 16 at Thu Aug  4 03:58:57 2022.

 ----------------------------------------------------------------------
 #N Geom=AllCheck Guess=TCheck SCRF=Check GenChk RB3LYP/6-31G(2df,p) Fr
 eq
 ----------------------------------------------------------------------

 Structure from the checkpoint file:  "CCC1OCpCCpC1dO.chk"
 -------------------
 Title Card Required
 -------------------
 Charge =  0 Multiplicity = 1

                         Standard orientation:
 ---------------------------------------------------------------------
 Center     Atomic      Atomic             Coordinates (Angstroms)
 Number     Number       Type             X           Y           Z
 ---------------------------------------------------------------------
      1          6           0       -3.287479    0.519282    0.107425
      2          6           0       -2.298669   -0.557829   -0.350931
      3          6           0       -0.981054   -0.481431    0.412435
      4          8           0       -0.000021   -1.466486   -0.000257
      5          6           0        0.981203   -0.481521   -0.412687
      6          6           0        2.298536   -0.557963    0.351112
      7          6           0        3.287377    0.519377   -0.106716
      8          6           0        0.000070    0.624140   -0.000226
      9          8           0        0.000050    1.819568   -0.000364
     10          1           0       -4.216212    0.463250   -0.467053
     11          1           0       -2.865971    1.520461   -0.022587
     12          1           0       -3.541692    0.399229    1.166119
     13          1           0       -2.095850   -0.460907   -1.423962
     14          1           0       -2.717337   -1.559739   -0.200453
     15          1           0       -1.160673   -0.526695    1.496775
     16          1           0        1.161137   -0.526821   -1.496960
     17          1           0        2.717519   -1.559727    0.200560
     18          1           0        2.095349   -0.461350    1.424108
     19          1           0        3.541710    0.399677   -1.165434
     20          1           0        4.216045    0.463127    0.467835
     21          1           0        2.865837    1.520503    0.023541
 ---------------------------------------------------------------------

 SCF Done:  E(RB3LYP) =  -424.419067628     A.U. after    1 cycles

 The electronic state is 1-A.
 Alpha  occ. eigenvalues --  -19.15273 -19.14313 -10.27679 -10.24059 -10.24058
 Alpha  occ. eigenvalues --  -10.19347 -10.19346 -10.18081 -10.18081  -1.06687
 Alpha  occ. eigenvalues --   -1.03962  -0.79735  -0.78088  -0.69941  -0.68979
 Alpha  occ. eigenvalues --   -0.62791  -0.60250  -0.52819  -0.49796  -0.48088
 Alpha  occ. eigenvalues --   -0.47090  -0.44483  -0.44423  -0.41422  -0.41069
 Alpha  occ. eigenvalues --   -0.38548  -0.38428  -0.36603  -0.35939  -0.35707
 Alpha  occ. eigenvalues --   -0.35211  -0.35064  -0.33352  -0.26112  -0.24819
 Alpha virt. eigenvalues --   -0.02950   0.07238   0.09328   0.10430   0.11906
 Alpha virt. eigenvalues --    0.14205   0.14357   0.15208   0.15550   0.16583
 Alpha virt. eigenvalues --    0.17237   0.18468   0.18650   0.18724   0.21373

 Mulliken charges:
               1
     1  C   -0.389636
     2  C   -0.206680
     3  C    0.032509
     4  O   -0.320904
     5  C    0.032495
     6  C   -0.206678
     7  C   -0.389631
     8  C    0.327928
     9  O   -0.290763
    10  H    0.119798
    11  H    0.143771
    12  H    0.118962
    13  H    0.105070
    14  H    0.114721
    15  H    0.103361
    16  H    0.103366
    17  H    0.114716
    18  H    0.105068
    19  H    0.118962
    20  H    0.119794
    21  H    0.143771
 Sum of Mulliken charges =  -0.00000

 Dipole moment (field-independent basis, Debye):
    X=              0.0001    Y=             -0.8310    Z=              0.0006  Tot=              0.8310
 Quadrupole moment (field-independent basis, Debye-Ang):
   XX=            -48.7714   YY=            -63.0143   ZZ=            -52.4908
   XY=             -0.0007   XZ=             -0.3430   YZ=              0.0003

  Exact polarizability:  99.540  -0.001  73.527  -2.530  -0.001  66.569
 Approx polarizability: 115.135  -0.001 119.028  -4.300  -0.002 101.660

                      1                      2                      3
                      A                      A                      A
 Frequencies --     49.4976                82.5273               113.7965
 Red. masses --      4.2464                 2.5687                 2.9903
 Frc consts  --      0.0061                 0.0103                 0.0228
 IR Inten    --      1.9573                 0.1981                 1.5921

                      4                      5                      6
                      A                      A                      A
 Frequencies --    141.2143               159.1551               229.7435
 Red. masses --      1.8118                 2.1717                 1.2952
 Frc consts  --      0.0213                 0.0324                 0.0403
 IR Inten    --      0.2884                 1.9760                 0.0391

                      7                      8                      9
                      A                      A                      A
 Frequencies --    246.6208               287.5078               300.8027
 Red. masses --      1.2792                 3.4575                 2.6982
 Frc consts  --      0.0458                 0.1684                 0.1438
 IR Inten    --      0.0739                 7.5129                 0.2027

                     10                     11                     12
                      A                      A                      A
 Frequencies --    336.2971               413.2241               518.5372
 Red. masses --      3.1829                 4.4561                 5.0749
 Frc consts  --      0.2121                 0.4483                 0.8040
 IR Inten    --      0.5944                 4.2528                15.6101

                     13                     14                     15
                      A                      A                      A
 Frequencies --    704.1396               706.2605               743.5202
 Red. masses --      3.4197                 2.2824                 3.2547
 Frc consts  --      0.9990                 0.6708                 1.0601
 IR Inten    --      0.0273                 0.8181                 0.0002

                     16                     17                     18
                      A                      A                      A
 Frequencies --    813.9239               820.1863               900.4300
 Red. masses --      1.4372                 1.3157                 1.6762
 Frc consts  --      0.5610                 0.5215                 0.8007
 IR Inten    --     12.5949                 1.6451                 7.3369

                     19                     20                     21
                      A                      A                      A
 Frequencies --    909.1391               999.7003               999.7172
 Red. masses --      2.0472                 3.3454                 3.4962
 Frc consts  --      0.9969                 1.9699                 2.0588
 IR Inten    --      5.2367                39.8951                45.1660

                     22                     23                     24
                      A                      A                      A
 Frequencies --   1013.8322              1031.5648              1073.3939
 Red. masses --      2.6798                 1.3211                 2.7745
 Frc consts  --      1.6229                 0.8283                 1.8834
 IR Inten    --    132.2854                 0.7729                 3.2275

                     25                     26                     27
                      A                      A                      A
 Frequencies --   1083.4861              1123.5268              1137.4802
 Red. masses --      2.2737                 1.9086                 2.2423
 Frc consts  --      1.5726                 1.4195                 1.7094
 IR Inten    --      5.8843                44.6099                 3.8177

                     28                     29                     30
                      A                      A                      A
 Frequencies --   1157.6156              1243.5336              1245.3080
 Red. masses --      2.3495                 1.5033                 1.5109
 Frc consts  --      1.8550                 1.3697                 1.3805
 IR Inten    --      1.0538                 0.2509                 5.3544

                     31                     32                     33
                      A                      A                      A
 Frequencies --   1276.7862              1293.0124              1332.3138
 Red. masses --      1.2354                 1.2890                 1.4336
 Frc consts  --      1.1866                 1.2697                 1.4993
 IR Inten    --      5.4179                 0.6713                 1.6359

                     34                     35                     36
                      A                      A                      A
 Frequencies --   1338.7895              1359.8595              1376.2953
 Red. masses --      1.4282                 1.3871                 1.4984
 Frc consts  --      1.5082                 1.5113                 1.6722
 IR Inten    --      0.8415                 0.6400                 3.5112

                     37                     38                     39
                      A                      A                      A
 Frequencies --   1414.6101              1414.8716              1489.8965
 Red. masses --      1.2244                 1.2250                 1.0611
 Frc consts  --      1.4435                 1.4448                 1.3877
 IR Inten    --      2.0874                 3.7552                 0.0462

                     40                     41                     42
                      A                      A                      A
 Frequencies --   1490.6536              1499.4745              1499.8203
 Red. masses --      1.0606                 1.0405                 1.0406
 Frc consts  --      1.3886                 1.3784                 1.3792
 IR Inten    --      1.7345                 3.9759                 6.9502

                     43                     44                     45
                      A                      A                      A
 Frequencies --   1510.6275              1510.7900              1905.6896
 Red. masses --      1.0697                 1.0693                12.7095
 Frc consts  --      1.4382                 1.4380                27.1945
 IR Inten    --      0.0175                 7.9222               193.3489

                     46                     47                     48
                      A                      A                      A
 Frequencies --   2997.0759              3002.7946              3033.2255
 Red. masses --      1.0827                 1.0820                 1.0584
 Frc consts  --      5.7299                 5.7483                 5.7372
 IR Inten    --     38.0794                 0.8314                15.1883

                     49                     50                     51
                      A                      A                      A
 Frequencies --   3033.3091              3038.8123              3038.8974
 Red. masses --      1.0581                 1.0372                 1.0369
 Frc consts  --      5.7363                 5.6433                 5.6416
 IR Inten    --     18.5817                39.8355                16.7936

                     52                     53                     54
                      A                      A                      A
 Frequencies --   3069.8278              3070.2025              3106.9349
 Red. masses --      1.1031                 1.1030                 1.1010
 Frc consts  --      6.1249                 6.1257                 6.2617
 IR Inten    --      6.2995                18.1027                 7.6712

                     55                     56                     57
                      A                      A                      A
 Frequencies --   3107.0990              3118.8170              3118.9655
 Red. masses --      1.1010                 1.1024                 1.1023
 Frc consts  --      6.2624                 6.3176                 6.3180
 IR Inten    --     58.1116                27.9256                14.2546

 - Thermochemistry -
 -------------------
 Temperature   298.150 Kelvin.  Pressure   1.00000 Atm.
 Atom     1 has atomic number  6 and mass  12.00000

 Molecular mass:   128.08373 amu.
 Principal axes and moments of inertia in atomic units:
                           1         2         3
     Eigenvalues --   507.172371901.896212272.06674
           X            1.00000  -0.00000  -0.00121
           Y            0.00000   1.00000   0.00001
           Z            0.00121  -0.00001   1.00000
 This molecule is an asymmetric top.
 Rotational symmetry number  1.
 Warning -- assumption of classical behavior for rotation
           may cause significant error
 Rotational temperatures (Kelvin)      0.17078     0.04554     0.03812
 Rotational constants (GHZ):           3.55844     0.94892     0.79432
 Zero-point vibrational energy     472735.1 (Joules/Mol)
                                  112.98640 (Kcal/Mol)
 Warning -- explicit consideration of  12 degrees of freedom as
           vibrations may cause significant error
 Vibrational temperatures:     71.22   118.74   163.73   203.18   228.99
          (Kelvin)            330.55   354.83   413.66   432.79   483.86
                              594.54   746.06  1013.10  1016.15  1069.76
                             1171.05  1180.07  1295.52  1308.05  1438.35
                             1438.37  1458.68  1484.19  1544.37  1558.89
                             1616.50  1636.58  1665.55  1789.17  1791.72
                             1837.01  1860.36  1916.90  1926.22  1956.53
                             1980.18  2035.31  2035.68  2143.63  2144.72
                             2157.41  2157.91  2173.46  2173.69  2741.86
                             4312.12  4320.35  4364.13  4364.26  4372.17
                             4372.30  4416.80  4417.34  4470.19  4470.42
                             4487.28  4487.50

 Zero-point correction=                           0.180055 (Hartree/Particle)
 Thermal correction to Energy=                    0.190196
 Thermal correction to Enthalpy=                  0.191141
 Thermal correction to Gibbs Free Energy=         0.144275
 Sum of electronic and zero-point Energies=           -424.239012
 Sum of electronic and thermal Energies=              -424.228871
 Sum of electronic and thermal Enthalpies=            -424.227927
 Sum of electronic and thermal Free Energies=         -424.274793

                     E (Thermal)             CV                S
                      KCal/Mol        Cal/Mol-Kelvin    Cal/Mol-Kelvin
 Total                  119.350             36.088             98.637
 Electronic               0.000              0.000              0.000
 Translational            0.889              2.981             40.456
 Rotational               0.889              2.981             29.173
 Vibrational            117.573             30.126             29.008
 Vibration     1          0.595              1.978              4.837
 Vibration     2          0.600              1.961              3.830
 Vibration     3          0.607              1.938              3.203
 Vibration     4          0.615              1.912              2.787
 Vibration     5          0.621              1.892              2.560
 Vibration     6          0.652              1.796              1.881
 Vibration     7          0.661              1.768              1.755
 Vibration     8          0.685              1.697              1.489
 Vibration     9          0.693              1.672              1.412
 Vibration    10          0.717              1.603              1.230
 Vibration    11          0.777              1.442              0.915
 Vibration    12          0.874              1.209              0.613

 Optimization completed.
    -- Stationary point found.
 Normal termination of Gaussian 16 at Thu Aug  4 04:26:49 2022.
