 Gaussian 16, Revision A.03,
 Gaussian 16:  ES64L-G16RevA.03 25-Dec-2016

 -----------------------------
 # opt freq b3lyp/6-31g(2df,p)
 -----------------------------

 -------------------
 Title Card Required
 -------------------
 Symbolic Z-matrix:
 Charge =  0 Multiplicity = 1

 SCF Done:  E(RB3LYP) =  -326.641131488     A.U. after   19 cycles
 SCF Done:  E(RB3LYP) =  -326.670848096     A.U. after   17 cycles
 SCF Done:  E(RB3LYP) =  -326.689700492     A.U. after   22 cycles
 SCF Done:  E(RB3LYP) =  -326.711613700     A.U. after   21 cycles
 SCF Done:  E(RB3LYP) =  -326.736696480     A.U. after   18 cycles
 SCF Done:  E(RB3LYP) =  -326.755544996     A.U. after   15 cycles
 SCF Done:  E(RB3LYP) =  -326.780353999     A.U. after   16 cycles
 SCF Done:  E(RB3LYP) =  -326.785925696     A.U. after   14 cycles
 SCF Done:  E(RB3LYP) =  -326.787648314     A.U. after   15 cycles
 SCF Done:  E(RB3LYP) =  -326.788421105     A.U. after   13 cycles
 SCF Done:  E(RB3LYP) =  -326.789914922     A.U. after   13 cycles
 SCF Done:  E(RB3LYP) =  -326.790021416     A.U. after   12 cycles
 SCF Done:  E(RB3LYP) =  -326.790055402     A.U. after   11 cycles
 SCF Done:  E(RB3LYP) =  -326.790068431     A.U. after   11 cycles
 SCF Done:  E(RB3LYP) =  -326.790078159     A.U. after   11 cycles
 SCF Done:  E(RB3LYP) =  -326.790084219     A.U. after   11 cycles
 SCF Done:  E(RB3LYP) =  -326.790086256     A.U. after   10 cycles
 SCF Done:  E(RB3LYP) =  -326.790088605     A.U. after   10 cycles
 SCF Done:  E(RB3LYP) =  -326.790089518     A.U. after   10 cycles
 Optimization completed.
    -- Stationary point found.
 Normal termination of Gaussian 16 at Sun Jul  3 15:27:27 2022.

 ----------------------------------------------------------------------
 #N Geom=AllCheck Guess=TCheck SCRF=Check GenChk RB3LYP/6-31G(2df,p) Fr
 eq
 ----------------------------------------------------------------------

 Structure from the checkpoint file:  "CCC1dC2CdNCC21.chk"
 -------------------
 Title Card Required
 -------------------
 Charge =  0 Multiplicity = 1

                         Standard orientation:
 ---------------------------------------------------------------------
 Center     Atomic      Atomic             Coordinates (Angstroms)
 Number     Number       Type             X           Y           Z
 ---------------------------------------------------------------------
      1          6           0       -2.780339    0.395450    0.575232
      2          6           0       -1.961908   -0.461289   -0.403102
      3          6           0       -0.480502   -0.216750   -0.254952
      4          6           0        0.100996    1.014692   -0.667571
      5          6           0        1.353600    1.318941   -0.004668
      6          7           0        2.258578    0.449545    0.311706
      7          6           0        1.873766   -0.932100    0.159854
      8          6           0        0.419843   -1.207962    0.022855
      9          1           0       -3.852863    0.232435    0.435259
     10          1           0       -2.572587    1.458246    0.414209
     11          1           0       -2.532484    0.155857    1.614504
     12          1           0       -2.250835   -0.204928   -1.428772
     13          1           0       -2.182900   -1.523603   -0.248166
     14          1           0        1.613671    2.369769    0.139691
     15          1           0        2.286884   -1.490828    1.016150
     16          1           0        2.414920   -1.355942   -0.704642
     17          1           0        0.113419   -2.253714    0.013942
 ---------------------------------------------------------------------

 SCF Done:  E(RB3LYP) =  -326.790089518     A.U. after    1 cycles

 The electronic state is 1-A.
 Alpha  occ. eigenvalues --  -14.33399 -10.22816 -10.22438 -10.21842 -10.20890
 Alpha  occ. eigenvalues --  -10.19439 -10.19123 -10.17991  -0.93694  -0.82655
 Alpha  occ. eigenvalues --   -0.76452  -0.74218  -0.64674  -0.62443  -0.58883
 Alpha  occ. eigenvalues --   -0.49742  -0.48032  -0.46290  -0.45261  -0.43836
 Alpha  occ. eigenvalues --   -0.42245  -0.38735  -0.37828  -0.35423  -0.34687
 Alpha  occ. eigenvalues --   -0.32678  -0.28156  -0.26051  -0.19740
 Alpha virt. eigenvalues --   -0.09951  -0.01041   0.06334   0.09928   0.11414
 Alpha virt. eigenvalues --    0.12885   0.15136   0.15247   0.16400   0.16895
 Alpha virt. eigenvalues --    0.17195   0.18408   0.19208   0.21894   0.24147

 Mulliken charges:
               1
     1  C   -0.375231
     2  C   -0.275796
     3  C    0.297766
     4  C   -0.212665
     5  C    0.001678
     6  N   -0.192549
     7  C   -0.197232
     8  C   -0.145540
     9  H    0.116434
    10  H    0.131532
    11  H    0.117066
    12  H    0.123470
    13  H    0.093719
    14  H    0.115944
    15  H    0.142878
    16  H    0.150556
    17  H    0.107970
 Sum of Mulliken charges =   0.00000

 Dipole moment (field-independent basis, Debye):
    X=             -0.9093    Y=             -2.4066    Z=              0.7795  Tot=              2.6882
 Quadrupole moment (field-independent basis, Debye-Ang):
   XX=            -50.1138   YY=            -45.3789   ZZ=            -50.1626
   XY=             -2.1586   XZ=             -1.2351   YZ=              1.9530

  Exact polarizability: 101.370  -7.679  90.851   6.261  -4.460  54.405
 Approx polarizability: 158.220 -32.048 177.616  21.560 -20.534  90.738

                      1                      2                      3
                      A                      A                      A
 Frequencies --     58.9233               127.0606               215.9949
 Red. masses --      2.5605                 3.7051                 1.6194
 Frc consts  --      0.0052                 0.0352                 0.0445
 IR Inten    --      1.1790                 0.8153                 2.0422

                      4                      5                      6
                      A                      A                      A
 Frequencies --    242.2724               248.7979               358.5887
 Red. masses --      1.9953                 1.9498                 2.2709
 Frc consts  --      0.0690                 0.0711                 0.1720
 IR Inten    --     17.2547                 9.2999                 4.0860

                      7                      8                      9
                      A                      A                      A
 Frequencies --    432.0741               482.7182               563.8034
 Red. masses --      2.4105                 4.2033                 3.1598
 Frc consts  --      0.2651                 0.5771                 0.5918
 IR Inten    --     15.4498                39.1193                31.9494

                     10                     11                     12
                      A                      A                      A
 Frequencies --    592.4663               758.4004               781.1246
 Red. masses --      5.7074                 2.2008                 1.4755
 Frc consts  --      1.1804                 0.7458                 0.5304
 IR Inten    --     36.7284                16.4372                 2.7044

                     13                     14                     15
                      A                      A                      A
 Frequencies --    822.9064               881.0675               927.4241
 Red. masses --      1.5668                 4.1918                 2.2282
 Frc consts  --      0.6251                 1.9172                 1.1292
 IR Inten    --      4.5204                 4.3926                18.2439

                     16                     17                     18
                      A                      A                      A
 Frequencies --    931.9205               977.4439               994.4667
 Red. masses --      2.2320                 2.0230                 1.9112
 Frc consts  --      1.1421                 1.1388                 1.1136
 IR Inten    --      9.5995                 0.8668                 3.5098

                     19                     20                     21
                      A                      A                      A
 Frequencies --   1032.3663              1079.5552              1108.9193
 Red. masses --      2.4379                 2.0608                 1.5820
 Frc consts  --      1.5308                 1.4151                 1.1462
 IR Inten    --      7.2431                 3.6085                 4.3499

                     22                     23                     24
                      A                      A                      A
 Frequencies --   1136.9768              1197.4089              1238.4897
 Red. masses --      2.9402                 1.1862                 1.5763
 Frc consts  --      2.2394                 1.0021                 1.4245
 IR Inten    --     17.9182                 0.2396                 6.5372

                     25                     26                     27
                      A                      A                      A
 Frequencies --   1281.9508              1324.3970              1348.8173
 Red. masses --      1.3121                 1.5528                 1.6424
 Frc consts  --      1.2704                 1.6047                 1.7605
 IR Inten    --      1.7441                 0.3158                 0.6428

                     28                     29                     30
                      A                      A                      A
 Frequencies --   1383.7816              1387.0747              1402.7949
 Red. masses --      1.9429                 1.4130                 1.1935
 Frc consts  --      2.1919                 1.6017                 1.3838
 IR Inten    --     17.0195                 4.9310                13.9373

                     31                     32                     33
                      A                      A                      A
 Frequencies --   1407.9683              1471.7079              1497.6412
 Red. masses --      1.2587                 1.0819                 1.0411
 Frc consts  --      1.4702                 1.3806                 1.3758
 IR Inten    --      0.3630                 2.7805                 8.5964

                     34                     35                     36
                      A                      A                      A
 Frequencies --   1505.0621              1546.0307              1575.8113
 Red. masses --      1.0652                 6.3589                 5.6217
 Frc consts  --      1.4216                 8.9550                 8.2249
 IR Inten    --      1.2520                19.9164                30.9698

                     37                     38                     39
                      A                      A                      A
 Frequencies --   2957.7931              2991.8555              3030.3672
 Red. masses --      1.0742                 1.0810                 1.0573
 Frc consts  --      5.5370                 5.7009                 5.7205
 IR Inten    --     10.5839                 6.7635                18.2388

                     40                     41                     42
                      A                      A                      A
 Frequencies --   3034.2544              3073.0948              3101.6977
 Red. masses --      1.0355                 1.1029                 1.0863
 Frc consts  --      5.6171                 6.1366                 6.1575
 IR Inten    --     26.5853                 5.2372                36.2165

                     43                     44                     45
                      A                      A                      A
 Frequencies --   3107.6422              3111.7682              3132.3033
 Red. masses --      1.1030                 1.1019                 1.0885
 Frc consts  --      6.2759                 6.2867                 6.2925
 IR Inten    --     27.1024                31.9497                12.0760

 - Thermochemistry -
 -------------------
 Temperature   298.150 Kelvin.  Pressure   1.00000 Atm.
 Atom     1 has atomic number  6 and mass  12.00000

 Molecular mass:   107.07350 amu.
 Principal axes and moments of inertia in atomic units:
                           1         2         3
     Eigenvalues --   388.150951254.430341497.34633
           X            0.99983  -0.01701  -0.00764
           Y            0.01716   0.99965   0.01995
           Z            0.00730  -0.02008   0.99977
 This molecule is an asymmetric top.
 Rotational symmetry number  1.
 Rotational temperatures (Kelvin)      0.22314     0.06905     0.05784
 Rotational constants (GHZ):           4.64959     1.43869     1.20529
 Zero-point vibrational energy     370034.8 (Joules/Mol)
                                   88.44043 (Kcal/Mol)
 Warning -- explicit consideration of  10 degrees of freedom as
           vibrations may cause significant error
 Vibrational temperatures:     84.78   182.81   310.77   348.58   357.96
          (Kelvin)            515.93   621.66   694.52   811.19   852.43
                             1091.17  1123.86  1183.98  1267.66  1334.36
                             1340.83  1406.32  1430.82  1485.34  1553.24
                             1595.49  1635.86  1722.80  1781.91  1844.44
                             1905.51  1940.65  1990.95  1995.69  2018.31
                             2025.75  2117.46  2154.77  2165.45  2224.39
                             2267.24  4255.60  4304.61  4360.02  4365.62
                             4421.50  4462.65  4471.20  4477.14  4506.69

 Zero-point correction=                           0.140939 (Hartree/Particle)
 Thermal correction to Energy=                    0.148708
 Thermal correction to Enthalpy=                  0.149652
 Thermal correction to Gibbs Free Energy=         0.108571
 Sum of electronic and zero-point Energies=           -326.649151
 Sum of electronic and thermal Energies=              -326.641382
 Sum of electronic and thermal Enthalpies=            -326.640437
 Sum of electronic and thermal Free Energies=         -326.681519

                     E (Thermal)             CV                S
                      KCal/Mol        Cal/Mol-Kelvin    Cal/Mol-Kelvin
 Total                   93.316             28.629             86.463
 Electronic               0.000              0.000              0.000
 Translational            0.889              2.981             39.922
 Rotational               0.889              2.981             28.080
 Vibrational             91.538             22.667             18.461
 Vibration     1          0.596              1.974              4.493
 Vibration     2          0.611              1.926              2.990
 Vibration     3          0.645              1.817              1.992
 Vibration     4          0.658              1.776              1.786
 Vibration     5          0.662              1.765              1.739
 Vibration     6          0.733              1.558              1.128
 Vibration     7          0.793              1.400              0.852
 Vibration     8          0.839              1.288              0.703
 Vibration     9          0.920              1.110              0.516
 Vibration    10          0.950              1.048              0.463

                           ! Non-Optimized Parameters !
 Normal termination of Gaussian 16 at Sun Jul  3 15:49:53 2022.
