 Gaussian 16, Revision A.03,
 Gaussian 16:  ES64L-G16RevA.03 25-Dec-2016

 -----------------------------
 # opt freq b3lyp/6-31g(2df,p)
 -----------------------------

 -------------------
 Title Card Required
 -------------------
 Symbolic Z-matrix:
 Charge =  0 Multiplicity = 1

 SCF Done:  E(RB3LYP) =  -327.777428837     A.U. after   20 cycles
 SCF Done:  E(RB3LYP) =  -327.819911438     A.U. after   18 cycles
 SCF Done:  E(RB3LYP) =  -327.846485889     A.U. after   19 cycles
 SCF Done:  E(RB3LYP) =  -327.866419218     A.U. after   16 cycles
 SCF Done:  E(RB3LYP) =  -327.890492626     A.U. after   19 cycles
 SCF Done:  E(RB3LYP) =  -327.900986038     A.U. after   16 cycles
 SCF Done:  E(RB3LYP) =  -327.920525667     A.U. after   15 cycles
 SCF Done:  E(RB3LYP) =  -327.933922931     A.U. after   15 cycles
 SCF Done:  E(RB3LYP) =  -327.957867639     A.U. after   16 cycles
 SCF Done:  E(RB3LYP) =  -327.962428161     A.U. after   13 cycles
 SCF Done:  E(RB3LYP) =  -328.018326637     A.U. after   10 cycles
 SCF Done:  E(RB3LYP) =  -328.019115449     A.U. after   14 cycles
 SCF Done:  E(RB3LYP) =  -328.019248812     A.U. after   13 cycles
 SCF Done:  E(RB3LYP) =  -328.019585175     A.U. after   12 cycles
 SCF Done:  E(RB3LYP) =  -328.019657892     A.U. after   13 cycles
 SCF Done:  E(RB3LYP) =  -328.019675814     A.U. after   10 cycles
 SCF Done:  E(RB3LYP) =  -328.019687627     A.U. after   10 cycles
 SCF Done:  E(RB3LYP) =  -328.019688707     A.U. after    9 cycles
 SCF Done:  E(RB3LYP) =  -328.019689574     A.U. after    8 cycles
 Optimization completed.
    -- Stationary point found.
 Normal termination of Gaussian 16 at Thu Aug  4 10:09:21 2022.

 ----------------------------------------------------------------------
 #N Geom=AllCheck Guess=TCheck SCRF=Check GenChk RB3LYP/6-31G(2df,p) Fr
 eq
 ----------------------------------------------------------------------

 Structure from the checkpoint file:  "CCC12CCC1dCN2.chk"
 -------------------
 Title Card Required
 -------------------
 Charge =  0 Multiplicity = 1

                         Standard orientation:
 ---------------------------------------------------------------------
 Center     Atomic      Atomic             Coordinates (Angstroms)
 Number     Number       Type             X           Y           Z
 ---------------------------------------------------------------------
      1          6           0        2.920991   -0.099967    0.385088
      2          6           0        1.813760    0.160382   -0.655220
      3          6           0        0.437364    0.101454   -0.069284
      4          6           0       -0.220672   -1.150946    0.364384
      5          6           0       -1.663860   -1.188582   -0.273314
      6          6           0       -2.461065    0.048476   -0.016363
      7          6           0       -1.748190    1.150793    0.256521
      8          7           0       -0.306560    1.174796    0.026380
      9          1           0        3.903766   -0.082782   -0.094534
     10          1           0        2.792954   -1.076615    0.860123
     11          1           0        2.908226    0.661435    1.170565
     12          1           0        1.890072   -0.595133   -1.448741
     13          1           0        1.973574    1.136285   -1.130119
     14          1           0       -0.391531   -1.122017    1.450789
     15          1           0        0.398530   -2.024837    0.136278
     16          1           0       -2.155887   -2.082404    0.124990
     17          1           0       -1.614841   -1.352959   -1.363107
     18          1           0       -2.117303    2.144171    0.488769
     19          1           0        0.088384    2.041614   -0.330553
 ---------------------------------------------------------------------

 SCF Done:  E(RB3LYP) =  -328.019689574     A.U. after    1 cycles

 The electronic state is 1-A.
 Alpha  occ. eigenvalues --  -14.39946 -10.25118 -10.21899 -10.20072 -10.19161
 Alpha  occ. eigenvalues --  -10.17304 -10.17260 -10.11432  -0.97953  -0.80881
 Alpha  occ. eigenvalues --   -0.77860  -0.72910  -0.65391  -0.63682  -0.60952
 Alpha  occ. eigenvalues --   -0.52278  -0.50153  -0.47508  -0.45300  -0.44447
 Alpha  occ. eigenvalues --   -0.41869  -0.40599  -0.38972  -0.37736  -0.37300
 Alpha  occ. eigenvalues --   -0.35188  -0.34351  -0.32463  -0.20296  -0.14647
 Alpha virt. eigenvalues --   -0.04452   0.05489   0.07757   0.09307   0.11650
 Alpha virt. eigenvalues --    0.13077   0.14193   0.14423   0.15177   0.15733
 Alpha virt. eigenvalues --    0.17656   0.18074   0.18403   0.19858   0.22377

 Mulliken charges:
               1
     1  C   -0.374367
     2  C   -0.297659
     3  C    0.369072
     4  C   -0.307649
     5  C   -0.244182
     6  C   -0.190376
     7  C   -0.108653
     8  N   -0.231348
     9  H    0.125915
    10  H    0.135151
    11  H    0.127956
    12  H    0.130219
    13  H    0.103654
    14  H    0.125869
    15  H    0.093589
    16  H    0.116008
    17  H    0.098545
    18  H    0.080411
    19  H    0.247846
 Sum of Mulliken charges =  -0.00000

 Dipole moment (field-independent basis, Debye):
    X=              5.8989    Y=              0.6019    Z=             -0.4863  Tot=              5.9495
 Quadrupole moment (field-independent basis, Debye-Ang):
   XX=            -62.8693   YY=            -43.6096   ZZ=            -49.4951
   XY=              1.6711   XZ=             -1.2335   YZ=             -0.7552

  Exact polarizability: 128.659  -0.085  84.707  -3.538   1.615  59.130
 Approx polarizability: 240.225   6.709 137.613  -7.119   5.142  92.994

                      1                      2                      3
                      A                      A                      A
 Frequencies --     61.9552               107.7248               190.4076
 Red. masses --      2.4671                 3.3994                 1.7682
 Frc consts  --      0.0056                 0.0232                 0.0378
 IR Inten    --      1.0088                10.6686                 5.9806

                      4                      5                      6
                      A                      A                      A
 Frequencies --    224.2700               271.5464               366.9601
 Red. masses --      1.2377                 2.8342                 2.2024
 Frc consts  --      0.0367                 0.1231                 0.1747
 IR Inten    --      2.2611                13.0956                 1.2759

                      7                      8                      9
                      A                      A                      A
 Frequencies --    387.3552               502.2859               506.7078
 Red. masses --      2.3003                 2.8641                 4.5355
 Frc consts  --      0.2034                 0.4257                 0.6861
 IR Inten    --      1.1599                20.9648                 4.4595

                     10                     11                     12
                      A                      A                      A
 Frequencies --    621.5853               688.3429               743.4496
 Red. masses --      3.7253                 2.3513                 2.1629
 Frc consts  --      0.8480                 0.6564                 0.7044
 IR Inten    --      4.0660               104.3351                 7.6898

                     13                     14                     15
                      A                      A                      A
 Frequencies --    762.6054               778.2329               805.2781
 Red. masses --      1.3821                 1.3780                 1.5647
 Frc consts  --      0.4736                 0.4917                 0.5978
 IR Inten    --     25.9572                21.4089                26.9076

                     16                     17                     18
                      A                      A                      A
 Frequencies --    842.4686               885.7953               939.2601
 Red. masses --      2.6900                 3.2980                 2.9167
 Frc consts  --      1.1249                 1.5246                 1.5160
 IR Inten    --      3.9828                79.3895                33.6956

                     19                     20                     21
                      A                      A                      A
 Frequencies --    967.5973               989.8537              1015.9879
 Red. masses --      2.4923                 2.0102                 2.0934
 Frc consts  --      1.3748                 1.1605                 1.2732
 IR Inten    --      0.5042                 9.4771                 3.0205

                     22                     23                     24
                      A                      A                      A
 Frequencies --   1067.3680              1078.6332              1144.3939
 Red. masses --      2.0988                 1.4371                 1.2134
 Frc consts  --      1.4088                 0.9851                 0.9363
 IR Inten    --      7.9958                 7.1143                 5.9059

                     25                     26                     27
                      A                      A                      A
 Frequencies --   1175.5029              1226.8931              1270.3386
 Red. masses --      1.2753                 1.6829                 1.1630
 Frc consts  --      1.0383                 1.4925                 1.1058
 IR Inten    --     13.8800                 3.7914                10.0118

                     28                     29                     30
                      A                      A                      A
 Frequencies --   1279.1581              1318.4862              1328.8269
 Red. masses --      1.1984                 1.3543                 1.2375
 Frc consts  --      1.1553                 1.3872                 1.2874
 IR Inten    --      2.1340                 7.0376                 2.1363

                     31                     32                     33
                      A                      A                      A
 Frequencies --   1352.6930              1407.9342              1434.3943
 Red. masses --      1.5009                 1.2092                 1.2528
 Frc consts  --      1.6181                 1.4122                 1.5187
 IR Inten    --      9.6805                 1.8377                 5.7509

                     34                     35                     36
                      A                      A                      A
 Frequencies --   1454.7289              1471.7388              1487.7669
 Red. masses --      1.1813                 1.1363                 1.6095
 Frc consts  --      1.4729                 1.4502                 2.0990
 IR Inten    --      2.1980                 5.9494                33.9674

                     37                     38                     39
                      A                      A                      A
 Frequencies --   1495.1529              1497.6398              1506.7360
 Red. masses --      1.5485                 1.5750                 1.1199
 Frc consts  --      2.0396                 2.0813                 1.4979
 IR Inten    --      5.4646                18.7645                 4.1070

                     40                     41                     42
                      A                      A                      A
 Frequencies --   1651.4143              2976.4169              2993.0423
 Red. masses --      4.7019                 1.0720                 1.0638
 Frc consts  --      7.5550                 5.5955                 5.6150
 IR Inten    --     26.1374                26.6739                28.2221

                     43                     44                     45
                      A                      A                      A
 Frequencies --   3012.0093              3042.7268              3055.5862
 Red. masses --      1.0596                 1.0344                 1.1016
 Frc consts  --      5.6637                 5.6424                 6.0599
 IR Inten    --     24.9104                29.5098                11.2133

                     46                     47                     48
                      A                      A                      A
 Frequencies --   3059.9601              3066.8252              3117.3925
 Red. masses --      1.0878                 1.0965                 1.1028
 Frc consts  --      6.0013                 6.0764                 6.3144
 IR Inten    --     16.8507                37.8824                26.6484

                     49                     50                     51
                      A                      A                      A
 Frequencies --   3120.2981              3170.4196              3489.2033
 Red. masses --      1.1024                 1.0900                 1.0764
 Frc consts  --      6.3237                 6.4551                 7.7213
 IR Inten    --     25.4021                42.5303                 4.8833

 - Thermochemistry -
 -------------------
 Temperature   298.150 Kelvin.  Pressure   1.00000 Atm.
 Atom     1 has atomic number  6 and mass  12.00000

 Molecular mass:   109.08915 amu.
 Principal axes and moments of inertia in atomic units:
                           1         2         3
     Eigenvalues --   401.776461284.621641542.17937
           X            0.99998   0.00602   0.00249
           Y           -0.00600   0.99996  -0.00696
           Z           -0.00254   0.00695   0.99997
 This molecule is an asymmetric top.
 Rotational symmetry number  1.
 Rotational temperatures (Kelvin)      0.21558     0.06742     0.05616
 Rotational constants (GHZ):           4.49190     1.40488     1.17025
 Zero-point vibrational energy     433128.0 (Joules/Mol)
                                  103.52008 (Kcal/Mol)
 Warning -- explicit consideration of   9 degrees of freedom as
           vibrations may cause significant error
 Vibrational temperatures:     89.14   154.99   273.95   322.67   390.69
          (Kelvin)            527.97   557.32   722.68   729.04   894.32
                              990.37  1069.66  1097.22  1119.70  1158.62
                             1212.12  1274.46  1351.39  1392.16  1424.18
                             1461.78  1535.70  1551.91  1646.53  1691.29
                             1765.23  1827.73  1840.42  1897.01  1911.89
                             1946.22  2025.70  2063.77  2093.03  2117.50
                             2140.56  2151.19  2154.77  2167.86  2376.02
                             4282.40  4306.32  4333.61  4377.81  4396.31
                             4402.60  4412.48  4485.23  4489.41  4561.53
                             5020.19

 Zero-point correction=                           0.164970 (Hartree/Particle)
 Thermal correction to Energy=                    0.173106
 Thermal correction to Enthalpy=                  0.174050
 Thermal correction to Gibbs Free Energy=         0.132288
 Sum of electronic and zero-point Energies=           -327.854720
 Sum of electronic and thermal Energies=              -327.846583
 Sum of electronic and thermal Enthalpies=            -327.845639
 Sum of electronic and thermal Free Energies=         -327.887401

                     E (Thermal)             CV                S
                      KCal/Mol        Cal/Mol-Kelvin    Cal/Mol-Kelvin
 Total                  108.626             30.819             87.895
 Electronic               0.000              0.000              0.000
 Translational            0.889              2.981             39.977
 Rotational               0.889              2.981             28.167
 Vibrational            106.848             24.857             19.751
 Vibration     1          0.597              1.972              4.394
 Vibration     2          0.606              1.943              3.310
 Vibration     3          0.634              1.853              2.224
 Vibration     4          0.649              1.804              1.924
 Vibration     5          0.675              1.726              1.586
 Vibration     6          0.740              1.540              1.092
 Vibration     7          0.756              1.497              1.010
 Vibration     8          0.858              1.245              0.652
 Vibration     9          0.862              1.235              0.642

 Optimization completed.
    -- Stationary point found.
 Normal termination of Gaussian 16 at Thu Aug  4 10:32:05 2022.
