 Gaussian 16, Revision A.03,
 Gaussian 16:  ES64L-G16RevA.03 25-Dec-2016

 -----------------------------
 # opt freq b3lyp/6-31g(2df,p)
 -----------------------------

 -------------------
 Title Card Required
 -------------------
 Symbolic Z-matrix:
 Charge =  0 Multiplicity = 1

 SCF Done:  E(RB3LYP) =  -424.398310851     A.U. after   13 cycles
 SCF Done:  E(RB3LYP) =  -424.406882883     A.U. after   12 cycles
 SCF Done:  E(RB3LYP) =  -424.408806943     A.U. after   11 cycles
 SCF Done:  E(RB3LYP) =  -424.409953540     A.U. after   11 cycles
 SCF Done:  E(RB3LYP) =  -424.412582331     A.U. after   11 cycles
 SCF Done:  E(RB3LYP) =  -424.415717519     A.U. after   11 cycles
 SCF Done:  E(RB3LYP) =  -424.418495402     A.U. after   11 cycles
 SCF Done:  E(RB3LYP) =  -424.422421860     A.U. after   11 cycles
 SCF Done:  E(RB3LYP) =  -424.423606584     A.U. after   11 cycles
 SCF Done:  E(RB3LYP) =  -424.424350832     A.U. after   11 cycles
 SCF Done:  E(RB3LYP) =  -424.424508689     A.U. after   10 cycles
 SCF Done:  E(RB3LYP) =  -424.424538659     A.U. after    9 cycles
 SCF Done:  E(RB3LYP) =  -424.424547235     A.U. after    9 cycles
 SCF Done:  E(RB3LYP) =  -424.424553582     A.U. after    9 cycles
 SCF Done:  E(RB3LYP) =  -424.424557748     A.U. after    9 cycles
 SCF Done:  E(RB3LYP) =  -424.424558710     A.U. after    8 cycles
 SCF Done:  E(RB3LYP) =  -424.424558777     A.U. after    7 cycles
 Optimization completed.
    -- Stationary point found.
 Normal termination of Gaussian 16 at Thu Aug  4 03:28:18 2022.

 ----------------------------------------------------------------------
 #N Geom=AllCheck Guess=TCheck SCRF=Check GenChk RB3LYP/6-31G(2df,p) Fr
 eq
 ----------------------------------------------------------------------

 Structure from the checkpoint file:  "CCC1dCOCCC1O.chk"
 -------------------
 Title Card Required
 -------------------
 Charge =  0 Multiplicity = 1

                         Standard orientation:
 ---------------------------------------------------------------------
 Center     Atomic      Atomic             Coordinates (Angstroms)
 Number     Number       Type             X           Y           Z
 ---------------------------------------------------------------------
      1          6           0       -2.878791   -0.025591   -0.466502
      2          6           0       -1.936685   -0.677846    0.561777
      3          6           0       -0.467107   -0.438485    0.307617
      4          6           0        0.340405   -1.448792   -0.048998
      5          8           0        1.667497   -1.380855   -0.315529
      6          6           0        2.192258   -0.056816   -0.437923
      7          6           0        1.638336    0.864651    0.638303
      8          6           0        0.109185    0.941437    0.512986
      9          8           0       -0.278685    1.868282   -0.515543
     10          1           0       -3.925932   -0.219567   -0.211984
     11          1           0       -2.695603   -0.429401   -1.468462
     12          1           0       -2.727118    1.055665   -0.507347
     13          1           0       -2.124903   -1.758055    0.587518
     14          1           0       -2.193321   -0.299678    1.561588
     15          1           0       -0.014689   -2.471410   -0.142429
     16          1           0        1.931360    0.332632   -1.434412
     17          1           0        3.277967   -0.160637   -0.385280
     18          1           0        2.063025    1.866704    0.529953
     19          1           0        1.912616    0.479426    1.627391
     20          1           0       -0.302309    1.372909    1.433735
     21          1           0       -0.297191    1.380638   -1.345245
 ---------------------------------------------------------------------

 SCF Done:  E(RB3LYP) =  -424.424558777     A.U. after    1 cycles

 The electronic state is 1-A.
 Alpha  occ. eigenvalues --  -19.16817 -19.13314 -10.23818 -10.23311 -10.23122
 Alpha  occ. eigenvalues --  -10.18375 -10.18325 -10.17385 -10.16847  -1.06383
 Alpha  occ. eigenvalues --   -1.01219  -0.80555  -0.78071  -0.73335  -0.65937
 Alpha  occ. eigenvalues --   -0.63865  -0.59933  -0.54559  -0.50888  -0.49102
 Alpha  occ. eigenvalues --   -0.46137  -0.45415  -0.43455  -0.42182  -0.41467
 Alpha  occ. eigenvalues --   -0.39523  -0.37863  -0.36232  -0.35635  -0.34361
 Alpha  occ. eigenvalues --   -0.33290  -0.33079  -0.30516  -0.26371  -0.21737
 Alpha virt. eigenvalues --    0.02705   0.07754   0.10186   0.11217   0.13325
 Alpha virt. eigenvalues --    0.13538   0.14426   0.15371   0.15672   0.17120
 Alpha virt. eigenvalues --    0.17776   0.18186   0.18926   0.20083   0.21687

 Mulliken charges:
               1
     1  C   -0.377114
     2  C   -0.274728
     3  C    0.140823
     4  C    0.001711
     5  O   -0.226428
     6  C   -0.077474
     7  C   -0.234939
     8  C    0.047309
     9  O   -0.438244
    10  H    0.107055
    11  H    0.105841
    12  H    0.137177
    13  H    0.095017
    14  H    0.098697
    15  H    0.108039
    16  H    0.095374
    17  H    0.115350
    18  H    0.111103
    19  H    0.107201
    20  H    0.083081
    21  H    0.275151
 Sum of Mulliken charges =  -0.00000

 Dipole moment (field-independent basis, Debye):
    X=              0.3999    Y=             -0.4551    Z=             -0.0549  Tot=              0.6084
 Quadrupole moment (field-independent basis, Debye-Ang):
   XX=            -53.3502   YY=            -59.3780   ZZ=            -52.5974
   XY=              3.9295   XZ=             -0.2726   YZ=              0.3273

  Exact polarizability:  97.349  -1.533  79.498  -2.983   1.752  66.584
 Approx polarizability: 128.017 -12.613 125.634  -7.527   4.461 102.887

                      1                      2                      3
                      A                      A                      A
 Frequencies --     61.3947               108.0256               174.6732
 Red. masses --      2.8457                 3.1804                 3.0995
 Frc consts  --      0.0063                 0.0219                 0.0557
 IR Inten    --      1.4253                 2.2396                 3.8517

                      4                      5                      6
                      A                      A                      A
 Frequencies --    227.8881               243.9887               278.6515
 Red. masses --      1.5214                 1.9143                 1.3999
 Frc consts  --      0.0466                 0.0671                 0.0640
 IR Inten    --     13.6461                 5.1919                47.5767

                      7                      8                      9
                      A                      A                      A
 Frequencies --    318.2991               339.2225               391.7139
 Red. masses --      1.9301                 1.9378                 3.0290
 Frc consts  --      0.1152                 0.1314                 0.2738
 IR Inten    --     22.3573                 2.0655                 0.9999

                     10                     11                     12
                      A                      A                      A
 Frequencies --    412.3503               482.2687               569.9694
 Red. masses --      2.5763                 3.0499                 5.2407
 Frc consts  --      0.2581                 0.4179                 1.0031
 IR Inten    --      2.2905                 2.2444                 8.9185

                     13                     14                     15
                      A                      A                      A
 Frequencies --    624.5345               686.8333               784.5183
 Red. masses --      3.3044                 3.2115                 1.2309
 Frc consts  --      0.7594                 0.8926                 0.4463
 IR Inten    --      1.2128                 8.0838                 3.6861

                     16                     17                     18
                      A                      A                      A
 Frequencies --    810.1330               874.9268               894.0787
 Red. masses --      2.1257                 3.0875                 2.7559
 Frc consts  --      0.8220                 1.3925                 1.2980
 IR Inten    --      5.0023                11.9249                38.6406

                     19                     20                     21
                      A                      A                      A
 Frequencies --    926.0539               964.9424               982.1489
 Red. masses --      1.4258                 2.2820                 2.6424
 Frc consts  --      0.7204                 1.2519                 1.5018
 IR Inten    --      6.7023                16.8143                25.8421

                     22                     23                     24
                      A                      A                      A
 Frequencies --   1033.3824              1056.8187              1082.8070
 Red. masses --      2.1145                 2.4268                 1.9746
 Frc consts  --      1.3304                 1.5969                 1.3641
 IR Inten    --      2.4209                53.2947                24.1776

                     25                     26                     27
                      A                      A                      A
 Frequencies --   1091.0091              1108.3810              1184.2034
 Red. masses --      1.6189                 2.0211                 3.5442
 Frc consts  --      1.1353                 1.4629                 2.9283
 IR Inten    --      9.7507                23.3538                90.2098

                     28                     29                     30
                      A                      A                      A
 Frequencies --   1205.2985              1240.5566              1267.4713
 Red. masses --      1.2918                 1.7364                 1.3616
 Frc consts  --      1.1057                 1.5744                 1.2888
 IR Inten    --     20.0472                22.3454                 9.0204

                     31                     32                     33
                      A                      A                      A
 Frequencies --   1273.8712              1294.9545              1348.3381
 Red. masses --      1.5459                 1.1988                 1.3224
 Frc consts  --      1.4780                 1.1845                 1.4165
 IR Inten    --     77.6437                20.0925                 1.8302

                     34                     35                     36
                      A                      A                      A
 Frequencies --   1360.4666              1368.0816              1397.8011
 Red. masses --      1.5991                 1.3791                 1.2583
 Frc consts  --      1.7438                 1.5208                 1.4485
 IR Inten    --      7.2957                 1.8898                 7.4059

                     37                     38                     39
                      A                      A                      A
 Frequencies --   1406.1704              1412.9026              1418.5499
 Red. masses --      1.2148                 1.3724                 1.4907
 Frc consts  --      1.4152                 1.6142                 1.7674
 IR Inten    --      1.8901                18.7033                40.3705

                     40                     41                     42
                      A                      A                      A
 Frequencies --   1465.3823              1479.8720              1496.4400
 Red. masses --      1.1007                 1.0800                 1.0409
 Frc consts  --      1.3925                 1.3935                 1.3734
 IR Inten    --      5.0251                 3.9614                 5.0223

                     43                     44                     45
                      A                      A                      A
 Frequencies --   1503.4771              1514.8613              1706.9116
 Red. masses --      1.1021                 1.0614                 6.4636
 Frc consts  --      1.4678                 1.4351                11.0954
 IR Inten    --      3.5448                 3.6700                96.9492

                     46                     47                     48
                      A                      A                      A
 Frequencies --   2987.3406              3002.5881              3028.2126
 Red. masses --      1.0707                 1.0640                 1.0797
 Frc consts  --      5.6295                 5.6518                 5.8336
 IR Inten    --     51.4927                27.8658                19.3050

                     49                     50                     51
                      A                      A                      A
 Frequencies --   3031.8703              3045.4060              3048.4144
 Red. masses --      1.0376                 1.0664                 1.0954
 Frc consts  --      5.6198                 5.8272                 5.9973
 IR Inten    --     32.2627                34.8338                28.2897

                     52                     53                     54
                      A                      A                      A
 Frequencies --   3096.3875              3100.4241              3105.6973
 Red. masses --      1.1016                 1.1011                 1.0937
 Frc consts  --      6.2227                 6.2365                 6.2152
 IR Inten    --     43.7096                19.3905                32.3631

                     55                     56                     57
                      A                      A                      A
 Frequencies --   3126.2809              3172.4464              3817.4328
 Red. masses --      1.1004                 1.0916                 1.0662
 Frc consts  --      6.3366                 6.4729                 9.1545
 IR Inten    --     18.0535                17.2305                12.6526

 - Thermochemistry -
 -------------------
 Temperature   298.150 Kelvin.  Pressure   1.00000 Atm.
 Atom     1 has atomic number  6 and mass  12.00000

 Molecular mass:   128.08373 amu.
 Principal axes and moments of inertia in atomic units:
                           1         2         3
     Eigenvalues --   697.159551374.614381799.52422
           X            0.99920   0.03958   0.00535
           Y           -0.03960   0.99921   0.00414
           Z           -0.00518  -0.00435   0.99998
 This molecule is an asymmetric top.
 Rotational symmetry number  1.
 Warning -- assumption of classical behavior for rotation
           may cause significant error
 Rotational temperatures (Kelvin)      0.12424     0.06301     0.04813
 Rotational constants (GHZ):           2.58871     1.31291     1.00290
 Zero-point vibrational energy     481120.8 (Joules/Mol)
                                  114.99064 (Kcal/Mol)
 Warning -- explicit consideration of  12 degrees of freedom as
           vibrations may cause significant error
 Vibrational temperatures:     88.33   155.42   251.32   327.88   351.05
          (Kelvin)            400.92   457.96   488.07   563.59   593.28
                              693.88   820.06   898.57   988.20  1128.75
                             1165.60  1258.82  1286.38  1332.39  1388.34
                             1413.09  1486.81  1520.53  1557.92  1569.72
                             1594.71  1703.80  1734.16  1784.88  1823.61
                             1832.82  1863.15  1939.96  1957.41  1968.36
                             2011.12  2023.17  2032.85  2040.98  2108.36
                             2129.21  2153.04  2163.17  2179.55  2455.87
                             4298.12  4320.05  4356.92  4362.19  4381.66
                             4385.99  4455.01  4460.82  4468.41  4498.02
                             4564.44  5492.43

 Zero-point correction=                           0.183249 (Hartree/Particle)
 Thermal correction to Energy=                    0.192451
 Thermal correction to Enthalpy=                  0.193395
 Thermal correction to Gibbs Free Energy=         0.149257
 Sum of electronic and zero-point Energies=           -424.241310
 Sum of electronic and thermal Energies=              -424.232108
 Sum of electronic and thermal Enthalpies=            -424.231164
 Sum of electronic and thermal Free Energies=         -424.275302

                     E (Thermal)             CV                S
                      KCal/Mol        Cal/Mol-Kelvin    Cal/Mol-Kelvin
 Total                  120.765             34.846             92.896
 Electronic               0.000              0.000              0.000
 Translational            0.889              2.981             40.456
 Rotational               0.889              2.981             28.935
 Vibrational            118.987             28.884             23.505
 Vibration     1          0.597              1.973              4.412
 Vibration     2          0.606              1.943              3.304
 Vibration     3          0.627              1.874              2.385
 Vibration     4          0.651              1.798              1.896
 Vibration     5          0.659              1.773              1.774
 Vibration     6          0.679              1.713              1.542
 Vibration     7          0.705              1.639              1.319
 Vibration     8          0.719              1.597              1.216
 Vibration     9          0.759              1.488              0.994
 Vibration    10          0.776              1.443              0.918
 Vibration    11          0.839              1.289              0.704
 Vibration    12          0.926              1.096              0.504

                           ! Non-Optimized Parameters !
 Normal termination of Gaussian 16 at Thu Aug  4 04:07:31 2022.
