 Gaussian 16, Revision A.03,
 Gaussian 16:  ES64L-G16RevA.03 25-Dec-2016

 -----------------------------
 # opt freq b3lyp/6-31g(2df,p)
 -----------------------------

 -------------------
 Title Card Required
 -------------------
 Symbolic Z-matrix:
 Charge =  0 Multiplicity = 1

 SCF Done:  E(RB3LYP) =  -404.479076790     A.U. after   13 cycles
 SCF Done:  E(RB3LYP) =  -404.488791141     A.U. after   11 cycles
 SCF Done:  E(RB3LYP) =  -404.490553613     A.U. after   11 cycles
 SCF Done:  E(RB3LYP) =  -404.492117053     A.U. after   11 cycles
 SCF Done:  E(RB3LYP) =  -404.492588270     A.U. after   11 cycles
 SCF Done:  E(RB3LYP) =  -404.492776011     A.U. after   10 cycles
 SCF Done:  E(RB3LYP) =  -404.492842838     A.U. after   10 cycles
 SCF Done:  E(RB3LYP) =  -404.492882733     A.U. after   10 cycles
 SCF Done:  E(RB3LYP) =  -404.492918262     A.U. after   10 cycles
 SCF Done:  E(RB3LYP) =  -404.492941216     A.U. after   10 cycles
 SCF Done:  E(RB3LYP) =  -404.490531432     A.U. after   10 cycles
 SCF Done:  E(RB3LYP) =  -404.492121530     A.U. after   10 cycles
 SCF Done:  E(RB3LYP) =  -404.491642619     A.U. after   11 cycles
 SCF Done:  E(RB3LYP) =  -404.493217557     A.U. after    6 cycles
 SCF Done:  E(RB3LYP) =  -404.493236651     A.U. after    9 cycles
 SCF Done:  E(RB3LYP) =  -404.493250257     A.U. after    9 cycles
 SCF Done:  E(RB3LYP) =  -404.493262030     A.U. after    9 cycles
 SCF Done:  E(RB3LYP) =  -404.493262296     A.U. after    7 cycles
 SCF Done:  E(RB3LYP) =  -404.493262329     A.U. after    6 cycles
 Optimization completed.
    -- Stationary point found.
 Normal termination of Gaussian 16 at Thu Aug  4 11:26:52 2022.

 ----------------------------------------------------------------------
 #N Geom=AllCheck Guess=TCheck SCRF=Check GenChk RB3LYP/6-31G(2df,p) Fr
 eq
 ----------------------------------------------------------------------

 Structure from the checkpoint file:  "CCC1NCC1C1CO1.chk"
 -------------------
 Title Card Required
 -------------------
 Charge =  0 Multiplicity = 1

                         Standard orientation:
 ---------------------------------------------------------------------
 Center     Atomic      Atomic             Coordinates (Angstroms)
 Number     Number       Type             X           Y           Z
 ---------------------------------------------------------------------
      1          6           0       -2.790045   -0.669967    0.603587
      2          6           0       -1.753661   -1.103563   -0.439362
      3          6           0       -0.545538   -0.179107   -0.622466
      4          7           0       -0.825128    1.253220   -0.915728
      5          6           0       -0.257401    1.688666    0.381164
      6          6           0        0.242556    0.241354    0.655363
      7          6           0        1.735928    0.041459    0.652845
      8          6           0        2.391491   -1.153495    0.107892
      9          8           0        2.423222    0.088120   -0.599172
     10          1           0       -3.633683   -1.366282    0.619790
     11          1           0       -3.194005    0.324465    0.385798
     12          1           0       -2.370263   -0.642622    1.614195
     13          1           0       -2.247930   -1.203777   -1.415332
     14          1           0       -1.379605   -2.105909   -0.190683
     15          1           0        0.101367   -0.609019   -1.396248
     16          1           0       -1.806593    1.472720   -1.041480
     17          1           0       -0.988363    2.046826    1.116892
     18          1           0        0.527200    2.447145    0.274953
     19          1           0       -0.151307   -0.183112    1.583997
     20          1           0        2.258822    0.570246    1.453758
     21          1           0        1.789686   -1.935495   -0.353755
     22          1           0        3.344809   -1.484768    0.517453
 ---------------------------------------------------------------------

 SCF Done:  E(RB3LYP) =  -404.493262329     A.U. after    1 cycles

 The electronic state is 1-A.
 Alpha  occ. eigenvalues --  -19.14694 -14.30148 -10.23572 -10.23050 -10.20553
 Alpha  occ. eigenvalues --  -10.20206 -10.18936 -10.18444 -10.17977  -1.06694
 Alpha  occ. eigenvalues --   -0.91807  -0.77000  -0.74231  -0.67729  -0.66242
 Alpha  occ. eigenvalues --   -0.62317  -0.60015  -0.53573  -0.50858  -0.48874
 Alpha  occ. eigenvalues --   -0.48443  -0.45102  -0.42924  -0.40713  -0.39853
 Alpha  occ. eigenvalues --   -0.38968  -0.37214  -0.36538  -0.35960  -0.34358
 Alpha  occ. eigenvalues --   -0.32922  -0.30785  -0.28665  -0.26373  -0.21294
 Alpha virt. eigenvalues --    0.06721   0.09180   0.09689   0.11382   0.11641
 Alpha virt. eigenvalues --    0.12820   0.13093   0.14291   0.15043   0.16417
 Alpha virt. eigenvalues --    0.17076   0.17455   0.17984   0.19530   0.20531

 Mulliken charges:
               1
     1  C   -0.383550
     2  C   -0.214036
     3  C    0.052115
     4  N   -0.320489
     5  C   -0.171595
     6  C   -0.061177
     7  C    0.073460
     8  C   -0.186790
     9  O   -0.222008
    10  H    0.117620
    11  H    0.112242
    12  H    0.119456
    13  H    0.102553
    14  H    0.097692
    15  H    0.086986
    16  H    0.209952
    17  H    0.089268
    18  H    0.104903
    19  H    0.075915
    20  H    0.089682
    21  H    0.112826
    22  H    0.114977
 Sum of Mulliken charges =  -0.00000

 Dipole moment (field-independent basis, Debye):
    X=             -1.4404    Y=             -1.3720    Z=              2.1822  Tot=              2.9529
 Quadrupole moment (field-independent basis, Debye-Ang):
   XX=            -54.5853   YY=            -54.2174   ZZ=            -57.3990
   XY=             -2.9953   XZ=              4.1438   YZ=              2.6269

  Exact polarizability:  91.692  -2.628  82.270   1.901   4.370  70.126
 Approx polarizability: 115.571  -3.836 120.026   0.658   3.544 110.887

                      1                      2                      3
                      A                      A                      A
 Frequencies --     52.7527                82.8649               106.4975
 Red. masses --      3.1139                 3.2986                 1.7000
 Frc consts  --      0.0051                 0.0133                 0.0114
 IR Inten    --      0.7594                 1.3286                 0.6478

                      4                      5                      6
                      A                      A                      A
 Frequencies --    169.4883               181.1838               232.2559
 Red. masses --      3.6910                 2.1931                 1.5132
 Frc consts  --      0.0625                 0.0424                 0.0481
 IR Inten    --      0.9218                 2.2615                 0.1270

                      7                      8                      9
                      A                      A                      A
 Frequencies --    263.2709               326.8604               428.0615
 Red. masses --      3.0786                 2.0761                 2.9442
 Frc consts  --      0.1257                 0.1307                 0.3179
 IR Inten    --      5.8565                 0.8371                 1.7877

                     10                     11                     12
                      A                      A                      A
 Frequencies --    492.0095               580.5749               658.7839
 Red. masses --      2.7869                 2.7057                 2.5411
 Frc consts  --      0.3975                 0.5373                 0.6498
 IR Inten    --     10.7310                17.5697                53.7971

                     13                     14                     15
                      A                      A                      A
 Frequencies --    729.3484               779.2623               790.4466
 Red. masses --      1.8801                 1.2921                 3.0113
 Frc consts  --      0.5892                 0.4623                 1.1085
 IR Inten    --     28.3326                 2.6796                 6.4430

                     16                     17                     18
                      A                      A                      A
 Frequencies --    858.6056               897.5771               939.8471
 Red. masses --      3.3041                 2.1815                 2.7770
 Frc consts  --      1.4351                 1.0355                 1.4452
 IR Inten    --     16.2163                 2.8606                32.3661

                     19                     20                     21
                      A                      A                      A
 Frequencies --    946.6995               964.5778               979.3170
 Red. masses --      1.8110                 1.7419                 1.6786
 Frc consts  --      0.9563                 0.9549                 0.9485
 IR Inten    --      2.3020                 1.3639                10.0593

                     22                     23                     24
                      A                      A                      A
 Frequencies --   1016.7567              1064.6276              1082.7263
 Red. masses --      2.6111                 2.1587                 1.4166
 Frc consts  --      1.5904                 1.4416                 0.9784
 IR Inten    --      7.9073                 5.5912                 1.3310

                     25                     26                     27
                      A                      A                      A
 Frequencies --   1096.2925              1121.9048              1129.2204
 Red. masses --      1.7514                 1.8119                 1.8851
 Frc consts  --      1.2402                 1.3437                 1.4163
 IR Inten    --      1.1908                 9.0870                 2.0447

                     28                     29                     30
                      A                      A                      A
 Frequencies --   1137.4170              1162.0037              1170.7866
 Red. masses --      2.0947                 1.3896                 1.3583
 Frc consts  --      1.5967                 1.1055                 1.0970
 IR Inten    --      5.2946                 0.4658                 5.2809

                     31                     32                     33
                      A                      A                      A
 Frequencies --   1185.0487              1224.6110              1272.9331
 Red. masses --      1.3580                 1.4345                 1.2258
 Frc consts  --      1.1236                 1.2675                 1.1703
 IR Inten    --      1.5197                 5.4308                 1.4789

                     34                     35                     36
                      A                      A                      A
 Frequencies --   1288.9697              1299.7408              1314.3210
 Red. masses --      1.3229                 1.4933                 1.3162
 Frc consts  --      1.2950                 1.4863                 1.3396
 IR Inten    --      5.0093                 4.7035                 1.2416

                     37                     38                     39
                      A                      A                      A
 Frequencies --   1338.6447              1374.7594              1382.8480
 Red. masses --      1.3246                 1.4612                 1.4527
 Frc consts  --      1.3985                 1.6271                 1.6368
 IR Inten    --      4.0105                 1.1046                 6.2925

                     40                     41                     42
                      A                      A                      A
 Frequencies --   1407.6195              1419.9055              1431.1454
 Red. masses --      1.3830                 1.3653                 1.7887
 Frc consts  --      1.6146                 1.6219                 2.1585
 IR Inten    --     14.5146                16.1716                12.0418

                     43                     44                     45
                      A                      A                      A
 Frequencies --   1476.7943              1501.1062              1503.5371
 Red. masses --      1.0765                 1.0504                 1.0549
 Frc consts  --      1.3833                 1.3945                 1.4050
 IR Inten    --      0.7178                 4.1644                 5.9847

                     46                     47                     48
                      A                      A                      A
 Frequencies --   1515.7768              1529.7075              3007.4888
 Red. masses --      1.1028                 1.3409                 1.0617
 Frc consts  --      1.4929                 1.8486                 5.6582
 IR Inten    --      1.2545                 6.0483                 3.7172

                     49                     50                     51
                      A                      A                      A
 Frequencies --   3009.0260              3032.5237              3036.1938
 Red. masses --      1.0581                 1.0817                 1.0373
 Frc consts  --      5.6447                 5.8609                 5.6340
 IR Inten    --     86.5152                45.2715                12.1254

                     52                     53                     54
                      A                      A                      A
 Frequencies --   3042.0718              3047.2338              3061.2997
 Red. masses --      1.1011                 1.1010                 1.0907
 Frc consts  --      6.0037                 6.0235                 6.0223
 IR Inten    --     18.8560                13.4688                46.8565

                     55                     56                     57
                      A                      A                      A
 Frequencies --   3076.0966              3082.0614              3100.2534
 Red. masses --      1.0764                 1.0606                 1.1006
 Frc consts  --      6.0007                 5.9360                 6.2328
 IR Inten    --     40.9104                26.3803                38.6439

                     58                     59                     60
                      A                      A                      A
 Frequencies --   3106.0031              3165.6617              3534.6611
 Red. masses --      1.1007                 1.1192                 1.0755
 Frc consts  --      6.2566                 6.6084                 7.9170
 IR Inten    --     33.9919                31.2253                 0.8178

 - Thermochemistry -
 -------------------
 Temperature   298.150 Kelvin.  Pressure   1.00000 Atm.
 Atom     1 has atomic number  6 and mass  12.00000

 Molecular mass:   127.09971 amu.
 Principal axes and moments of inertia in atomic units:
                           1         2         3
     Eigenvalues --   630.005191639.451731873.62561
           X            0.99999   0.00217   0.00252
           Y           -0.00229   0.99895   0.04568
           Z           -0.00242  -0.04568   0.99895
 This molecule is an asymmetric top.
 Rotational symmetry number  1.
 Warning -- assumption of classical behavior for rotation
           may cause significant error
 Rotational temperatures (Kelvin)      0.13748     0.05283     0.04623
 Rotational constants (GHZ):           2.86464     1.10082     0.96323
 Zero-point vibrational energy     509669.4 (Joules/Mol)
                                  121.81390 (Kcal/Mol)
 Warning -- explicit consideration of  11 degrees of freedom as
           vibrations may cause significant error
 Vibrational temperatures:     75.90   119.22   153.23   243.86   260.68
          (Kelvin)            334.16   378.79   470.28   615.88   707.89
                              835.32   947.84  1049.37  1121.18  1137.28
                             1235.34  1291.41  1352.23  1362.09  1387.81
                             1409.02  1462.89  1531.76  1557.80  1577.32
                             1614.17  1624.70  1636.49  1671.86  1684.50
                             1705.02  1761.94  1831.47  1854.54  1870.04
                             1891.01  1926.01  1977.97  1989.61  2025.25
                             2042.93  2059.10  2124.78  2159.76  2163.25
                             2180.86  2200.91  4327.11  4329.32  4363.13
                             4368.41  4376.86  4384.29  4404.53  4425.82
                             4434.40  4460.57  4468.85  4554.68  5085.59

 Zero-point correction=                           0.194123 (Hartree/Particle)
 Thermal correction to Energy=                    0.203586
 Thermal correction to Enthalpy=                  0.204530
 Thermal correction to Gibbs Free Energy=         0.159086
 Sum of electronic and zero-point Energies=           -404.299140
 Sum of electronic and thermal Energies=              -404.289677
 Sum of electronic and thermal Enthalpies=            -404.288732
 Sum of electronic and thermal Free Energies=         -404.334177

                     E (Thermal)             CV                S
                      KCal/Mol        Cal/Mol-Kelvin    Cal/Mol-Kelvin
 Total                  127.752             34.802             95.646
 Electronic               0.000              0.000              0.000
 Translational            0.889              2.981             40.433
 Rotational               0.889              2.981             29.050
 Vibrational            125.975             28.840             26.163
 Vibration     1          0.596              1.977              4.711
 Vibration     2          0.600              1.961              3.822
 Vibration     3          0.605              1.944              3.332
 Vibration     4          0.625              1.880              2.441
 Vibration     5          0.630              1.865              2.316
 Vibration     6          0.653              1.792              1.861
 Vibration     7          0.670              1.740              1.640
 Vibration     8          0.711              1.622              1.276
 Vibration     9          0.790              1.409              0.865
 Vibration    10          0.848              1.268              0.678
 Vibration    11          0.937              1.073              0.484

 Optimization completed.
    -- Stationary point found.
 Normal termination of Gaussian 16 at Thu Aug  4 12:03:03 2022.
