 Gaussian 16, Revision A.03,
 Gaussian 16:  ES64L-G16RevA.03 25-Dec-2016

 -----------------------------
 # opt freq b3lyp/6-31g(2df,p)
 -----------------------------

 -------------------
 Title Card Required
 -------------------
 Symbolic Z-matrix:
 Charge =  0 Multiplicity = 1

 SCF Done:  E(RB3LYP) =  -434.238478291     A.U. after   14 cycles
 SCF Done:  E(RB3LYP) =  -434.243542683     A.U. after   13 cycles
 SCF Done:  E(RB3LYP) =  -434.244304470     A.U. after   12 cycles
 SCF Done:  E(RB3LYP) =  -434.244330046     A.U. after   11 cycles
 SCF Done:  E(RB3LYP) =  -434.244397470     A.U. after   10 cycles
 SCF Done:  E(RB3LYP) =  -434.244466570     A.U. after   10 cycles
 SCF Done:  E(RB3LYP) =  -434.244529059     A.U. after   10 cycles
 SCF Done:  E(RB3LYP) =  -434.244729618     A.U. after   12 cycles
 SCF Done:  E(RB3LYP) =  -434.244868577     A.U. after   12 cycles
 SCF Done:  E(RB3LYP) =  -434.245405893     A.U. after   12 cycles
 SCF Done:  E(RB3LYP) =  -434.245646376     A.U. after   11 cycles
 SCF Done:  E(RB3LYP) =  -434.245675600     A.U. after   10 cycles
 SCF Done:  E(RB3LYP) =  -434.245681978     A.U. after    9 cycles
 SCF Done:  E(RB3LYP) =  -434.245685064     A.U. after    9 cycles
 SCF Done:  E(RB3LYP) =  -434.245685532     A.U. after    7 cycles
 Optimization completed.
    -- Stationary point found.
 Normal termination of Gaussian 16 at Thu Aug  4 06:45:17 2022.

 ----------------------------------------------------------------------
 #N Geom=AllCheck Guess=TCheck SCRF=Check GenChk RB3LYP/6-31G(2df,p) Fr
 eq
 ----------------------------------------------------------------------

 Structure from the checkpoint file:  "CCc1ncnn1CdO.chk"
 -------------------
 Title Card Required
 -------------------
 Charge =  0 Multiplicity = 1

                         Standard orientation:
 ---------------------------------------------------------------------
 Center     Atomic      Atomic             Coordinates (Angstroms)
 Number     Number       Type             X           Y           Z
 ---------------------------------------------------------------------
      1          6           0        2.195666   -1.124449    0.658020
      2          6           0        1.296913   -1.044741   -0.590138
      3          6           0       -0.109761   -0.661044   -0.271257
      4          7           0       -1.132408   -1.479764   -0.187679
      5          6           0       -2.183269   -0.661328    0.143743
      6          7           0       -1.891558    0.609326    0.269836
      7          7           0       -0.544255    0.622035    0.005940
      8          6           0        0.133939    1.847311    0.023922
      9          8           0        1.310763    1.969472   -0.182588
     10          1           0        3.194403   -1.466383    0.373362
     11          1           0        1.787367   -1.828606    1.388433
     12          1           0        2.296653   -0.144245    1.129441
     13          1           0        1.245413   -2.021172   -1.078303
     14          1           0        1.720560   -0.325588   -1.295892
     15          1           0       -3.187564   -1.031161    0.289250
     16          1           0       -0.566315    2.665711    0.251993
 ---------------------------------------------------------------------

 SCF Done:  E(RB3LYP) =  -434.245685532     A.U. after    1 cycles

 The electronic state is 1-A.
 Alpha  occ. eigenvalues --  -19.16334 -14.43245 -14.36984 -14.33570 -10.32268
 Alpha  occ. eigenvalues --  -10.27479 -10.24881 -10.20754 -10.18822  -1.10380
 Alpha  occ. eigenvalues --   -1.06751  -0.91784  -0.86086  -0.77987  -0.70216
 Alpha  occ. eigenvalues --   -0.65119  -0.63927  -0.56355  -0.53375  -0.49951
 Alpha  occ. eigenvalues --   -0.48705  -0.46243  -0.45243  -0.43607  -0.41493
 Alpha  occ. eigenvalues --   -0.39183  -0.37535  -0.36274  -0.34068  -0.31116
 Alpha  occ. eigenvalues --   -0.30483  -0.28570  -0.27856
 Alpha virt. eigenvalues --   -0.06178   0.02612   0.04213   0.10407   0.11571
 Alpha virt. eigenvalues --    0.13113   0.14072   0.14568   0.16185   0.16750
 Alpha virt. eigenvalues --    0.17986   0.19828   0.22493   0.24059   0.26272

 Mulliken charges:
               1
     1  C   -0.387729
     2  C   -0.286012
     3  C    0.386060
     4  N   -0.307071
     5  C    0.038134
     6  N   -0.238533
     7  N   -0.069764
     8  C    0.195574
     9  O   -0.279323
    10  H    0.125602
    11  H    0.130655
    12  H    0.142232
    13  H    0.134161
    14  H    0.138594
    15  H    0.140843
    16  H    0.136578
 Sum of Mulliken charges =  -0.00000

 Dipole moment (field-independent basis, Debye):
    X=              0.0945    Y=             -0.1464    Z=              0.0715  Tot=              0.1884
 Quadrupole moment (field-independent basis, Debye-Ang):
   XX=            -51.9698   YY=            -54.6113   ZZ=            -51.0686
   XY=             -3.5054   XZ=             -0.1343   YZ=             -0.0222

  Exact polarizability:  91.105   4.235  79.321  -4.172   2.214  46.479
 Approx polarizability: 140.552  14.833 129.616 -10.222   4.805  72.674

                      1                      2                      3
                      A                      A                      A
 Frequencies --     86.2608               118.2351               172.7594
 Red. masses --      2.6054                 6.1954                 4.0227
 Frc consts  --      0.0114                 0.0510                 0.0707
 IR Inten    --      0.1622                 4.7722                 0.9587

                      4                      5                      6
                      A                      A                      A
 Frequencies --    198.9178               243.0875               259.3603
 Red. masses --      1.6825                 1.8789                 2.6575
 Frc consts  --      0.0392                 0.0654                 0.1053
 IR Inten    --      2.3863                 3.9442                10.0964

                      7                      8                      9
                      A                      A                      A
 Frequencies --    365.0049               403.3423               522.4769
 Red. masses --      3.1554                 3.4166                 6.9439
 Frc consts  --      0.2477                 0.3275                 1.1168
 IR Inten    --      0.6738                 1.8951                 0.9782

                     10                     11                     12
                      A                      A                      A
 Frequencies --    672.6171               677.9946               757.1646
 Red. masses --      4.8167                 4.3046                 2.6267
 Frc consts  --      1.2839                 1.1658                 0.8872
 IR Inten    --      2.9629                14.3353                 6.1891

                     13                     14                     15
                      A                      A                      A
 Frequencies --    783.7008               825.2649               929.6457
 Red. masses --      2.0618                 2.8342                 1.3985
 Frc consts  --      0.7461                 1.1373                 0.7121
 IR Inten    --     28.0585                61.6350                 4.5271

                     16                     17                     18
                      A                      A                      A
 Frequencies --    967.5215               976.6471              1043.4316
 Red. masses --      4.6097                 3.1765                 1.6470
 Frc consts  --      2.5424                 1.7851                 1.0565
 IR Inten    --     17.1734                 0.5840                 0.0555

                     19                     20                     21
                      A                      A                      A
 Frequencies --   1061.3777              1088.3548              1161.9581
 Red. masses --      1.9486                 1.6814                 2.9374
 Frc consts  --      1.2933                 1.1734                 2.3367
 IR Inten    --     31.0279                 5.7634                 6.9977

                     22                     23                     24
                      A                      A                      A
 Frequencies --   1192.5431              1246.8291              1295.9536
 Red. masses --      3.2781                 2.4660                 1.7448
 Frc consts  --      2.7468                 2.2587                 1.7265
 IR Inten    --     50.3765                14.2189                11.6838

                     25                     26                     27
                      A                      A                      A
 Frequencies --   1322.2937              1355.0455              1380.7824
 Red. masses --      1.9188                 1.5432                 3.0197
 Frc consts  --      1.9767                 1.6695                 3.3920
 IR Inten    --     52.2103                 1.5928               215.0616

                     28                     29                     30
                      A                      A                      A
 Frequencies --   1405.9608              1414.1789              1469.4865
 Red. masses --      1.2406                 1.4840                 1.1254
 Frc consts  --      1.4449                 1.7487                 1.4318
 IR Inten    --      5.5909                51.9786                 4.0032

                     31                     32                     33
                      A                      A                      A
 Frequencies --   1495.2231              1501.6219              1513.8828
 Red. masses --      1.3214                 1.3149                 1.7547
 Frc consts  --      1.7406                 1.7469                 2.3693
 IR Inten    --      7.6424                24.3172                27.5201

                     34                     35                     36
                      A                      A                      A
 Frequencies --   1590.0078              1828.0691              3033.3566
 Red. masses --      6.7842                 9.2384                 1.0909
 Frc consts  --     10.1053                18.1900                 5.9140
 IR Inten    --     25.3171               257.0953                34.0449

                     37                     38                     39
                      A                      A                      A
 Frequencies --   3048.8639              3067.8787              3113.2025
 Red. masses --      1.0345                 1.0585                 1.1029
 Frc consts  --      5.6660                 5.8698                 6.2983
 IR Inten    --     20.1421                 8.1057                 3.2247

                     40                     41                     42
                      A                      A                      A
 Frequencies --   3123.1828              3138.0037              3259.6307
 Red. masses --      1.1024                 1.1035                 1.0973
 Frc consts  --      6.3353                 6.4024                 6.8693
 IR Inten    --     17.9950                17.1517                 4.1161

 - Thermochemistry -
 -------------------
 Temperature   298.150 Kelvin.  Pressure   1.00000 Atm.
 Atom     1 has atomic number  6 and mass  12.00000

 Molecular mass:   125.05891 amu.
 Principal axes and moments of inertia in atomic units:
                           1         2         3
     Eigenvalues --   780.194441032.644081677.70804
           X            0.99032  -0.13862   0.00677
           Y            0.13864   0.99034  -0.00206
           Z           -0.00642   0.00298   0.99997
 This molecule is an asymmetric top.
 Rotational symmetry number  1.
 Warning -- assumption of classical behavior for rotation
           may cause significant error
 Rotational temperatures (Kelvin)      0.11102     0.08388     0.05163
 Rotational constants (GHZ):           2.31319     1.74769     1.07572
 Zero-point vibrational energy     329637.7 (Joules/Mol)
                                   78.78530 (Kcal/Mol)
 Warning -- explicit consideration of   9 degrees of freedom as
           vibrations may cause significant error
 Vibrational temperatures:    124.11   170.11   248.56   286.20   349.75
          (Kelvin)            373.16   525.16   580.32   751.73   967.75
                              975.48  1089.39  1127.57  1187.37  1337.55
                             1392.05  1405.18  1501.27  1527.09  1565.90
                             1671.80  1715.80  1793.91  1864.59  1902.49
                             1949.61  1986.64  2022.86  2034.69  2114.26
                             2151.29  2160.50  2178.14  2287.67  2630.18
                             4364.32  4386.64  4413.99  4479.20  4493.56
                             4514.89  4689.88

 Zero-point correction=                           0.125552 (Hartree/Particle)
 Thermal correction to Energy=                    0.133680
 Thermal correction to Enthalpy=                  0.134624
 Thermal correction to Gibbs Free Energy=         0.092437
 Sum of electronic and zero-point Energies=           -434.120133
 Sum of electronic and thermal Energies=              -434.112006
 Sum of electronic and thermal Enthalpies=            -434.111062
 Sum of electronic and thermal Free Energies=         -434.153249

                     E (Thermal)             CV                S
                      KCal/Mol        Cal/Mol-Kelvin    Cal/Mol-Kelvin
 Total                   83.885             29.011             88.790
 Electronic               0.000              0.000              0.000
 Translational            0.889              2.981             40.385
 Rotational               0.889              2.981             28.693
 Vibrational             82.108             23.049             19.712
 Vibration     1          0.601              1.959              3.743
 Vibration     2          0.608              1.934              3.129
 Vibration     3          0.626              1.876              2.405
 Vibration     4          0.637              1.841              2.143
 Vibration     5          0.659              1.774              1.780
 Vibration     6          0.668              1.747              1.666
 Vibration     7          0.738              1.544              1.101
 Vibration     8          0.769              1.463              0.950
 Vibration     9          0.877              1.200              0.604

 Optimization completed.
    -- Stationary point found.
 Normal termination of Gaussian 16 at Thu Aug  4 07:07:43 2022.
