 Gaussian 16, Revision A.03,
 Gaussian 16:  ES64L-G16RevA.03 25-Dec-2016

 -----------------------------
 # opt freq b3lyp/6-31g(2df,p)
 -----------------------------

 -------------------
 Title Card Required
 -------------------
 Symbolic Z-matrix:
 Charge =  0 Multiplicity = 1

 SCF Done:  E(RB3LYP) =  -329.315131016     A.U. after   13 cycles
 SCF Done:  E(RB3LYP) =  -329.318793467     A.U. after   10 cycles
 SCF Done:  E(RB3LYP) =  -329.321208307     A.U. after   11 cycles
 SCF Done:  E(RB3LYP) =  -329.321575178     A.U. after   13 cycles
 SCF Done:  E(RB3LYP) =  -329.321775627     A.U. after   11 cycles
 SCF Done:  E(RB3LYP) =  -329.322332539     A.U. after   10 cycles
 SCF Done:  E(RB3LYP) =  -329.322124150     A.U. after   10 cycles
 SCF Done:  E(RB3LYP) =  -329.322465352     A.U. after   10 cycles
 SCF Done:  E(RB3LYP) =  -329.322588379     A.U. after   10 cycles
 SCF Done:  E(RB3LYP) =  -329.322695501     A.U. after   10 cycles
 SCF Done:  E(RB3LYP) =  -329.322943417     A.U. after   10 cycles
 SCF Done:  E(RB3LYP) =  -329.322914967     A.U. after   11 cycles
 SCF Done:  E(RB3LYP) =  -329.323000085     A.U. after   10 cycles
 SCF Done:  E(RB3LYP) =  -329.322981059     A.U. after   10 cycles
 SCF Done:  E(RB3LYP) =  -329.323001104     A.U. after   10 cycles
 SCF Done:  E(RB3LYP) =  -329.323005324     A.U. after    9 cycles
 SCF Done:  E(RB3LYP) =  -329.323008459     A.U. after    9 cycles
 SCF Done:  E(RB3LYP) =  -329.323008263     A.U. after    7 cycles
 SCF Done:  E(RB3LYP) =  -329.323008350     A.U. after    6 cycles
 Optimization completed.
    -- Stationary point found.
 Normal termination of Gaussian 16 at Thu Aug  4 14:41:59 2022.

 ----------------------------------------------------------------------
 #N Geom=AllCheck Guess=TCheck SCRF=Check GenChk RB3LYP/6-31G(2df,p) Fr
 eq
 ----------------------------------------------------------------------

 Structure from the checkpoint file:  "CCC1pCpCdCCN1.chk"
 -------------------
 Title Card Required
 -------------------
 Charge =  0 Multiplicity = 1

                         Standard orientation:
 ---------------------------------------------------------------------
 Center     Atomic      Atomic             Coordinates (Angstroms)
 Number     Number       Type             X           Y           Z
 ---------------------------------------------------------------------
      1          6           0       -1.625499   -1.653338    0.072104
      2          6           0       -1.656064   -0.124582   -0.001018
      3          6           0       -0.270680    0.574400   -0.006990
      4          6           0       -0.484469    2.099975   -0.068836
      5          6           0        0.571265    0.190110    1.191415
      6          6           0        1.670449   -0.465799    0.837822
      7          6           0        1.737352   -0.632643   -0.656367
      8          7           0        0.585274    0.143577   -1.143003
      9          1           0       -2.640950   -2.061166    0.061880
     10          1           0       -1.130489   -2.000147    0.983709
     11          1           0       -1.089826   -2.088852   -0.778194
     12          1           0       -2.236240    0.269299    0.843029
     13          1           0       -2.195220    0.191113   -0.905035
     14          1           0       -1.050874    2.460950    0.797495
     15          1           0       -1.037935    2.371045   -0.974188
     16          1           0        0.479559    2.613768   -0.095981
     17          1           0        0.278135    0.451345    2.202058
     18          1           0        2.440275   -0.837126    1.503887
     19          1           0        1.694554   -1.697070   -0.940963
     20          1           0        2.682668   -0.244093   -1.066760
     21          1           0        0.055306   -0.362851   -1.838691
 ---------------------------------------------------------------------

 SCF Done:  E(RB3LYP) =  -329.323008350     A.U. after    1 cycles

 The electronic state is 1-A.
 Alpha  occ. eigenvalues --  -14.30012 -10.21161 -10.20267 -10.17766 -10.17735
 Alpha  occ. eigenvalues --  -10.17345 -10.17088 -10.16086  -0.91055  -0.77768
 Alpha  occ. eigenvalues --   -0.75727  -0.72344  -0.65627  -0.61705  -0.56349
 Alpha  occ. eigenvalues --   -0.53522  -0.49237  -0.45415  -0.44185  -0.41116
 Alpha  occ. eigenvalues --   -0.40727  -0.40517  -0.38709  -0.37148  -0.35740
 Alpha  occ. eigenvalues --   -0.35043  -0.33422  -0.32961  -0.31502  -0.25051
 Alpha  occ. eigenvalues --   -0.20563
 Alpha virt. eigenvalues --    0.02530   0.07715   0.11174   0.12912   0.13701
 Alpha virt. eigenvalues --    0.14159   0.15415   0.16504   0.17140   0.18057
 Alpha virt. eigenvalues --    0.18790   0.19027   0.19864   0.20255   0.21869

 Mulliken charges:
               1
     1  C   -0.389273
     2  C   -0.207429
     3  C    0.252804
     4  C   -0.395020
     5  C   -0.077519
     6  C   -0.079453
     7  C   -0.204123
     8  N   -0.341031
     9  H    0.111125
    10  H    0.121380
    11  H    0.106619
    12  H    0.094547
    13  H    0.092448
    14  H    0.098797
    15  H    0.107269
    16  H    0.114842
    17  H    0.090723
    18  H    0.095844
    19  H    0.093481
    20  H    0.102227
    21  H    0.211740
 Sum of Mulliken charges =   0.00000

 Dipole moment (field-independent basis, Debye):
    X=             -0.3943    Y=             -0.8833    Z=              0.3721  Tot=              1.0364
 Quadrupole moment (field-independent basis, Debye-Ang):
   XX=            -49.3446   YY=            -51.9207   ZZ=            -49.3300
   XY=             -1.6419   XZ=              1.1375   YZ=              1.9320

  Exact polarizability:  88.950  -8.177  76.891  -1.624   2.783  72.457
 Approx polarizability: 127.383 -16.276 106.746  -5.588   6.368 110.673

                      1                      2                      3
                      A                      A                      A
 Frequencies --     71.8704               114.1882               209.3787
 Red. masses --      2.2184                 1.8421                 1.5158
 Frc consts  --      0.0068                 0.0142                 0.0392
 IR Inten    --      0.7531                 0.5271                 0.1979

                      4                      5                      6
                      A                      A                      A
 Frequencies --    231.8459               232.0798               260.9564
 Red. masses --      1.9279                 1.0781                 2.0280
 Frc consts  --      0.0611                 0.0342                 0.0814
 IR Inten    --      0.9342                 0.0838                 0.3153

                      7                      8                      9
                      A                      A                      A
 Frequencies --    350.3700               377.9813               405.7657
 Red. masses --      2.3051                 2.1920                 2.5808
 Frc consts  --      0.1667                 0.1845                 0.2504
 IR Inten    --      2.8566                 1.0149                 2.2459

                     10                     11                     12
                      A                      A                      A
 Frequencies --    525.9598               585.2335               645.2562
 Red. masses --      1.9606                 3.8461                 2.3465
 Frc consts  --      0.3195                 0.7761                 0.5756
 IR Inten    --     26.8837                 6.9690                44.8258

                     13                     14                     15
                      A                      A                      A
 Frequencies --    746.0434               770.9399               802.3854
 Red. masses --      1.2737                 1.9604                 1.9230
 Frc consts  --      0.4177                 0.6865                 0.7295
 IR Inten    --     20.4266                 3.8116                 7.9169

                     16                     17                     18
                      A                      A                      A
 Frequencies --    840.7164               895.7496               927.2978
 Red. masses --      2.7770                 1.9563                 1.8993
 Frc consts  --      1.1564                 0.9248                 0.9622
 IR Inten    --      8.1499                 1.4247                 1.1641

                     19                     20                     21
                      A                      A                      A
 Frequencies --    963.2635               967.5846               995.8631
 Red. masses --      1.8904                 1.2916                 1.4224
 Frc consts  --      1.0334                 0.7125                 0.8311
 IR Inten    --      0.3094                 0.4672                 2.6074

                     22                     23                     24
                      A                      A                      A
 Frequencies --   1021.2903              1047.1627              1059.0717
 Red. masses --      1.9334                 1.8762                 1.5969
 Frc consts  --      1.1882                 1.2121                 1.0553
 IR Inten    --      4.2017                10.3698                 0.8507

                     25                     26                     27
                      A                      A                      A
 Frequencies --   1085.8059              1125.8880              1143.3883
 Red. masses --      1.9923                 1.3441                 3.0759
 Frc consts  --      1.3839                 1.0038                 2.3693
 IR Inten    --     20.0267                10.7871                25.0888

                     28                     29                     30
                      A                      A                      A
 Frequencies --   1199.2532              1210.2539              1227.9756
 Red. masses --      1.2899                 2.4908                 1.8296
 Frc consts  --      1.0930                 2.1495                 1.6255
 IR Inten    --      6.6405                 9.6751                 0.8489

                     31                     32                     33
                      A                      A                      A
 Frequencies --   1303.5976              1337.6604              1365.9904
 Red. masses --      1.2150                 1.4877                 1.5304
 Frc consts  --      1.2165                 1.5684                 1.6824
 IR Inten    --      3.5843                 3.3331                 0.8946

                     34                     35                     36
                      A                      A                      A
 Frequencies --   1371.3569              1400.1173              1410.6052
 Red. masses --      1.5884                 1.2326                 1.2393
 Frc consts  --      1.7600                 1.4236                 1.4529
 IR Inten    --      5.4382                 4.0546                 2.9005

                     37                     38                     39
                      A                      A                      A
 Frequencies --   1442.7039              1477.3055              1491.1454
 Red. masses --      1.3474                 1.0653                 1.0528
 Frc consts  --      1.6523                 1.3698                 1.3793
 IR Inten    --     16.5297                 0.5877                 1.2046

                     40                     41                     42
                      A                      A                      A
 Frequencies --   1495.0660              1496.5746              1504.7742
 Red. masses --      1.0987                 1.0408                 1.0630
 Frc consts  --      1.4470                 1.3735                 1.4181
 IR Inten    --      0.7078                 9.3547                 2.1639

                     43                     44                     45
                      A                      A                      A
 Frequencies --   1518.3486              1694.2359              2960.1071
 Red. masses --      1.0833                 6.6308                 1.0672
 Frc consts  --      1.4715                11.2141                 5.5094
 IR Inten    --      2.8850                 0.5840                77.5586

                     46                     47                     48
                      A                      A                      A
 Frequencies --   2977.9758              3009.6555              3026.9127
 Red. masses --      1.0929                 1.0609                 1.0375
 Frc consts  --      5.7106                 5.6621                 5.6004
 IR Inten    --     64.1229                25.2246                35.2485

                     49                     50                     51
                      A                      A                      A
 Frequencies --   3036.4140              3046.7962              3093.6996
 Red. masses --      1.0375                 1.0969                 1.1008
 Frc consts  --      5.6357                 5.9995                 6.2075
 IR Inten    --     19.4584                17.5550                20.3756

                     52                     53                     54
                      A                      A                      A
 Frequencies --   3098.9182              3112.3376              3118.9278
 Red. masses --      1.1002                 1.1014                 1.1008
 Frc consts  --      6.2249                 6.2862                 6.3094
 IR Inten    --     44.4478                26.6369                27.0792

                     55                     56                     57
                      A                      A                      A
 Frequencies --   3187.2085              3213.7637              3574.8845
 Red. masses --      1.0848                 1.1050                 1.0752
 Frc consts  --      6.4923                 6.7243                 8.0957
 IR Inten    --      5.5697                16.7071                 0.7165

 - Thermochemistry -
 -------------------
 Temperature   298.150 Kelvin.  Pressure   1.00000 Atm.
 Atom     1 has atomic number  6 and mass  12.00000

 Molecular mass:   111.10480 amu.
 Principal axes and moments of inertia in atomic units:
                           1         2         3
     Eigenvalues --   713.70748 896.507461136.21498
           X            0.99998  -0.00509  -0.00395
           Y            0.00516   0.99982   0.01846
           Z            0.00385  -0.01848   0.99982
 This molecule is an asymmetric top.
 Rotational symmetry number  1.
 Warning -- assumption of classical behavior for rotation
           may cause significant error
 Rotational temperatures (Kelvin)      0.12136     0.09661     0.07623
 Rotational constants (GHZ):           2.52868     2.01308     1.58838
 Zero-point vibrational energy     495301.2 (Joules/Mol)
                                  118.37984 (Kcal/Mol)
 Warning -- explicit consideration of  11 degrees of freedom as
           vibrations may cause significant error
 Vibrational temperatures:    103.41   164.29   301.25   333.57   333.91
          (Kelvin)            375.46   504.10   543.83   583.81   756.74
                              842.02   928.38  1073.39  1109.21  1154.45
                             1209.60  1288.78  1334.17  1385.92  1392.14
                             1432.82  1469.41  1506.63  1523.77  1562.23
                             1619.90  1645.08  1725.46  1741.29  1766.78
                             1875.59  1924.59  1965.36  1973.08  2014.46
                             2029.55  2075.73  2125.51  2145.43  2151.07
                             2153.24  2165.03  2184.56  2437.63  4258.93
                             4284.64  4330.22  4355.05  4368.72  4383.66
                             4451.14  4458.65  4477.96  4487.44  4585.68
                             4623.89  5143.46

 Zero-point correction=                           0.188650 (Hartree/Particle)
 Thermal correction to Energy=                    0.197384
 Thermal correction to Enthalpy=                  0.198329
 Thermal correction to Gibbs Free Energy=         0.155739
 Sum of electronic and zero-point Energies=           -329.134358
 Sum of electronic and thermal Energies=              -329.125624
 Sum of electronic and thermal Enthalpies=            -329.124680
 Sum of electronic and thermal Free Energies=         -329.167269

                     E (Thermal)             CV                S
                      KCal/Mol        Cal/Mol-Kelvin    Cal/Mol-Kelvin
 Total                  123.861             33.317             89.637
 Electronic               0.000              0.000              0.000
 Translational            0.889              2.981             40.032
 Rotational               0.889              2.981             28.077
 Vibrational            122.083             27.355             21.528
 Vibration     1          0.598              1.967              4.101
 Vibration     2          0.607              1.938              3.196
 Vibration     3          0.642              1.826              2.049
 Vibration     4          0.653              1.792              1.865
 Vibration     5          0.653              1.792              1.863
 Vibration     6          0.669              1.744              1.655
 Vibration     7          0.727              1.574              1.165
 Vibration     8          0.748              1.517              1.047
 Vibration     9          0.771              1.458              0.942
 Vibration    10          0.881              1.193              0.596
 Vibration    11          0.942              1.063              0.476

 Optimization completed.
    -- Stationary point found.
 Normal termination of Gaussian 16 at Thu Aug  4 15:09:40 2022.
