 Gaussian 16, Revision A.03,
 Gaussian 16:  ES64L-G16RevA.03 25-Dec-2016

 -----------------------------
 # opt freq b3lyp/6-31g(2df,p)
 -----------------------------

 -------------------
 Title Card Required
 -------------------
 Symbolic Z-matrix:
 Charge =  0 Multiplicity = 1

 SCF Done:  E(RB3LYP) =  -369.862842585     A.U. after   12 cycles
 SCF Done:  E(RB3LYP) =  -369.865589732     A.U. after   10 cycles
 SCF Done:  E(RB3LYP) =  -369.865890049     A.U. after    9 cycles
 SCF Done:  E(RB3LYP) =  -369.866189616     A.U. after   10 cycles
 SCF Done:  E(RB3LYP) =  -369.866344056     A.U. after   10 cycles
 SCF Done:  E(RB3LYP) =  -369.866535157     A.U. after    8 cycles
 SCF Done:  E(RB3LYP) =  -369.866623121     A.U. after    9 cycles
 SCF Done:  E(RB3LYP) =  -369.866642926     A.U. after    9 cycles
 SCF Done:  E(RB3LYP) =  -369.866646018     A.U. after    7 cycles
 SCF Done:  E(RB3LYP) =  -369.866646295     A.U. after    7 cycles
 SCF Done:  E(RB3LYP) =  -369.866646396     A.U. after    7 cycles
 Optimization completed.
    -- Stationary point found.
 Normal termination of Gaussian 16 at Sun Jul  3 11:21:23 2022.

 ----------------------------------------------------------------------
 #N Geom=AllCheck Guess=TCheck SCRF=Check GenChk RB3LYP/6-31G(2df,p) Fr
 eq
 ----------------------------------------------------------------------

 Structure from the checkpoint file:  "CCC1CCCCCN1.chk"
 -------------------
 Title Card Required
 -------------------
 Charge =  0 Multiplicity = 1

                         Standard orientation:
 ---------------------------------------------------------------------
 Center     Atomic      Atomic             Coordinates (Angstroms)
 Number     Number       Type             X           Y           Z
 ---------------------------------------------------------------------
      1          6           0       -3.023857    0.048394   -0.637633
      2          6           0       -2.231192   -0.155713    0.660664
      3          6           0       -0.699510   -0.035868    0.533962
      4          6           0       -0.272734    1.360157    0.040034
      5          6           0        1.230811    1.658795    0.121356
      6          6           0        2.162434    0.621527   -0.529084
      7          6           0        2.225744   -0.702184    0.251092
      8          6           0        1.084153   -1.697508   -0.031826
      9          7           0       -0.183305   -1.061077   -0.384870
     10          1           0       -4.089526   -0.134643   -0.468102
     11          1           0       -2.690694   -0.628906   -1.429942
     12          1           0       -2.921335    1.069192   -1.016635
     13          1           0       -2.460253   -1.147876    1.073292
     14          1           0       -2.572752    0.568611    1.409594
     15          1           0       -0.294950   -0.185287    1.551356
     16          1           0       -0.809583    2.126272    0.615587
     17          1           0       -0.598079    1.454079   -1.001990
     18          1           0        1.522794    1.765942    1.176040
     19          1           0        1.408298    2.638782   -0.338795
     20          1           0        3.171137    1.049895   -0.567240
     21          1           0        1.860084    0.437067   -1.566623
     22          1           0        2.252311   -0.465918    1.322238
     23          1           0        3.170127   -1.217366    0.041492
     24          1           0        0.997894   -2.370328    0.842407
     25          1           0        1.361454   -2.331875   -0.883262
     26          1           0       -0.878875   -1.785701   -0.516716
 ---------------------------------------------------------------------

 SCF Done:  E(RB3LYP) =  -369.866646396     A.U. after    1 cycles

 The electronic state is 1-A.
 Alpha  occ. eigenvalues --  -14.29911 -10.20000 -10.19620 -10.17798 -10.17121
 Alpha  occ. eigenvalues --  -10.16975 -10.16938 -10.16842 -10.16456  -0.89498
 Alpha  occ. eigenvalues --   -0.78231  -0.78089  -0.73035  -0.66591  -0.65232
 Alpha  occ. eigenvalues --   -0.60096  -0.55199  -0.54171  -0.48084  -0.46661
 Alpha  occ. eigenvalues --   -0.44134  -0.43801  -0.42674  -0.40835  -0.40537
 Alpha  occ. eigenvalues --   -0.38530  -0.36633  -0.36412  -0.34638  -0.33173
 Alpha  occ. eigenvalues --   -0.32167  -0.31801  -0.31091  -0.30420  -0.29680
 Alpha  occ. eigenvalues --   -0.20676
 Alpha virt. eigenvalues --    0.07609   0.10614   0.11146   0.11166   0.13601
 Alpha virt. eigenvalues --    0.14565   0.15265   0.15464   0.16280   0.16663
 Alpha virt. eigenvalues --    0.17027   0.18454   0.18946   0.19542   0.20010

 Mulliken charges:
               1
     1  C   -0.371198
     2  C   -0.217591
     3  C    0.062975
     4  C   -0.150619
     5  C   -0.203544
     6  C   -0.174072
     7  C   -0.186168
     8  C   -0.145635
     9  N   -0.294006
    10  H    0.109044
    11  H    0.120559
    12  H    0.121045
    13  H    0.087634
    14  H    0.096432
    15  H    0.050248
    16  H    0.077751
    17  H    0.097897
    18  H    0.086641
    19  H    0.086041
    20  H    0.084768
    21  H    0.101856
    22  H    0.094143
    23  H    0.090626
    24  H    0.071674
    25  H    0.093399
    26  H    0.210101
 Sum of Mulliken charges =  -0.00000

 Dipole moment (field-independent basis, Debye):
    X=             -0.2942    Y=             -0.4385    Z=              0.5354  Tot=              0.7520
 Quadrupole moment (field-independent basis, Debye-Ang):
   XX=            -57.6390   YY=            -57.1336   ZZ=            -59.5831
   XY=              0.4081   XZ=             -0.3328   YZ=              0.2464

  Exact polarizability: 104.800  -1.150  92.707  -0.135   0.254  79.825
 Approx polarizability: 129.393  -1.462 129.206   0.622   1.850 125.791

                      1                      2                      3
                      A                      A                      A
 Frequencies --     87.3122               106.6062               151.9202
 Red. masses --      2.3522                 2.0757                 2.4076
 Frc consts  --      0.0106                 0.0139                 0.0327
 IR Inten    --      0.2088                 0.0059                 2.2696

                      4                      5                      6
                      A                      A                      A
 Frequencies --    174.5077               209.2790               265.6064
 Red. masses --      1.9146                 1.2449                 2.9004
 Frc consts  --      0.0344                 0.0321                 0.1206
 IR Inten    --      0.4648                 0.2332                 0.0436

                      7                      8                      9
                      A                      A                      A
 Frequencies --    307.6990               323.4004               366.4206
 Red. masses --      2.0174                 2.3722                 2.2432
 Frc consts  --      0.1125                 0.1462                 0.1775
 IR Inten    --      0.6476                 1.8500                 0.8948

                     10                     11                     12
                      A                      A                      A
 Frequencies --    394.6932               489.8982               524.3957
 Red. masses --      2.7505                 1.6297                 1.9174
 Frc consts  --      0.2525                 0.2304                 0.3107
 IR Inten    --      0.6711                 6.7149                15.2851

                     13                     14                     15
                      A                      A                      A
 Frequencies --    584.5708               694.9665               779.4197
 Red. masses --      2.6555                 1.6366                 2.1228
 Frc consts  --      0.5347                 0.4657                 0.7598
 IR Inten    --      3.4914                38.6489                 0.6728

                     16                     17                     18
                      A                      A                      A
 Frequencies --    785.5666               809.0935               856.7360
 Red. masses --      1.2979                 1.6057                 1.7466
 Frc consts  --      0.4719                 0.6193                 0.7553
 IR Inten    --      2.3952                 2.4980                 0.5804

                     19                     20                     21
                      A                      A                      A
 Frequencies --    877.3632               891.0772               924.0360
 Red. masses --      2.3844                 2.0629                 2.0930
 Frc consts  --      1.0814                 0.9651                 1.0529
 IR Inten    --      2.4640                 5.4503                 4.9308

                     22                     23                     24
                      A                      A                      A
 Frequencies --    956.0862               997.3035              1010.1255
 Red. masses --      2.1793                 1.4808                 1.7151
 Frc consts  --      1.1737                 0.8678                 1.0311
 IR Inten    --      3.6662                 1.7192                 1.0842

                     25                     26                     27
                      A                      A                      A
 Frequencies --   1037.5653              1060.0308              1082.5580
 Red. masses --      2.1837                 1.3171                 2.8395
 Frc consts  --      1.3851                 0.8720                 1.9606
 IR Inten    --      7.4256                 0.9322                 1.2507

                     28                     29                     30
                      A                      A                      A
 Frequencies --   1106.2545              1133.7152              1169.5317
 Red. masses --      1.9225                 1.9031                 2.1084
 Frc consts  --      1.3862                 1.4412                 1.6991
 IR Inten    --      1.6291                 1.3967                 6.0822

                     31                     32                     33
                      A                      A                      A
 Frequencies --   1185.4149              1204.5093              1222.1265
 Red. masses --      2.8360                 1.4214                 1.2215
 Frc consts  --      2.3480                 1.2150                 1.0749
 IR Inten    --     27.5059                 1.9175                 1.2666

                     34                     35                     36
                      A                      A                      A
 Frequencies --   1268.3497              1281.1086              1302.7351
 Red. masses --      1.2413                 1.2346                 1.1992
 Frc consts  --      1.1766                 1.1939                 1.1991
 IR Inten    --      7.2411                 3.2571                 1.8748

                     37                     38                     39
                      A                      A                      A
 Frequencies --   1309.0997              1327.6431              1363.5993
 Red. masses --      1.1820                 1.2794                 1.3203
 Frc consts  --      1.1935                 1.3287                 1.4464
 IR Inten    --      0.4178                 5.1810                 0.1558

                     40                     41                     42
                      A                      A                      A
 Frequencies --   1373.7050              1376.5497              1383.7098
 Red. masses --      1.2799                 1.3648                 1.3493
 Frc consts  --      1.4230                 1.5238                 1.5222
 IR Inten    --      7.7354                 4.3969                22.4466

                     43                     44                     45
                      A                      A                      A
 Frequencies --   1388.9717              1398.3729              1417.5164
 Red. masses --      1.3862                 1.3902                 1.2934
 Frc consts  --      1.5757                 1.6017                 1.5313
 IR Inten    --      5.4032                 4.9414                 9.6881

                     46                     47                     48
                      A                      A                      A
 Frequencies --   1418.1101              1471.5060              1480.0383
 Red. masses --      1.4136                 1.0938                 1.0942
 Frc consts  --      1.6750                 1.3954                 1.4122
 IR Inten    --      7.0338                 1.5423                 6.4780

                     49                     50                     51
                      A                      A                      A
 Frequencies --   1483.4298              1487.7923              1496.4943
 Red. masses --      1.0828                 1.0931                 1.0752
 Frc consts  --      1.4038                 1.4255                 1.4187
 IR Inten    --      0.2055                 3.9368                 3.0364

                     52                     53                     54
                      A                      A                      A
 Frequencies --   1498.7642              1508.1981              1513.9130
 Red. masses --      1.0754                 1.1048                 1.0961
 Frc consts  --      1.4232                 1.4807                 1.4802
 IR Inten    --      3.0527                 2.6458                 2.5607

                     55                     56                     57
                      A                      A                      A
 Frequencies --   1516.3738              2912.7176              2926.4435
 Red. masses --      1.1737                 1.0743                 1.0813
 Frc consts  --      1.5901                 5.3700                 5.4559
 IR Inten    --      8.3049                94.5019                44.5385

                     58                     59                     60
                      A                      A                      A
 Frequencies --   3000.3861              3011.6964              3015.8071
 Red. masses --      1.0644                 1.0643                 1.0655
 Frc consts  --      5.6456                 5.6879                 5.7097
 IR Inten    --     22.9911                38.5439                38.9996

                     61                     62                     63
                      A                      A                      A
 Frequencies --   3021.5323              3022.8098              3028.3086
 Red. masses --      1.0654                 1.0777                 1.0718
 Frc consts  --      5.7307                 5.8021                 5.7910
 IR Inten    --     18.3968                23.2308                27.8322

                     64                     65                     66
                      A                      A                      A
 Frequencies --   3041.2685              3044.7757              3053.1304
 Red. masses --      1.0362                 1.0930                 1.0968
 Frc consts  --      5.6468                 5.9703                 6.0236
 IR Inten    --     19.9540                49.6689                29.6461

                     67                     68                     69
                      A                      A                      A
 Frequencies --   3062.7793              3067.6247              3073.9751
 Red. masses --      1.0978                 1.1005                 1.0994
 Frc consts  --      6.0675                 6.1017                 6.1210
 IR Inten    --     60.1604                 5.2857                91.3866

                     70                     71                     72
                      A                      A                      A
 Frequencies --   3105.6043              3113.5778              3533.3975
 Red. masses --      1.1009                 1.1011                 1.0742
 Frc consts  --      6.2560                 6.2894                 7.9021
 IR Inten    --     37.4176                32.7881                 0.2563

 - Thermochemistry -
 -------------------
 Temperature   298.150 Kelvin.  Pressure   1.00000 Atm.
 Atom     1 has atomic number  6 and mass  12.00000

 Molecular mass:   127.13610 amu.
 Principal axes and moments of inertia in atomic units:
                           1         2         3
     Eigenvalues --   685.627861592.990702006.72866
           X            0.99999  -0.00151   0.00512
           Y            0.00154   0.99998  -0.00660
           Z           -0.00511   0.00661   0.99997
 This molecule is an asymmetric top.
 Rotational symmetry number  1.
 Warning -- assumption of classical behavior for rotation
           may cause significant error
 Rotational temperatures (Kelvin)      0.12633     0.05437     0.04316
 Rotational constants (GHZ):           2.63225     1.13293     0.89934
 Zero-point vibrational energy     639234.2 (Joules/Mol)
                                  152.78063 (Kcal/Mol)
 Warning -- explicit consideration of  13 degrees of freedom as
           vibrations may cause significant error
 Vibrational temperatures:    125.62   153.38   218.58   251.08   301.11
          (Kelvin)            382.15   442.71   465.30   527.20   567.88
                              704.85   754.49   841.07   999.90  1121.41
                             1130.26  1164.11  1232.65  1262.33  1282.06
                             1329.48  1375.59  1434.90  1453.35  1492.82
                             1525.15  1557.56  1591.65  1631.16  1682.70
                             1705.55  1733.02  1758.37  1824.87  1843.23
                             1874.35  1883.50  1910.18  1961.92  1976.46
                             1980.55  1990.85  1998.42  2011.95  2039.49
                             2040.34  2117.17  2129.44  2134.32  2140.60
                             2153.12  2156.39  2169.96  2178.18  2181.72
                             4190.75  4210.50  4316.89  4333.16  4339.07
                             4347.31  4349.15  4357.06  4375.71  4380.75
                             4392.77  4406.66  4413.63  4422.76  4468.27
                             4479.74  5083.77

 Zero-point correction=                           0.243471 (Hartree/Particle)
 Thermal correction to Energy=                    0.253174
 Thermal correction to Enthalpy=                  0.254118
 Thermal correction to Gibbs Free Energy=         0.209163
 Sum of electronic and zero-point Energies=           -369.623175
 Sum of electronic and thermal Energies=              -369.613473
 Sum of electronic and thermal Enthalpies=            -369.612529
 Sum of electronic and thermal Free Energies=         -369.657483

                     E (Thermal)             CV                S
                      KCal/Mol        Cal/Mol-Kelvin    Cal/Mol-Kelvin
 Total                  158.869             37.751             94.615
 Electronic               0.000              0.000              0.000
 Translational            0.889              2.981             40.434
 Rotational               0.889              2.981             29.173
 Vibrational            157.091             31.789             25.008
 Vibration     1          0.601              1.958              3.719
 Vibration     2          0.605              1.944              3.330
 Vibration     3          0.619              1.901              2.648
 Vibration     4          0.627              1.874              2.386
 Vibration     5          0.642              1.827              2.050
 Vibration     6          0.671              1.736              1.625
 Vibration     7          0.698              1.659              1.375
 Vibration     8          0.708              1.629              1.293
 Vibration     9          0.739              1.541              1.095
 Vibration    10          0.762              1.482              0.982
 Vibration    11          0.846              1.272              0.684
 Vibration    12          0.879              1.196              0.600
 Vibration    13          0.942              1.065              0.477

                           ! Non-Optimized Parameters !
 Normal termination of Gaussian 16 at Sun Jul  3 12:15:03 2022.
