 Gaussian 16, Revision A.03,
 Gaussian 16:  ES64L-G16RevA.03 25-Dec-2016

 -----------------------------
 # opt freq b3lyp/6-31g(2df,p)
 -----------------------------

 -------------------
 Title Card Required
 -------------------
 Symbolic Z-matrix:
 Charge =  0 Multiplicity = 1

 SCF Done:  E(RB3LYP) =  -388.399824483     A.U. after   13 cycles
 SCF Done:  E(RB3LYP) =  -388.428851561     A.U. after   11 cycles
 SCF Done:  E(RB3LYP) =  -388.438287726     A.U. after   10 cycles
 SCF Done:  E(RB3LYP) =  -388.438884060     A.U. after   10 cycles
 SCF Done:  E(RB3LYP) =  -388.439155248     A.U. after   10 cycles
 SCF Done:  E(RB3LYP) =  -388.439314530     A.U. after    9 cycles
 SCF Done:  E(RB3LYP) =  -388.439399955     A.U. after    9 cycles
 SCF Done:  E(RB3LYP) =  -388.439419138     A.U. after    8 cycles
 SCF Done:  E(RB3LYP) =  -388.439438644     A.U. after    9 cycles
 SCF Done:  E(RB3LYP) =  -388.439446355     A.U. after    9 cycles
 SCF Done:  E(RB3LYP) =  -388.439458569     A.U. after    9 cycles
 SCF Done:  E(RB3LYP) =  -388.439466909     A.U. after    9 cycles
 SCF Done:  E(RB3LYP) =  -388.439468139     A.U. after    8 cycles
 SCF Done:  E(RB3LYP) =  -388.439468760     A.U. after    7 cycles
 SCF Done:  E(RB3LYP) =  -388.439469786     A.U. after    8 cycles
 SCF Done:  E(RB3LYP) =  -388.439470536     A.U. after    8 cycles
 SCF Done:  E(RB3LYP) =  -388.439470936     A.U. after    8 cycles
 SCF Done:  E(RB3LYP) =  -388.439471088     A.U. after    7 cycles
 SCF Done:  E(RB3LYP) =  -388.439471147     A.U. after    6 cycles
 Optimization completed.
    -- Stationary point found.
 Normal termination of Gaussian 16 at Sun Jul  3 10:54:39 2022.

 ----------------------------------------------------------------------
 #N Geom=AllCheck Guess=TCheck SCRF=Check GenChk RB3LYP/6-31G(2df,p) Fr
 eq
 ----------------------------------------------------------------------

 Structure from the checkpoint file:  "CCC1pCpC2CpCOpC21.chk"
 -------------------
 Title Card Required
 -------------------
 Charge =  0 Multiplicity = 1

                         Standard orientation:
 ---------------------------------------------------------------------
 Center     Atomic      Atomic             Coordinates (Angstroms)
 Number     Number       Type             X           Y           Z
 ---------------------------------------------------------------------
      1          6           0        3.153826    0.112624    0.876013
      2          6           0        2.321236   -0.418413   -0.298395
      3          6           0        0.865749    0.062216   -0.302547
      4          6           0        0.756903    1.580735   -0.437525
      5          6           0       -0.093108   -0.888468   -0.967408
      6          6           0       -1.356593   -0.710742   -0.171974
      7          6           0       -2.339888    0.457665   -0.180310
      8          8           0       -3.384111    0.257600    0.763631
      9          6           0       -0.046550   -0.794594    0.542348
     10          1           0        4.172399   -0.286099    0.840366
     11          1           0        2.713425   -0.176232    1.836042
     12          1           0        3.227332    1.204163    0.859486
     13          1           0        2.332667   -1.514781   -0.282633
     14          1           0        2.795179   -0.116054   -1.241263
     15          1           0        1.500645    1.940593   -1.158495
     16          1           0        0.950362    2.085470    0.514616
     17          1           0       -0.216433    1.904953   -0.801135
     18          1           0        0.166667   -1.752241   -1.564146
     19          1           0       -1.921132   -1.648502   -0.112217
     20          1           0       -2.742552    0.593041   -1.197548
     21          1           0       -1.866633    1.392249    0.117228
     22          1           0       -3.879348   -0.522688    0.494485
     23          1           0        0.270854   -1.570812    1.224953
 ---------------------------------------------------------------------

 SCF Done:  E(RB3LYP) =  -388.439471147     A.U. after    1 cycles

 The electronic state is 1-A.
 Alpha  occ. eigenvalues --  -19.12867 -10.21968 -10.20799 -10.20120 -10.19182
 Alpha  occ. eigenvalues --  -10.19147 -10.18110 -10.17335 -10.16988  -1.00949
 Alpha  occ. eigenvalues --   -0.91588  -0.78043  -0.71646  -0.70294  -0.64106
 Alpha  occ. eigenvalues --   -0.59778  -0.57308  -0.52904  -0.50353  -0.48662
 Alpha  occ. eigenvalues --   -0.45206  -0.43210  -0.42913  -0.40869  -0.40208
 Alpha  occ. eigenvalues --   -0.38435  -0.37841  -0.36245  -0.34566  -0.33512
 Alpha  occ. eigenvalues --   -0.31854  -0.29661  -0.28626  -0.27600  -0.22919
 Alpha virt. eigenvalues --    0.06610   0.08085   0.08874   0.10211   0.12722
 Alpha virt. eigenvalues --    0.13520   0.14006   0.14827   0.15620   0.16060
 Alpha virt. eigenvalues --    0.17453   0.18558   0.19161   0.19465   0.20344

 Mulliken charges:
               1
     1  C   -0.383070
     2  C   -0.235021
     3  C    0.337163
     4  C   -0.470049
     5  C   -0.190463
     6  C   -0.045952
     7  C   -0.096768
     8  O   -0.418620
     9  C   -0.143304
    10  H    0.112000
    11  H    0.119632
    12  H    0.120185
    13  H    0.090751
    14  H    0.097585
    15  H    0.109534
    16  H    0.119976
    17  H    0.125141
    18  H    0.101247
    19  H    0.069563
    20  H    0.084609
    21  H    0.114167
    22  H    0.278781
    23  H    0.102912
 Sum of Mulliken charges =  -0.00000

 Dipole moment (field-independent basis, Debye):
    X=              0.7394    Y=             -1.3976    Z=             -1.0460  Tot=              1.8958
 Quadrupole moment (field-independent basis, Debye-Ang):
   XX=            -55.7160   YY=            -54.0164   ZZ=            -58.7986
   XY=              4.5004   XZ=              3.4569   YZ=             -0.9033

  Exact polarizability: 105.249   3.878  80.524   0.795  -0.363  74.674
 Approx polarizability: 129.984   6.088 116.879  -1.794   0.519 124.223

                      1                      2                      3
                      A                      A                      A
 Frequencies --     31.9305                88.6977               101.0168
 Red. masses --      2.8088                 2.2501                 1.8135
 Frc consts  --      0.0017                 0.0104                 0.0109
 IR Inten    --      2.1495                 0.0205                 1.8896

                      4                      5                      6
                      A                      A                      A
 Frequencies --    135.1364               209.1473               225.5497
 Red. masses --      1.9467                 1.7084                 1.3213
 Frc consts  --      0.0209                 0.0440                 0.0396
 IR Inten    --      1.4217                 0.7483                 0.7615

                      7                      8                      9
                      A                      A                      A
 Frequencies --    267.2015               284.2223               323.0965
 Red. masses --      2.0177                 1.2636                 3.5352
 Frc consts  --      0.0849                 0.0601                 0.2174
 IR Inten    --     17.6937                79.3176                 0.3559

                     10                     11                     12
                      A                      A                      A
 Frequencies --    338.6110               395.8953               464.6322
 Red. masses --      2.6607                 2.0763                 2.5401
 Frc consts  --      0.1797                 0.1917                 0.3231
 IR Inten    --     19.6535                 1.2250                 8.8977

                     13                     14                     15
                      A                      A                      A
 Frequencies --    497.0896               563.9918               661.5577
 Red. masses --      3.1797                 3.5098                 3.1091
 Frc consts  --      0.4629                 0.6578                 0.8017
 IR Inten    --      2.7351                 9.7202                 2.6246

                     16                     17                     18
                      A                      A                      A
 Frequencies --    748.2360               761.1523               801.4465
 Red. masses --      1.1600                 1.9497                 1.2839
 Frc consts  --      0.3826                 0.6655                 0.4859
 IR Inten    --      0.6058                21.0703                 9.1117

                     19                     20                     21
                      A                      A                      A
 Frequencies --    858.4799               912.9091               917.8435
 Red. masses --      2.5283                 2.2980                 2.3376
 Frc consts  --      1.0978                 1.1284                 1.1603
 IR Inten    --      5.2865                 3.4411                 3.7723

                     22                     23                     24
                      A                      A                      A
 Frequencies --    969.7847               993.5148              1015.9254
 Red. masses --      2.1546                 1.4253                 1.8217
 Frc consts  --      1.1939                 0.8289                 1.1077
 IR Inten    --      1.6817                 4.6948                 4.8824

                     25                     26                     27
                      A                      A                      A
 Frequencies --   1025.6087              1057.8056              1067.0104
 Red. masses --      1.5422                 1.6016                 4.6898
 Frc consts  --      0.9558                 1.0559                 3.1458
 IR Inten    --     41.0731                 0.4937                83.6703

                     28                     29                     30
                      A                      A                      A
 Frequencies --   1087.7737              1091.0909              1146.9499
 Red. masses --      1.7306                 1.7091                 1.3369
 Frc consts  --      1.2065                 1.1988                 1.0361
 IR Inten    --      9.2005                 9.7291                24.7917

                     31                     32                     33
                      A                      A                      A
 Frequencies --   1159.0969              1199.9479              1228.9815
 Red. masses --      1.6972                 1.4768                 1.7316
 Frc consts  --      1.3435                 1.2528                 1.5409
 IR Inten    --      1.1826                 1.1863                 5.6023

                     34                     35                     36
                      A                      A                      A
 Frequencies --   1235.3208              1278.7307              1321.7664
 Red. masses --      1.9007                 1.4879                 1.5151
 Frc consts  --      1.7089                 1.4335                 1.5595
 IR Inten    --      7.7887                 4.7083                 6.7382

                     37                     38                     39
                      A                      A                      A
 Frequencies --   1356.8747              1367.6491              1396.1093
 Red. masses --      1.5882                 1.2882                 2.2088
 Frc consts  --      1.7228                 1.4196                 2.5365
 IR Inten    --      8.1759                 4.0723                18.2172

                     40                     41                     42
                      A                      A                      A
 Frequencies --   1410.6196              1412.6661              1425.5873
 Red. masses --      1.2472                 1.3856                 1.2222
 Frc consts  --      1.4622                 1.6292                 1.4634
 IR Inten    --      3.0395                 9.4827                16.6886

                     43                     44                     45
                      A                      A                      A
 Frequencies --   1468.8759              1483.2097              1493.4234
 Red. masses --      1.7537                 1.0665                 1.0667
 Frc consts  --      2.2293                 1.3824                 1.4017
 IR Inten    --      4.7339                 0.9726                 2.0782

                     46                     47                     48
                      A                      A                      A
 Frequencies --   1502.0628              1505.0204              1508.7140
 Red. masses --      1.0626                 1.0966                 1.0663
 Frc consts  --      1.4125                 1.4634                 1.4301
 IR Inten    --      4.9339                 4.3933                 7.8290

                     49                     50                     51
                      A                      A                      A
 Frequencies --   1510.4727              2969.5593              3017.9337
 Red. masses --      1.0687                 1.0731                 1.0601
 Frc consts  --      1.4366                 5.5752                 5.6887
 IR Inten    --      1.2552                61.9255                24.8083

                     52                     53                     54
                      A                      A                      A
 Frequencies --   3033.3708              3037.0432              3040.5053
 Red. masses --      1.0433                 1.0364                 1.0822
 Frc consts  --      5.6558                 5.6325                 5.8943
 IR Inten    --     23.6771                35.6378                32.2961

                     55                     56                     57
                      A                      A                      A
 Frequencies --   3055.2123              3089.2004              3104.0586
 Red. masses --      1.1012                 1.0985                 1.1016
 Frc consts  --      6.0561                 6.1767                 6.2539
 IR Inten    --     17.7175                19.4792                37.0810

                     58                     59                     60
                      A                      A                      A
 Frequencies --   3109.6928              3134.4565              3162.2575
 Red. masses --      1.1011                 1.0915                 1.0919
 Frc consts  --      6.2737                 6.3182                 6.4333
 IR Inten    --     34.5393                31.7049                13.3051

                     61                     62                     63
                      A                      A                      A
 Frequencies --   3198.3196              3210.9122              3811.8421
 Red. masses --      1.0893                 1.0981                 1.0661
 Frc consts  --      6.5652                 6.6702                 9.1270
 IR Inten    --     11.2599                 5.3122                15.3341

 - Thermochemistry -
 -------------------
 Temperature   298.150 Kelvin.  Pressure   1.00000 Atm.
 Atom     1 has atomic number  6 and mass  12.00000

 Molecular mass:   126.10447 amu.
 Principal axes and moments of inertia in atomic units:
                           1         2         3
     Eigenvalues --   494.285952162.577542279.87812
           X            0.99987   0.00742   0.01450
           Y           -0.00679   0.99906  -0.04291
           Z           -0.01481   0.04280   0.99897
 This molecule is an asymmetric top.
 Rotational symmetry number  1.
 Warning -- assumption of classical behavior for rotation
           may cause significant error
 Rotational temperatures (Kelvin)      0.17523     0.04005     0.03799
 Rotational constants (GHZ):           3.65121     0.83453     0.79160
 Zero-point vibrational energy     534029.7 (Joules/Mol)
                                  127.63617 (Kcal/Mol)
 Warning -- explicit consideration of  14 degrees of freedom as
           vibrations may cause significant error
 Vibrational temperatures:     45.94   127.62   145.34   194.43   300.92
          (Kelvin)            324.52   384.44   408.93   464.86   487.19
                              569.60   668.50   715.20   811.46   951.83
                             1076.54  1095.13  1153.10  1235.16  1313.47
                             1320.57  1395.30  1429.45  1461.69  1475.62
                             1521.95  1535.19  1565.06  1569.84  1650.21
                             1667.68  1726.46  1768.23  1777.35  1839.81
                             1901.73  1952.24  1967.74  2008.69  2029.57
                             2032.51  2051.10  2113.38  2134.01  2148.70
                             2161.13  2165.39  2170.70  2173.23  4272.53
                             4342.13  4364.34  4369.63  4374.61  4395.77
                             4444.67  4466.05  4474.15  4509.78  4549.78
                             4601.67  4619.79  5484.39

 Zero-point correction=                           0.203401 (Hartree/Particle)
 Thermal correction to Energy=                    0.213980
 Thermal correction to Enthalpy=                  0.214924
 Thermal correction to Gibbs Free Energy=         0.167174
 Sum of electronic and zero-point Energies=           -388.236070
 Sum of electronic and thermal Energies=              -388.225492
 Sum of electronic and thermal Enthalpies=            -388.224547
 Sum of electronic and thermal Free Energies=         -388.272297

                     E (Thermal)             CV                S
                      KCal/Mol        Cal/Mol-Kelvin    Cal/Mol-Kelvin
 Total                  134.274             39.003            100.498
 Electronic               0.000              0.000              0.000
 Translational            0.889              2.981             40.409
 Rotational               0.889              2.981             29.279
 Vibrational            132.497             33.041             30.810
 Vibration     1          0.594              1.983              5.706
 Vibration     2          0.602              1.957              3.689
 Vibration     3          0.604              1.948              3.435
 Vibration     4          0.613              1.918              2.872
 Vibration     5          0.642              1.827              2.051
 Vibration     6          0.650              1.802              1.914
 Vibration     7          0.672              1.733              1.614
 Vibration     8          0.683              1.703              1.508
 Vibration     9          0.708              1.629              1.294
 Vibration    10          0.719              1.598              1.219
 Vibration    11          0.763              1.479              0.978
 Vibration    12          0.822              1.329              0.753
 Vibration    13          0.853              1.256              0.665
 Vibration    14          0.920              1.109              0.516

                           ! Non-Optimized Parameters !
 Normal termination of Gaussian 16 at Sun Jul  3 11:36:17 2022.
