 Gaussian 16, Revision A.03,
 Gaussian 16:  ES64L-G16RevA.03 25-Dec-2016

 -----------------------------
 # opt freq b3lyp/6-31g(2df,p)
 -----------------------------

 -------------------
 Title Card Required
 -------------------
 Symbolic Z-matrix:
 Charge =  0 Multiplicity = 1

 SCF Done:  E(RB3LYP) =  -418.175978422     A.U. after   14 cycles
 SCF Done:  E(RB3LYP) =  -418.182893370     A.U. after   13 cycles
 SCF Done:  E(RB3LYP) =  -418.183915895     A.U. after   13 cycles
 SCF Done:  E(RB3LYP) =  -418.184239773     A.U. after   12 cycles
 SCF Done:  E(RB3LYP) =  -418.184532543     A.U. after   12 cycles
 SCF Done:  E(RB3LYP) =  -418.184669565     A.U. after   12 cycles
 SCF Done:  E(RB3LYP) =  -418.184748592     A.U. after   12 cycles
 SCF Done:  E(RB3LYP) =  -418.184750142     A.U. after    8 cycles
 SCF Done:  E(RB3LYP) =  -418.184750517     A.U. after    8 cycles
 Optimization completed.
    -- Stationary point found.
 Normal termination of Gaussian 16 at Thu Aug  4 11:48:19 2022.

 ----------------------------------------------------------------------
 #N Geom=AllCheck Guess=TCheck SCRF=Check GenChk RB3LYP/6-31G(2df,p) Fr
 eq
 ----------------------------------------------------------------------

 Structure from the checkpoint file:  "CCc1ccnnc1O.chk"
 -------------------
 Title Card Required
 -------------------
 Charge =  0 Multiplicity = 1

                         Standard orientation:
 ---------------------------------------------------------------------
 Center     Atomic      Atomic             Coordinates (Angstroms)
 Number     Number       Type             X           Y           Z
 ---------------------------------------------------------------------
      1          6           0        2.683881   -0.369200    0.689147
      2          6           0        1.808917   -0.604656   -0.555841
      3          6           0        0.339769   -0.427352   -0.280289
      4          6           0       -0.560275   -1.466513   -0.167513
      5          6           0       -1.902773   -1.177475    0.106398
      6          7           0       -2.366806    0.055477    0.261013
      7          7           0       -1.515204    1.074478    0.151527
      8          6           0       -0.235134    0.848262   -0.102449
      9          8           0        0.557606    1.935937   -0.199618
     10          1           0        3.741281   -0.502704    0.442795
     11          1           0        2.428498   -1.073069    1.487239
     12          1           0        2.547627    0.645479    1.071137
     13          1           0        1.977070   -1.615993   -0.941231
     14          1           0        2.111696    0.095871   -1.341827
     15          1           0       -0.235242   -2.494895   -0.292398
     16          1           0       -2.639865   -1.968200    0.203505
     17          1           0       -0.024154    2.697929   -0.056785
 ---------------------------------------------------------------------

 SCF Done:  E(RB3LYP) =  -418.184750517     A.U. after    1 cycles

 The electronic state is 1-A.
 Alpha  occ. eigenvalues --  -19.18362 -14.35649 -14.35241 -10.27908 -10.21870
 Alpha  occ. eigenvalues --  -10.21769 -10.21161 -10.20181 -10.18507  -1.08635
 Alpha  occ. eigenvalues --   -1.00311  -0.83892  -0.81241  -0.76103  -0.67346
 Alpha  occ. eigenvalues --   -0.65476  -0.61189  -0.56552  -0.51781  -0.48903
 Alpha  occ. eigenvalues --   -0.45511  -0.44548  -0.43209  -0.41943  -0.41138
 Alpha  occ. eigenvalues --   -0.38658  -0.37592  -0.36276  -0.35435  -0.31453
 Alpha  occ. eigenvalues --   -0.29385  -0.25194  -0.23461
 Alpha virt. eigenvalues --   -0.04297  -0.00722   0.07968   0.09699   0.11455
 Alpha virt. eigenvalues --    0.13640   0.14376   0.14700   0.16266   0.17426
 Alpha virt. eigenvalues --    0.17865   0.20226   0.22499   0.23422   0.26591

 Mulliken charges:
               1
     1  C   -0.378075
     2  C   -0.292193
     3  C    0.216510
     4  C   -0.188797
     5  C    0.017086
     6  N   -0.205089
     7  N   -0.298428
     8  C    0.394077
     9  O   -0.409799
    10  H    0.119443
    11  H    0.120571
    12  H    0.141537
    13  H    0.105490
    14  H    0.126569
    15  H    0.110720
    16  H    0.117957
    17  H    0.302422
 Sum of Mulliken charges =   0.00000

 Dipole moment (field-independent basis, Debye):
    X=              2.6231    Y=             -1.5606    Z=             -0.5073  Tot=              3.0941
 Quadrupole moment (field-independent basis, Debye-Ang):
   XX=            -58.9989   YY=            -45.4559   ZZ=            -53.0272
   XY=              2.6857   XZ=              0.8865   YZ=              0.1220

  Exact polarizability:  98.071   4.237  87.539  -4.936   1.265  47.694
 Approx polarizability: 153.744   6.560 150.916 -13.630   2.781  74.519

                      1                      2                      3
                      A                      A                      A
 Frequencies --     77.9077               123.8088               207.1084
 Red. masses --      2.5769                 4.5678                 1.7860
 Frc consts  --      0.0092                 0.0413                 0.0451
 IR Inten    --      0.1675                 1.5898                 0.5849

                      4                      5                      6
                      A                      A                      A
 Frequencies --    221.0685               301.4336               342.5800
 Red. masses --      2.0290                 2.0690                 4.0994
 Frc consts  --      0.0584                 0.1108                 0.2835
 IR Inten    --      1.5303                 2.0410                 0.5912

                      7                      8                      9
                      A                      A                      A
 Frequencies --    442.2470               465.7808               540.2354
 Red. masses --      3.4832                 2.6801                 3.0704
 Frc consts  --      0.4014                 0.3426                 0.5280
 IR Inten    --      8.5643                15.4956                18.9643

                     10                     11                     12
                      A                      A                      A
 Frequencies --    589.0048               621.1947               631.1500
 Red. masses --      1.6472                 6.1448                 5.8351
 Frc consts  --      0.3367                 1.3971                 1.3695
 IR Inten    --     59.6901                13.7188                 8.1438

                     13                     14                     15
                      A                      A                      A
 Frequencies --    748.4777               789.3706               819.9244
 Red. masses --      4.2394                 1.3490                 4.7606
 Frc consts  --      1.3993                 0.4952                 1.8857
 IR Inten    --      0.2879                 2.8575                 5.4103

                     16                     17                     18
                      A                      A                      A
 Frequencies --    879.5494               888.5244               980.4624
 Red. masses --      1.2903                 3.8228                 2.2712
 Frc consts  --      0.5881                 1.7782                 1.2864
 IR Inten    --     14.1522                16.9382                 0.9735

                     19                     20                     21
                      A                      A                      A
 Frequencies --    982.3994              1062.8977              1081.0902
 Red. masses --      1.5007                 1.8762                 2.2474
 Frc consts  --      0.8534                 1.2489                 1.5476
 IR Inten    --      0.9919                 8.7474                14.3046

                     22                     23                     24
                      A                      A                      A
 Frequencies --   1092.5543              1148.2990              1210.1246
 Red. masses --      1.8054                 1.9159                 3.4969
 Frc consts  --      1.2697                 1.4885                 3.0172
 IR Inten    --      3.2518                40.2713                39.6755

                     25                     26                     27
                      A                      A                      A
 Frequencies --   1242.3012              1272.6991              1294.2847
 Red. masses --      2.5712                 1.4716                 1.7320
 Frc consts  --      2.3379                 1.4044                 1.7095
 IR Inten    --      0.1745                13.6931                63.3078

                     28                     29                     30
                      A                      A                      A
 Frequencies --   1344.0314              1355.8700              1405.9430
 Red. masses --      1.6246                 1.6111                 1.2312
 Frc consts  --      1.7291                 1.7451                 1.4339
 IR Inten    --      0.8421                 8.9907                 9.0387

                     31                     32                     33
                      A                      A                      A
 Frequencies --   1428.1069              1479.2407              1492.7921
 Red. masses --      3.1389                 1.2926                 1.6095
 Frc consts  --      3.7718                 1.6664                 2.1131
 IR Inten    --    196.3816                 2.6943                44.4908

                     34                     35                     36
                      A                      A                      A
 Frequencies --   1499.7127              1509.9272              1610.9591
 Red. masses --      1.2235                 1.0657                 6.1839
 Frc consts  --      1.6214                 1.4315                 9.4555
 IR Inten    --      3.3578                 1.8922                22.6634

                     37                     38                     39
                      A                      A                      A
 Frequencies --   1630.8834              3038.7860              3043.3502
 Red. masses --      5.8385                 1.0582                 1.0357
 Frc consts  --      9.1495                 5.7571                 5.6517
 IR Inten    --      6.3446                19.1467                27.6340

                     40                     41                     42
                      A                      A                      A
 Frequencies --   3079.3224              3113.0788              3129.4504
 Red. masses --      1.1030                 1.1023                 1.1020
 Frc consts  --      6.1620                 6.2942                 6.3586
 IR Inten    --      7.6490                28.4654                19.1141

                     43                     44                     45
                      A                      A                      A
 Frequencies --   3172.1959              3189.0944              3737.4741
 Red. masses --      1.0872                 1.0952                 1.0638
 Frc consts  --      6.4456                 6.5628                 8.7553
 IR Inten    --      5.7049                15.8929                75.2333

 - Thermochemistry -
 -------------------
 Temperature   298.150 Kelvin.  Pressure   1.00000 Atm.
 Atom     1 has atomic number  6 and mass  12.00000

 Molecular mass:   124.06366 amu.
 Principal axes and moments of inertia in atomic units:
                           1         2         3
     Eigenvalues --   630.478691253.924651746.89991
           X            0.99995  -0.00255   0.00915
           Y            0.00252   0.99999   0.00298
           Z           -0.00915  -0.00296   0.99995
 This molecule is an asymmetric top.
 Rotational symmetry number  1.
 Warning -- assumption of classical behavior for rotation
           may cause significant error
 Rotational temperatures (Kelvin)      0.13738     0.06907     0.04958
 Rotational constants (GHZ):           2.86249     1.43927     1.03311
 Zero-point vibrational energy     360774.0 (Joules/Mol)
                                   86.22705 (Kcal/Mol)
 Warning -- explicit consideration of  10 degrees of freedom as
           vibrations may cause significant error
 Vibrational temperatures:    112.09   178.13   297.98   318.07   433.70
          (Kelvin)            492.90   636.29   670.15   777.28   847.45
                              893.76   908.08  1076.89  1135.73  1179.69
                             1265.48  1278.39  1410.67  1413.45  1529.27
                             1555.45  1571.94  1652.15  1741.10  1787.39
                             1831.13  1862.19  1933.76  1950.79  2022.84
                             2054.73  2128.30  2147.79  2157.75  2172.45
                             2317.81  2346.48  4372.14  4378.70  4430.46
                             4479.03  4502.58  4564.08  4588.40  5377.39

 Zero-point correction=                           0.137412 (Hartree/Particle)
 Thermal correction to Energy=                    0.145411
 Thermal correction to Enthalpy=                  0.146355
 Thermal correction to Gibbs Free Energy=         0.104642
 Sum of electronic and zero-point Energies=           -418.047339
 Sum of electronic and thermal Energies=              -418.039340
 Sum of electronic and thermal Enthalpies=            -418.038396
 Sum of electronic and thermal Free Energies=         -418.080108

                     E (Thermal)             CV                S
                      KCal/Mol        Cal/Mol-Kelvin    Cal/Mol-Kelvin
 Total                   91.247             30.177             87.792
 Electronic               0.000              0.000              0.000
 Translational            0.889              2.981             40.361
 Rotational               0.889              2.981             28.714
 Vibrational             89.469             24.215             18.717
 Vibration     1          0.599              1.964              3.943
 Vibration     2          0.610              1.929              3.040
 Vibration     3          0.641              1.830              2.069
 Vibration     4          0.648              1.809              1.950
 Vibration     5          0.693              1.671              1.409
 Vibration     6          0.722              1.590              1.200
 Vibration     7          0.802              1.378              0.820
 Vibration     8          0.823              1.326              0.749
 Vibration     9          0.895              1.161              0.565
 Vibration    10          0.946              1.055              0.469

 Optimization completed.
    -- Stationary point found.
 Normal termination of Gaussian 16 at Thu Aug  4 12:13:43 2022.
