 Gaussian 16, Revision A.03,
 Gaussian 16:  ES64L-G16RevA.03 25-Dec-2016

 -----------------------------
 # opt freq b3lyp/6-31g(2df,p)
 -----------------------------

 -------------------
 Title Card Required
 -------------------
 Symbolic Z-matrix:
 Charge =  0 Multiplicity = 1

 SCF Done:  E(RB3LYP) =  -404.531948231     A.U. after   13 cycles
 SCF Done:  E(RB3LYP) =  -404.536510077     A.U. after   11 cycles
 SCF Done:  E(RB3LYP) =  -404.537264217     A.U. after   10 cycles
 SCF Done:  E(RB3LYP) =  -404.538159743     A.U. after   11 cycles
 SCF Done:  E(RB3LYP) =  -404.540916731     A.U. after   12 cycles
 SCF Done:  E(RB3LYP) =  -404.542450209     A.U. after   12 cycles
 SCF Done:  E(RB3LYP) =  -404.544432007     A.U. after   10 cycles
 SCF Done:  E(RB3LYP) =  -404.547816175     A.U. after   11 cycles
 SCF Done:  E(RB3LYP) =  -404.548541560     A.U. after   11 cycles
 SCF Done:  E(RB3LYP) =  -404.548693167     A.U. after   11 cycles
 SCF Done:  E(RB3LYP) =  -404.548892456     A.U. after   10 cycles
 SCF Done:  E(RB3LYP) =  -404.548961889     A.U. after    9 cycles
 SCF Done:  E(RB3LYP) =  -404.548982867     A.U. after    9 cycles
 SCF Done:  E(RB3LYP) =  -404.548985580     A.U. after    8 cycles
 SCF Done:  E(RB3LYP) =  -404.548986389     A.U. after    7 cycles
 SCF Done:  E(RB3LYP) =  -404.548986534     A.U. after    7 cycles
 SCF Done:  E(RB3LYP) =  -404.548986643     A.U. after    7 cycles
 Optimization completed.
    -- Stationary point found.
 Normal termination of Gaussian 16 at Mon Jul  4 01:11:35 2022.

 ----------------------------------------------------------------------
 #N Geom=AllCheck Guess=TCheck SCRF=Check GenChk RB3LYP/6-31G(2df,p) Fr
 eq
 ----------------------------------------------------------------------

 Structure from the checkpoint file:  "CCC1dCCNpCpC1O.chk"
 -------------------
 Title Card Required
 -------------------
 Charge =  0 Multiplicity = 1

                         Standard orientation:
 ---------------------------------------------------------------------
 Center     Atomic      Atomic             Coordinates (Angstroms)
 Number     Number       Type             X           Y           Z
 ---------------------------------------------------------------------
      1          6           0       -2.944773   -0.550627    0.350926
      2          6           0       -2.186318    0.432442   -0.560825
      3          6           0       -0.723298    0.561528   -0.252928
      4          6           0       -0.080863    1.602700    0.280620
      5          6           0        1.394731    1.337336    0.387001
      6          7           0        1.545307    0.094944   -0.358997
      7          6           0        2.719213   -0.710754   -0.114312
      8          6           0        0.266474   -0.568000   -0.478263
      9          8           0        0.053312   -1.657090    0.442179
     10          1           0       -3.996365   -0.614736    0.054556
     11          1           0       -2.908720   -0.217151    1.393661
     12          1           0       -2.505491   -1.549172    0.303070
     13          1           0       -2.650573    1.423002   -0.495303
     14          1           0       -2.301369    0.104498   -1.603127
     15          1           0       -0.532801    2.538526    0.588627
     16          1           0        1.716981    1.262042    1.443997
     17          1           0        2.000253    2.139825   -0.060343
     18          1           0        3.618868   -0.106562   -0.275625
     19          1           0        2.744851   -1.547635   -0.819035
     20          1           0        2.769177   -1.132922    0.903545
     21          1           0        0.171958   -1.062916   -1.453605
     22          1           0       -0.041413   -1.272435    1.321819
 ---------------------------------------------------------------------

 SCF Done:  E(RB3LYP) =  -404.548986643     A.U. after    1 cycles

 The electronic state is 1-A.
 Alpha  occ. eigenvalues --  -19.13025 -14.31181 -10.24883 -10.20848 -10.19633
 Alpha  occ. eigenvalues --  -10.18662 -10.18362 -10.18134 -10.17152  -1.01580
 Alpha  occ. eigenvalues --   -0.91838  -0.80470  -0.75178  -0.70580  -0.67221
 Alpha  occ. eigenvalues --   -0.61587  -0.58353  -0.54682  -0.49458  -0.47261
 Alpha  occ. eigenvalues --   -0.45916  -0.44258  -0.41758  -0.41570  -0.40979
 Alpha  occ. eigenvalues --   -0.39961  -0.37496  -0.36794  -0.36126  -0.34957
 Alpha  occ. eigenvalues --   -0.33435  -0.32440  -0.27591  -0.24399  -0.20742
 Alpha virt. eigenvalues --    0.01459   0.08185   0.10846   0.11774   0.13603
 Alpha virt. eigenvalues --    0.13991   0.15240   0.15386   0.16343   0.17110
 Alpha virt. eigenvalues --    0.17505   0.18124   0.18370   0.18606   0.19739

 Mulliken charges:
               1
     1  C   -0.380520
     2  C   -0.292012
     3  C    0.310781
     4  C   -0.198664
     5  C   -0.209204
     6  N   -0.059570
     7  C   -0.315915
     8  C    0.019843
     9  O   -0.422832
    10  H    0.109384
    11  H    0.108814
    12  H    0.142659
    13  H    0.100820
    14  H    0.106865
    15  H    0.096288
    16  H    0.087359
    17  H    0.107510
    18  H    0.112835
    19  H    0.123792
    20  H    0.096050
    21  H    0.083903
    22  H    0.271815
 Sum of Mulliken charges =  -0.00000

 Dipole moment (field-independent basis, Debye):
    X=             -0.1406    Y=              1.2992    Z=              0.7756  Tot=              1.5197
 Quadrupole moment (field-independent basis, Debye-Ang):
   XX=            -53.4829   YY=            -57.6393   ZZ=            -53.9681
   XY=             -0.4415   XZ=              1.0548   YZ=              1.3123

  Exact polarizability: 101.591   5.123  85.838   4.190   5.464  68.833
 Approx polarizability: 125.738  12.435 131.971   8.274  11.982 108.876

                      1                      2                      3
                      A                      A                      A
 Frequencies --     62.6444               102.5628               167.1037
 Red. masses --      2.7303                 2.7185                 1.7580
 Frc consts  --      0.0063                 0.0168                 0.0289
 IR Inten    --      0.3275                 0.7570                 0.6302

                      4                      5                      6
                      A                      A                      A
 Frequencies --    191.0931               200.8615               218.9987
 Red. masses --      3.0322                 1.4223                 1.3292
 Frc consts  --      0.0652                 0.0338                 0.0376
 IR Inten    --      5.3017                 2.1851                 2.9008

                      7                      8                      9
                      A                      A                      A
 Frequencies --    284.3035               292.6609               326.2127
 Red. masses --      2.7870                 1.7574                 2.8088
 Frc consts  --      0.1327                 0.0887                 0.1761
 IR Inten    --      0.9131                 0.2800                 3.8747

                     10                     11                     12
                      A                      A                      A
 Frequencies --    372.7722               403.3681               506.2674
 Red. masses --      2.1213                 1.2382                 3.4370
 Frc consts  --      0.1737                 0.1187                 0.5190
 IR Inten    --      5.3855                81.5393                18.7487

                     13                     14                     15
                      A                      A                      A
 Frequencies --    590.7563               632.7357               700.0505
 Red. masses --      4.1257                 4.1263                 4.0895
 Frc consts  --      0.8483                 0.9733                 1.1808
 IR Inten    --      8.5959                 1.8061                 4.8690

                     16                     17                     18
                      A                      A                      A
 Frequencies --    788.5321               829.9929               881.4164
 Red. masses --      1.2053                 1.2942                 2.8840
 Frc consts  --      0.4415                 0.5253                 1.3201
 IR Inten    --      2.8800                 4.6621                63.3452

                     19                     20                     21
                      A                      A                      A
 Frequencies --    897.9401               947.8446               972.4934
 Red. masses --      3.3702                 2.3897                 2.2067
 Frc consts  --      1.6010                 1.2650                 1.2296
 IR Inten    --     15.7023                35.7209                 2.3292

                     22                     23                     24
                      A                      A                      A
 Frequencies --    996.3435              1028.8866              1062.8886
 Red. masses --      3.4791                 1.7372                 1.9107
 Frc consts  --      2.0349                 1.0835                 1.2718
 IR Inten    --     72.2245                 6.3420                30.2067

                     25                     26                     27
                      A                      A                      A
 Frequencies --   1078.8984              1093.4588              1143.6548
 Red. masses --      1.7308                 1.5349                 1.2488
 Frc consts  --      1.1871                 1.0812                 0.9623
 IR Inten    --      1.3995                 3.0439                 7.7360

                     28                     29                     30
                      A                      A                      A
 Frequencies --   1177.2420              1193.9230              1214.0374
 Red. masses --      1.6725                 1.2703                 2.0992
 Frc consts  --      1.3656                 1.0668                 1.8230
 IR Inten    --      5.6928                 3.1111                34.9031

                     31                     32                     33
                      A                      A                      A
 Frequencies --   1251.9784              1264.5598              1282.7983
 Red. masses --      1.8438                 1.4054                 1.8777
 Frc consts  --      1.7027                 1.3241                 1.8205
 IR Inten    --     13.2974                 2.0177                12.0172

                     34                     35                     36
                      A                      A                      A
 Frequencies --   1323.4435              1354.6572              1377.9219
 Red. masses --      1.5349                 1.5538                 1.9450
 Frc consts  --      1.5840                 1.6799                 2.1758
 IR Inten    --     12.4941                 9.5355                29.3173

                     37                     38                     39
                      A                      A                      A
 Frequencies --   1387.0779              1407.7149              1431.0813
 Red. masses --      1.9106                 1.2264                 1.1862
 Frc consts  --      2.1658                 1.4319                 1.4314
 IR Inten    --     34.3670                 1.3996                40.9558

                     40                     41                     42
                      A                      A                      A
 Frequencies --   1460.2772              1482.8810              1487.3326
 Red. masses --      1.1501                 1.0776                 1.0656
 Frc consts  --      1.4449                 1.3961                 1.3889
 IR Inten    --      4.8919                 3.7933                12.9348

                     43                     44                     45
                      A                      A                      A
 Frequencies --   1496.3102              1507.8312              1514.8093
 Red. masses --      1.0402                 1.0641                 1.0636
 Frc consts  --      1.3721                 1.4254                 1.4379
 IR Inten    --      5.5585                 8.5855                 3.9398

                     46                     47                     48
                      A                      A                      A
 Frequencies --   1520.6118              1714.9104              2907.7060
 Red. masses --      1.0889                 7.4905                 1.0752
 Frc consts  --      1.4835                12.9790                 5.3558
 IR Inten    --      1.8445                 0.1524                71.3168

                     49                     50                     51
                      A                      A                      A
 Frequencies --   2960.4310              2994.8293              3012.1410
 Red. masses --      1.0564                 1.0823                 1.0646
 Frc consts  --      5.4551                 5.7194                 5.6908
 IR Inten    --     93.2049                53.0143                16.4690

                     52                     53                     54
                      A                      A                      A
 Frequencies --   3022.8470              3036.6831              3053.1934
 Red. masses --      1.0841                 1.0373                 1.0769
 Frc consts  --      5.8366                 5.6359                 5.9147
 IR Inten    --     51.5880                32.1146                42.9652

                     55                     56                     57
                      A                      A                      A
 Frequencies --   3059.3490              3100.2342              3101.2459
 Red. masses --      1.0964                 1.1014                 1.1017
 Frc consts  --      6.0460                 6.2371                 6.2427
 IR Inten    --     21.5259                19.1996                40.0907

                     58                     59                     60
                      A                      A                      A
 Frequencies --   3134.3590              3199.0416              3787.1170
 Red. masses --      1.1004                 1.0945                 1.0658
 Frc consts  --      6.3693                 6.5991                 9.0060
 IR Inten    --     15.3847                11.9448                 9.7665

 - Thermochemistry -
 -------------------
 Temperature   298.150 Kelvin.  Pressure   1.00000 Atm.
 Atom     1 has atomic number  6 and mass  12.00000

 Molecular mass:   127.09971 amu.
 Principal axes and moments of inertia in atomic units:
                           1         2         3
     Eigenvalues --   605.029471509.614621904.90431
           X            1.00000   0.00054   0.00260
           Y           -0.00057   0.99989   0.01472
           Z           -0.00259  -0.01472   0.99989
 This molecule is an asymmetric top.
 Rotational symmetry number  1.
 Warning -- assumption of classical behavior for rotation
           may cause significant error
 Rotational temperatures (Kelvin)      0.14316     0.05737     0.04547
 Rotational constants (GHZ):           2.98290     1.19550     0.94742
 Zero-point vibrational energy     508384.9 (Joules/Mol)
                                  121.50691 (Kcal/Mol)
 Warning -- explicit consideration of  13 degrees of freedom as
           vibrations may cause significant error
 Vibrational temperatures:     90.13   147.56   240.42   274.94   288.99
          (Kelvin)            315.09   409.05   421.07   469.35   536.34
                              580.36   728.41   849.97   910.37  1007.22
                             1134.52  1194.17  1268.16  1291.94  1363.74
                             1399.20  1433.52  1480.34  1529.26  1552.29
                             1573.24  1645.46  1693.79  1717.79  1746.73
                             1801.32  1819.42  1845.66  1904.14  1949.05
                             1982.52  1995.70  2025.39  2059.01  2101.01
                             2133.53  2139.94  2152.86  2169.43  2179.47
                             2187.82  2467.37  4183.54  4259.40  4308.89
                             4333.80  4349.20  4369.11  4392.86  4401.72
                             4460.55  4462.00  4509.64  4602.71  5448.82

 Zero-point correction=                           0.193634 (Hartree/Particle)
 Thermal correction to Energy=                    0.203524
 Thermal correction to Enthalpy=                  0.204468
 Thermal correction to Gibbs Free Energy=         0.158960
 Sum of electronic and zero-point Energies=           -404.355353
 Sum of electronic and thermal Energies=              -404.345462
 Sum of electronic and thermal Enthalpies=            -404.344518
 Sum of electronic and thermal Free Energies=         -404.390027

                     E (Thermal)             CV                S
                      KCal/Mol        Cal/Mol-Kelvin    Cal/Mol-Kelvin
 Total                  127.713             36.743             95.781
 Electronic               0.000              0.000              0.000
 Translational            0.889              2.981             40.433
 Rotational               0.889              2.981             28.944
 Vibrational            125.936             30.781             26.405
 Vibration     1          0.597              1.972              4.372
 Vibration     2          0.605              1.947              3.405
 Vibration     3          0.624              1.883              2.468
 Vibration     4          0.634              1.852              2.217
 Vibration     5          0.638              1.839              2.125
 Vibration     6          0.647              1.812              1.967
 Vibration     7          0.683              1.703              1.508
 Vibration     8          0.688              1.687              1.459
 Vibration     9          0.710              1.623              1.279
 Vibration    10          0.744              1.528              1.068
 Vibration    11          0.769              1.463              0.950
 Vibration    12          0.861              1.236              0.643
 Vibration    13          0.948              1.051              0.466

 Optimization completed.
    -- Stationary point found.
 Normal termination of Gaussian 16 at Mon Jul  4 01:47:11 2022.
