 Gaussian 16, Revision A.03,
 Gaussian 16:  ES64L-G16RevA.03 25-Dec-2016

 -----------------------------
 # opt freq b3lyp/6-31g(2df,p)
 -----------------------------

 -------------------
 Title Card Required
 -------------------
 Symbolic Z-matrix:
 Charge =  0 Multiplicity = 1

 SCF Done:  E(RB3LYP) =  -311.830309732     A.U. after   15 cycles
 SCF Done:  E(RB3LYP) =  -311.887709951     A.U. after   13 cycles
 SCF Done:  E(RB3LYP) =  -311.946915559     A.U. after   13 cycles
 SCF Done:  E(RB3LYP) =  -311.974775053     A.U. after   13 cycles
 SCF Done:  E(RB3LYP) =  -312.016584541     A.U. after   13 cycles
 SCF Done:  E(RB3LYP) =  -312.039345358     A.U. after   11 cycles
 SCF Done:  E(RB3LYP) =  -312.050929649     A.U. after   11 cycles
 SCF Done:  E(RB3LYP) =  -312.054421851     A.U. after   10 cycles
 SCF Done:  E(RB3LYP) =  -312.055360287     A.U. after   10 cycles
 SCF Done:  E(RB3LYP) =  -312.055535762     A.U. after   10 cycles
 SCF Done:  E(RB3LYP) =  -312.055613699     A.U. after    8 cycles
 SCF Done:  E(RB3LYP) =  -312.055621328     A.U. after    7 cycles
 SCF Done:  E(RB3LYP) =  -312.055622049     A.U. after    7 cycles
 SCF Done:  E(RB3LYP) =  -312.055622266     A.U. after    7 cycles
 Optimization completed.
    -- Stationary point found.
 Normal termination of Gaussian 16 at Thu Aug  4 04:58:25 2022.

 ----------------------------------------------------------------------
 #N Geom=AllCheck Guess=TCheck SCRF=Check GenChk RB3LYP/6-31G(2df,p) Fr
 eq
 ----------------------------------------------------------------------

 Structure from the checkpoint file:  "CCC1dCCC2CC12.chk"
 -------------------
 Title Card Required
 -------------------
 Charge =  0 Multiplicity = 1

                         Standard orientation:
 ---------------------------------------------------------------------
 Center     Atomic      Atomic             Coordinates (Angstroms)
 Number     Number       Type             X           Y           Z
 ---------------------------------------------------------------------
      1          6           0       -2.815035   -0.245349    0.548362
      2          6           0       -1.879514    0.127192   -0.615675
      3          6           0       -0.441917    0.260041   -0.204455
      4          6           0        0.306393    1.369555   -0.234884
      5          6           0        1.712878    1.147653    0.279627
      6          6           0        1.761811   -0.359032    0.534833
      7          6           0        1.529787   -1.284947   -0.630333
      8          6           0        0.369540   -0.907689    0.271763
      9          1           0       -3.849623   -0.333214    0.202508
     10          1           0       -2.781482    0.515769    1.334109
     11          1           0       -2.533653   -1.202415    0.999053
     12          1           0       -2.215940    1.068773   -1.063854
     13          1           0       -1.965985   -0.641420   -1.396392
     14          1           0       -0.032129    2.330546   -0.608375
     15          1           0        1.896138    1.715541    1.202541
     16          1           0        2.477162    1.475938   -0.437471
     17          1           0        2.355963   -0.729995    1.361629
     18          1           0        1.927961   -2.290997   -0.544091
     19          1           0        1.539113   -0.877971   -1.636941
     20          1           0       -0.081188   -1.675098    0.891856
 ---------------------------------------------------------------------

 SCF Done:  E(RB3LYP) =  -312.055622266     A.U. after    1 cycles

 The electronic state is 1-A.
 Alpha  occ. eigenvalues --  -10.18299 -10.18234 -10.18109 -10.17862 -10.17854
 Alpha  occ. eigenvalues --  -10.17648 -10.17307 -10.16509  -0.87783  -0.78189
 Alpha  occ. eigenvalues --   -0.74286  -0.68760  -0.61102  -0.59885  -0.55231
 Alpha  occ. eigenvalues --   -0.51754  -0.49317  -0.44065  -0.43863  -0.40984
 Alpha  occ. eigenvalues --   -0.40399  -0.39544  -0.37154  -0.36323  -0.34066
 Alpha  occ. eigenvalues --   -0.32792  -0.32200  -0.30093  -0.27044  -0.21680
 Alpha virt. eigenvalues --    0.02955   0.09571   0.11165   0.12493   0.14141
 Alpha virt. eigenvalues --    0.14770   0.15090   0.15769   0.16375   0.17203
 Alpha virt. eigenvalues --    0.18422   0.18705   0.19383   0.20774   0.22708

 Mulliken charges:
               1
     1  C   -0.372713
     2  C   -0.293610
     3  C    0.354092
     4  C   -0.198577
     5  C   -0.264856
     6  C   -0.031253
     7  C   -0.278475
     8  C   -0.128681
     9  H    0.111640
    10  H    0.119962
    11  H    0.118384
    12  H    0.099315
    13  H    0.102947
    14  H    0.080596
    15  H    0.102283
    16  H    0.104127
    17  H    0.081298
    18  H    0.104772
    19  H    0.108256
    20  H    0.080495
 Sum of Mulliken charges =  -0.00000

 Dipole moment (field-independent basis, Debye):
    X=             -0.1181    Y=             -0.1711    Z=              0.0869  Tot=              0.2254
 Quadrupole moment (field-independent basis, Debye-Ang):
   XX=            -48.9963   YY=            -48.2484   ZZ=            -49.8408
   XY=             -0.0962   XZ=              0.8772   YZ=             -0.8213

  Exact polarizability:  93.341   4.414  83.927   2.073  -0.127  65.279
 Approx polarizability: 123.410  12.534 129.956   2.941   0.321  99.103

                      1                      2                      3
                      A                      A                      A
 Frequencies --     68.8489               144.6409               205.7775
 Red. masses --      2.2932                 2.5140                 1.4177
 Frc consts  --      0.0064                 0.0310                 0.0354
 IR Inten    --      0.0279                 0.5819                 0.1397

                      4                      5                      6
                      A                      A                      A
 Frequencies --    261.9634               302.1663               350.9989
 Red. masses --      1.8406                 2.3238                 2.0275
 Frc consts  --      0.0744                 0.1250                 0.1472
 IR Inten    --      0.3088                 0.4223                 0.7722

                      7                      8                      9
                      A                      A                      A
 Frequencies --    396.2298               573.6405               629.1292
 Red. masses --      2.2405                 3.6586                 3.1116
 Frc consts  --      0.2072                 0.7093                 0.7256
 IR Inten    --      2.2356                 0.3676                 2.5434

                     10                     11                     12
                      A                      A                      A
 Frequencies --    715.0401               769.0204               798.6185
 Red. masses --      2.9772                 1.6538                 1.4246
 Frc consts  --      0.8969                 0.5763                 0.5353
 IR Inten    --      3.7895                 5.3056                 3.8546

                     13                     14                     15
                      A                      A                      A
 Frequencies --    811.4945               828.5123               847.7109
 Red. masses --      1.6678                 1.2706                 2.4741
 Frc consts  --      0.6471                 0.5139                 1.0475
 IR Inten    --      5.4194                 9.9702                 0.9624

                     16                     17                     18
                      A                      A                      A
 Frequencies --    899.9331               954.0332               956.2319
 Red. masses --      1.9830                 2.0563                 2.0290
 Frc consts  --      0.9462                 1.1027                 1.0931
 IR Inten    --      3.4483                 5.4628                 2.5402

                     19                     20                     21
                      A                      A                      A
 Frequencies --    996.0763              1003.8789              1052.6533
 Red. masses --      1.8708                 2.5013                 1.4926
 Frc consts  --      1.0936                 1.4852                 0.9744
 IR Inten    --      2.9478                 1.3332                 6.3955

                     22                     23                     24
                      A                      A                      A
 Frequencies --   1065.2562              1071.5736              1095.4149
 Red. masses --      1.7273                 1.4126                 1.5055
 Frc consts  --      1.1548                 0.9557                 1.0644
 IR Inten    --      1.5848                 5.3633                 2.3108

                     25                     26                     27
                      A                      A                      A
 Frequencies --   1099.5536              1101.8809              1180.2663
 Red. masses --      1.4148                 1.2493                 1.4493
 Frc consts  --      1.0078                 0.8937                 1.1895
 IR Inten    --      0.4506                 1.0691                 2.8513

                     28                     29                     30
                      A                      A                      A
 Frequencies --   1189.8969              1207.3334              1259.3255
 Red. masses --      1.5396                 1.7265                 1.4038
 Frc consts  --      1.2843                 1.4828                 1.3117
 IR Inten    --      0.3028                 1.2344                 0.1829

                     31                     32                     33
                      A                      A                      A
 Frequencies --   1295.5006              1314.9051              1354.7770
 Red. masses --      1.2254                 1.7850                 1.5145
 Frc consts  --      1.2117                 1.8183                 1.6377
 IR Inten    --      1.4052                 3.7526                 4.6228

                     34                     35                     36
                      A                      A                      A
 Frequencies --   1373.8168              1383.1518              1407.0612
 Red. masses --      1.7972                 2.3918                 1.2273
 Frc consts  --      1.9985                 2.6959                 1.4317
 IR Inten    --      2.0365                 3.6792                 1.1900

                     37                     38                     39
                      A                      A                      A
 Frequencies --   1473.9052              1479.9153              1486.0632
 Red. masses --      1.1792                 1.0722                 1.1313
 Frc consts  --      1.5093                 1.3835                 1.4720
 IR Inten    --      1.6909                 1.9225                 1.2332

                     40                     41                     42
                      A                      A                      A
 Frequencies --   1498.3087              1507.1522              1699.9424
 Red. masses --      1.0408                 1.0688                 7.2096
 Frc consts  --      1.3767                 1.4305                12.2752
 IR Inten    --      4.7430                 2.3058                 2.0467

                     43                     44                     45
                      A                      A                      A
 Frequencies --   3005.3939              3008.7403              3032.1937
 Red. masses --      1.0619                 1.0644                 1.0991
 Frc consts  --      5.6509                 5.6772                 5.9537
 IR Inten    --     57.6541                27.0732                26.5496

                     46                     47                     48
                      A                      A                      A
 Frequencies --   3035.8144              3059.8368              3105.5709
 Red. masses --      1.0344                 1.0963                 1.1013
 Frc consts  --      5.6170                 6.0473                 6.2579
 IR Inten    --     27.5432                13.6363                41.2394

                     49                     50                     51
                      A                      A                      A
 Frequencies --   3109.2541              3118.0306              3161.7234
 Red. masses --      1.1026                 1.0533                 1.0890
 Frc consts  --      6.2802                 6.0336                 6.4141
 IR Inten    --     31.7962                20.9000                18.4856

                     52                     53                     54
                      A                      A                      A
 Frequencies --   3175.7028              3182.5421              3207.0808
 Red. masses --      1.0931                 1.0934                 1.1154
 Frc consts  --      6.4952                 6.5252                 6.7592
 IR Inten    --     18.8700                13.7227                17.7806

 - Thermochemistry -
 -------------------
 Temperature   298.150 Kelvin.  Pressure   1.00000 Atm.
 Atom     1 has atomic number  6 and mass  12.00000

 Molecular mass:   108.09390 amu.
 Principal axes and moments of inertia in atomic units:
                           1         2         3
     Eigenvalues --   456.117171198.481021419.10156
           X            0.99997   0.00609  -0.00426
           Y           -0.00614   0.99993  -0.01018
           Z            0.00420   0.01021   0.99994
 This molecule is an asymmetric top.
 Rotational symmetry number  1.
 Warning -- assumption of classical behavior for rotation
           may cause significant error
 Rotational temperatures (Kelvin)      0.18989     0.07227     0.06103
 Rotational constants (GHZ):           3.95675     1.50586     1.27175
 Zero-point vibrational energy     468418.7 (Joules/Mol)
                                  111.95475 (Kcal/Mol)
 Warning -- explicit consideration of   8 degrees of freedom as
           vibrations may cause significant error
 Vibrational temperatures:     99.06   208.11   296.07   376.91   434.75
          (Kelvin)            505.01   570.09   825.34   905.18  1028.78
                             1106.45  1149.03  1167.56  1192.04  1219.67
                             1294.80  1372.64  1375.80  1433.13  1444.36
                             1514.53  1532.67  1541.76  1576.06  1582.01
                             1585.36  1698.14  1712.00  1737.08  1811.89
                             1863.94  1891.86  1949.22  1976.62  1990.05
                             2024.45  2120.62  2129.27  2138.11  2155.73
                             2168.46  2445.84  4324.09  4328.91  4362.65
                             4367.86  4402.42  4468.22  4473.52  4486.15
                             4549.01  4569.13  4578.97  4614.27

 Zero-point correction=                           0.178411 (Hartree/Particle)
 Thermal correction to Energy=                    0.186133
 Thermal correction to Enthalpy=                  0.187078
 Thermal correction to Gibbs Free Energy=         0.146315
 Sum of electronic and zero-point Energies=           -311.877211
 Sum of electronic and thermal Energies=              -311.869489
 Sum of electronic and thermal Enthalpies=            -311.868545
 Sum of electronic and thermal Free Energies=         -311.909308

                     E (Thermal)             CV                S
                      KCal/Mol        Cal/Mol-Kelvin    Cal/Mol-Kelvin
 Total                  116.801             30.029             85.793
 Electronic               0.000              0.000              0.000
 Translational            0.889              2.981             39.950
 Rotational               0.889              2.981             28.141
 Vibrational            115.023             24.067             17.702
 Vibration     1          0.598              1.969              4.186
 Vibration     2          0.616              1.908              2.742
 Vibration     3          0.640              1.832              2.081
 Vibration     4          0.669              1.742              1.649
 Vibration     5          0.694              1.670              1.405
 Vibration     6          0.728              1.573              1.162
 Vibration     7          0.763              1.478              0.977
 Vibration     8          0.930              1.088              0.497

                           ! Non-Optimized Parameters !
 Normal termination of Gaussian 16 at Thu Aug  4 05:27:56 2022.
