 Gaussian 16, Revision A.03,
 Gaussian 16:  ES64L-G16RevA.03 25-Dec-2016

 -----------------------------
 # opt freq b3lyp/6-31g(2df,p)
 -----------------------------

 -------------------
 Title Card Required
 -------------------
 Symbolic Z-matrix:
 Charge =  0 Multiplicity = 1

 SCF Done:  E(RB3LYP) =  -388.452455199     A.U. after   12 cycles
 SCF Done:  E(RB3LYP) =  -388.476708815     A.U. after   11 cycles
 SCF Done:  E(RB3LYP) =  -388.488384043     A.U. after   11 cycles
 SCF Done:  E(RB3LYP) =  -388.492863662     A.U. after   10 cycles
 SCF Done:  E(RB3LYP) =  -388.495289342     A.U. after   10 cycles
 SCF Done:  E(RB3LYP) =  -388.495867707     A.U. after   10 cycles
 SCF Done:  E(RB3LYP) =  -388.496063559     A.U. after   10 cycles
 SCF Done:  E(RB3LYP) =  -388.496142397     A.U. after    9 cycles
 SCF Done:  E(RB3LYP) =  -388.496173134     A.U. after    9 cycles
 SCF Done:  E(RB3LYP) =  -388.496236371     A.U. after    9 cycles
 SCF Done:  E(RB3LYP) =  -388.499626881     A.U. after   11 cycles
 SCF Done:  E(RB3LYP) =  -388.497264596     A.U. after   11 cycles
 SCF Done:  E(RB3LYP) =  -388.499955738     A.U. after   10 cycles
 SCF Done:  E(RB3LYP) =  -388.500003522     A.U. after    8 cycles
 SCF Done:  E(RB3LYP) =  -388.500019447     A.U. after    8 cycles
 SCF Done:  E(RB3LYP) =  -388.500026544     A.U. after    8 cycles
 SCF Done:  E(RB3LYP) =  -388.500029133     A.U. after    7 cycles
 SCF Done:  E(RB3LYP) =  -388.500029611     A.U. after    7 cycles
 SCF Done:  E(RB3LYP) =  -388.500029651     A.U. after    6 cycles
 Optimization completed.
    -- Stationary point found.
 Normal termination of Gaussian 16 at Thu Aug  4 15:06:25 2022.

 ----------------------------------------------------------------------
 #N Geom=AllCheck Guess=TCheck SCRF=Check GenChk RB3LYP/6-31G(2df,p) Fr
 eq
 ----------------------------------------------------------------------

 Structure from the checkpoint file:  "CCC12CC1CpCpCO2.chk"
 -------------------
 Title Card Required
 -------------------
 Charge =  0 Multiplicity = 1

                         Standard orientation:
 ---------------------------------------------------------------------
 Center     Atomic      Atomic             Coordinates (Angstroms)
 Number     Number       Type             X           Y           Z
 ---------------------------------------------------------------------
      1          6           0       -2.717772   -0.626046    0.845523
      2          6           0       -2.181973    0.450812   -0.104535
      3          6           0       -0.700098    0.339597   -0.351632
      4          6           0        0.162212    1.524827   -0.710349
      5          6           0        0.389893    0.764559    0.591323
      6          6           0        1.425483   -0.352336    0.580755
      7          6           0        2.890481    0.086211    0.591636
      8          6           0        1.033588   -1.142100   -0.692174
      9          8           0       -0.348038   -0.900059   -0.934654
     10          1           0       -3.800678   -0.534329    0.972223
     11          1           0       -2.254868   -0.544430    1.834893
     12          1           0       -2.500050   -1.622990    0.454540
     13          1           0       -2.391096    1.449834    0.294634
     14          1           0       -2.702099    0.386787   -1.068778
     15          1           0       -0.286529    2.509492   -0.631168
     16          1           0        0.882682    1.431119   -1.516246
     17          1           0        0.168634    1.259867    1.530606
     18          1           0        1.237161   -0.981650    1.460194
     19          1           0        3.104825    0.757923   -0.246500
     20          1           0        3.563636   -0.774875    0.513594
     21          1           0        3.137623    0.616654    1.516489
     22          1           0        1.176456   -2.222247   -0.592540
     23          1           0        1.637721   -0.803820   -1.547986
 ---------------------------------------------------------------------

 SCF Done:  E(RB3LYP) =  -388.500029651     A.U. after    1 cycles

 The electronic state is 1-A.
 Alpha  occ. eigenvalues --  -19.13368 -10.22912 -10.22154 -10.19055 -10.18291
 Alpha  occ. eigenvalues --  -10.17923 -10.17775 -10.17586 -10.16638  -1.03583
 Alpha  occ. eigenvalues --   -0.84483  -0.78762  -0.74762  -0.67748  -0.63210
 Alpha  occ. eigenvalues --   -0.62517  -0.55578  -0.54376  -0.49989  -0.47574
 Alpha  occ. eigenvalues --   -0.43872  -0.43484  -0.41813  -0.41305  -0.40106
 Alpha  occ. eigenvalues --   -0.39503  -0.37707  -0.35535  -0.34719  -0.33979
 Alpha  occ. eigenvalues --   -0.33793  -0.31356  -0.30248  -0.27147  -0.22414
 Alpha virt. eigenvalues --    0.08333   0.09359   0.10926   0.12347   0.12990
 Alpha virt. eigenvalues --    0.13831   0.15236   0.16560   0.16760   0.17344
 Alpha virt. eigenvalues --    0.17701   0.17983   0.18360   0.18751   0.19692

 Mulliken charges:
               1
     1  C   -0.376742
     2  C   -0.263529
     3  C    0.468016
     4  C   -0.375828
     5  C   -0.120490
     6  C    0.002073
     7  C   -0.400299
     8  C   -0.108297
     9  O   -0.301855
    10  H    0.106985
    11  H    0.109729
    12  H    0.132603
    13  H    0.095031
    14  H    0.106480
    15  H    0.108956
    16  H    0.112462
    17  H    0.083400
    18  H    0.077470
    19  H    0.117128
    20  H    0.113484
    21  H    0.116174
    22  H    0.106387
    23  H    0.090662
 Sum of Mulliken charges =   0.00000

 Dipole moment (field-independent basis, Debye):
    X=              0.7386    Y=              0.6019    Z=              0.8497  Tot=              1.2766
 Quadrupole moment (field-independent basis, Debye-Ang):
   XX=            -54.9800   YY=            -55.7579   ZZ=            -56.8188
   XY=             -2.4991   XZ=             -0.9665   YZ=             -0.6859

  Exact polarizability:  97.283  -2.130  81.908  -0.182  -1.653  75.859
 Approx polarizability: 121.728  -1.330 120.585   1.197  -0.963 116.561

                      1                      2                      3
                      A                      A                      A
 Frequencies --     84.0155               120.1804               168.1782
 Red. masses --      2.5268                 2.4136                 2.5163
 Frc consts  --      0.0105                 0.0205                 0.0419
 IR Inten    --      0.1380                 0.0348                 1.1883

                      4                      5                      6
                      A                      A                      A
 Frequencies --    193.0530               226.7218               252.7125
 Red. masses --      1.3722                 1.0651                 1.8962
 Frc consts  --      0.0301                 0.0323                 0.0714
 IR Inten    --      0.3726                 0.1413                 0.7806

                      7                      8                      9
                      A                      A                      A
 Frequencies --    281.4540               358.8074               390.0148
 Red. masses --      2.5591                 2.1683                 2.3520
 Frc consts  --      0.1194                 0.1645                 0.2108
 IR Inten    --      3.8134                 0.1083                 1.4604

                     10                     11                     12
                      A                      A                      A
 Frequencies --    481.0114               503.8329               585.3287
 Red. masses --      3.1386                 2.4091                 3.0987
 Frc consts  --      0.4278                 0.3603                 0.6255
 IR Inten    --      0.3194                 0.7230                 1.0191

                     13                     14                     15
                      A                      A                      A
 Frequencies --    637.0881               723.3769               775.2659
 Red. masses --      3.1773                 3.4868                 1.2652
 Frc consts  --      0.7598                 1.0750                 0.4480
 IR Inten    --      1.3227                 9.1152                 0.5144

                     16                     17                     18
                      A                      A                      A
 Frequencies --    804.6863               864.4523               902.5312
 Red. masses --      2.1349                 1.9056                 1.6682
 Frc consts  --      0.8145                 0.8390                 0.8006
 IR Inten    --      1.2451                 8.6205                 5.6151

                     19                     20                     21
                      A                      A                      A
 Frequencies --    922.8832               952.4439               963.7862
 Red. masses --      1.9739                 1.3434                 2.4191
 Frc consts  --      0.9905                 0.7180                 1.3240
 IR Inten    --     15.3065                 1.0373                 5.6573

                     22                     23                     24
                      A                      A                      A
 Frequencies --    982.0912               999.6035              1038.0590
 Red. masses --      2.0064                 1.5442                 1.8835
 Frc consts  --      1.1402                 0.9091                 1.1958
 IR Inten    --     12.1523                 3.1906                11.1590

                     25                     26                     27
                      A                      A                      A
 Frequencies --   1044.3662              1056.0764              1083.0043
 Red. masses --      1.5467                 1.5468                 3.6986
 Frc consts  --      0.9939                 1.0164                 2.5559
 IR Inten    --     19.9220                 4.8065                68.6700

                     28                     29                     30
                      A                      A                      A
 Frequencies --   1104.6873              1123.7407              1140.8779
 Red. masses --      2.3178                 1.8227                 1.9422
 Frc consts  --      1.6665                 1.3561                 1.4894
 IR Inten    --      7.9857                 7.9671                 1.4855

                     31                     32                     33
                      A                      A                      A
 Frequencies --   1172.4650              1228.5004              1238.3679
 Red. masses --      1.9021                 1.8298                 1.4772
 Frc consts  --      1.5406                 1.6270                 1.3347
 IR Inten    --      0.9629                14.1878                13.9697

                     34                     35                     36
                      A                      A                      A
 Frequencies --   1273.0521              1312.4655              1328.6165
 Red. masses --      1.5412                 1.2332                 1.5355
 Frc consts  --      1.4717                 1.2515                 1.5970
 IR Inten    --      8.7829                 1.5011                16.5493

                     37                     38                     39
                      A                      A                      A
 Frequencies --   1349.2088              1359.3692              1399.3675
 Red. masses --      1.3836                 1.4386                 1.4434
 Frc consts  --      1.4839                 1.5663                 1.6653
 IR Inten    --      9.3316                 6.3353                 0.4122

                     40                     41                     42
                      A                      A                      A
 Frequencies --   1405.5853              1411.1508              1421.4697
 Red. masses --      1.2734                 1.3039                 1.8345
 Frc consts  --      1.4823                 1.5298                 2.1840
 IR Inten    --      2.9833                 3.0534                 0.9012

                     43                     44                     45
                      A                      A                      A
 Frequencies --   1475.4340              1485.6169              1495.0644
 Red. masses --      1.0814                 1.4179                 1.0476
 Frc consts  --      1.3869                 1.8438                 1.3797
 IR Inten    --      1.1154                12.2399                 0.7689

                     46                     47                     48
                      A                      A                      A
 Frequencies --   1496.2038              1499.9593              1510.9076
 Red. masses --      1.0798                 1.0471                 1.0852
 Frc consts  --      1.4242                 1.3880                 1.4596
 IR Inten    --      4.8928                 3.7180                 4.7532

                     49                     50                     51
                      A                      A                      A
 Frequencies --   1527.2056              2982.8801              3018.1903
 Red. masses --      1.0952                 1.0712                 1.0826
 Frc consts  --      1.5050                 5.6157                 5.8103
 IR Inten    --      3.0276                46.6789                24.6627

                     52                     53                     54
                      A                      A                      A
 Frequencies --   3026.6668              3029.0773              3038.1483
 Red. masses --      1.0617                 1.0355                 1.0367
 Frc consts  --      5.7305                 5.5980                 5.6382
 IR Inten    --     28.2386                28.8353                26.6755

                     55                     56                     57
                      A                      A                      A
 Frequencies --   3065.3123              3076.4418              3094.6325
 Red. masses --      1.0988                 1.0936                 1.1009
 Frc consts  --      6.0831                 6.0984                 6.2120
 IR Inten    --     13.2553                34.6853                33.0464

                     58                     59                     60
                      A                      A                      A
 Frequencies --   3102.9324              3103.4246              3124.8983
 Red. masses --      1.1012                 1.1014                 1.1002
 Frc consts  --      6.2468                 6.2498                 6.3298
 IR Inten    --     34.4338                35.7394                21.5112

                     61                     62                     63
                      A                      A                      A
 Frequencies --   3127.7223              3163.6081              3211.8489
 Red. masses --      1.0548                 1.0914                 1.1159
 Frc consts  --      6.0797                 6.4356                 6.7825
 IR Inten    --     13.5815                11.6623                10.6064

 - Thermochemistry -
 -------------------
 Temperature   298.150 Kelvin.  Pressure   1.00000 Atm.
 Atom     1 has atomic number  6 and mass  12.00000

 Molecular mass:   126.10447 amu.
 Principal axes and moments of inertia in atomic units:
                           1         2         3
     Eigenvalues --   585.862311563.509561674.16244
           X            0.99994  -0.00115  -0.01058
           Y            0.00028   0.99660  -0.08236
           Z            0.01063   0.08235   0.99655
 This molecule is an asymmetric top.
 Rotational symmetry number  1.
 Warning -- assumption of classical behavior for rotation
           may cause significant error
 Rotational temperatures (Kelvin)      0.14784     0.05540     0.05174
 Rotational constants (GHZ):           3.08049     1.15429     1.07800
 Zero-point vibrational energy     540234.3 (Joules/Mol)
                                  129.11910 (Kcal/Mol)
 Warning -- explicit consideration of  12 degrees of freedom as
           vibrations may cause significant error
 Vibrational temperatures:    120.88   172.91   241.97   277.76   326.20
          (Kelvin)            363.60   404.95   516.24   561.14   692.07
                              724.90   842.16   916.63  1040.78  1115.43
                             1157.76  1243.75  1298.54  1327.82  1370.35
                             1386.67  1413.01  1438.21  1493.54  1502.61
                             1519.46  1558.20  1589.40  1616.81  1641.47
                             1686.92  1767.54  1781.74  1831.64  1888.35
                             1911.58  1941.21  1955.83  2013.38  2022.32
                             2030.33  2045.18  2122.82  2137.47  2151.06
                             2152.70  2158.11  2173.86  2197.31  4291.70
                             4342.50  4354.70  4358.17  4371.22  4410.30
                             4426.31  4452.49  4464.43  4465.14  4496.03
                             4500.09  4551.73  4621.13

 Zero-point correction=                           0.205764 (Hartree/Particle)
 Thermal correction to Energy=                    0.215074
 Thermal correction to Enthalpy=                  0.216018
 Thermal correction to Gibbs Free Energy=         0.171981
 Sum of electronic and zero-point Energies=           -388.294265
 Sum of electronic and thermal Energies=              -388.284956
 Sum of electronic and thermal Enthalpies=            -388.284012
 Sum of electronic and thermal Free Energies=         -388.328049

                     E (Thermal)             CV                S
                      KCal/Mol        Cal/Mol-Kelvin    Cal/Mol-Kelvin
 Total                  134.961             35.997             92.683
 Electronic               0.000              0.000              0.000
 Translational            0.889              2.981             40.409
 Rotational               0.889              2.981             28.818
 Vibrational            133.183             30.036             23.455
 Vibration     1          0.601              1.960              3.795
 Vibration     2          0.609              1.932              3.097
 Vibration     3          0.625              1.882              2.456
 Vibration     4          0.635              1.850              2.198
 Vibration     5          0.650              1.800              1.905
 Vibration     6          0.664              1.758              1.712
 Vibration     7          0.681              1.708              1.525
 Vibration     8          0.734              1.557              1.127
 Vibration     9          0.758              1.492              1.000
 Vibration    10          0.837              1.292              0.707
 Vibration    11          0.859              1.242              0.649
 Vibration    12          0.942              1.063              0.476

 Optimization completed.
    -- Stationary point found.
 Normal termination of Gaussian 16 at Thu Aug  4 15:45:04 2022.
