 Gaussian 16, Revision A.03,
 Gaussian 16:  ES64L-G16RevA.03 25-Dec-2016

 -----------------------------
 # opt freq b3lyp/6-31g(2df,p)
 -----------------------------

 -------------------
 Title Card Required
 -------------------
 Symbolic Z-matrix:
 Charge =  0 Multiplicity = 1

 SCF Done:  E(RB3LYP) =  -271.756309068     A.U. after   12 cycles
 SCF Done:  E(RB3LYP) =  -271.762073103     A.U. after   11 cycles
 SCF Done:  E(RB3LYP) =  -271.762481445     A.U. after   10 cycles
 SCF Done:  E(RB3LYP) =  -271.762661119     A.U. after    9 cycles
 SCF Done:  E(RB3LYP) =  -271.763232015     A.U. after   11 cycles
 SCF Done:  E(RB3LYP) =  -271.763640671     A.U. after   10 cycles
 SCF Done:  E(RB3LYP) =  -271.764634804     A.U. after   11 cycles
 SCF Done:  E(RB3LYP) =  -271.765393745     A.U. after   11 cycles
 SCF Done:  E(RB3LYP) =  -271.765595569     A.U. after   10 cycles
 SCF Done:  E(RB3LYP) =  -271.765691464     A.U. after   10 cycles
 SCF Done:  E(RB3LYP) =  -271.765710837     A.U. after    9 cycles
 SCF Done:  E(RB3LYP) =  -271.765730543     A.U. after    9 cycles
 SCF Done:  E(RB3LYP) =  -271.765733680     A.U. after    9 cycles
 SCF Done:  E(RB3LYP) =  -271.765737242     A.U. after    7 cycles
 SCF Done:  E(RB3LYP) =  -271.765738353     A.U. after    7 cycles
 SCF Done:  E(RB3LYP) =  -271.765738415     A.U. after    6 cycles
 Optimization completed.
    -- Stationary point found.
 Normal termination of Gaussian 16 at Thu Aug  4 02:49:53 2022.

 ----------------------------------------------------------------------
 #N Geom=AllCheck Guess=TCheck SCRF=Check GenChk RB3LYP/6-31G(2df,p) Fr
 eq
 ----------------------------------------------------------------------

 Structure from the checkpoint file:  "CCC1OC1C.chk"
 -------------------
 Title Card Required
 -------------------
 Charge =  0 Multiplicity = 1

                         Standard orientation:
 ---------------------------------------------------------------------
 Center     Atomic      Atomic             Coordinates (Angstroms)
 Number     Number       Type             X           Y           Z
 ---------------------------------------------------------------------
      1          6           0        2.134765   -0.750860    0.005237
      2          6           0        1.513377    0.588642    0.408116
      3          6           0        0.027880    0.717767    0.140236
      4          8           0       -0.458106    0.262634   -1.129424
      5          6           0       -0.918646   -0.403740    0.054977
      6          6           0       -2.381165   -0.255308    0.386912
      7          1           0        3.224251   -0.710650    0.090486
      8          1           0        1.880778   -0.993215   -1.030248
      9          1           0        1.785170   -1.569021    0.642685
     10          1           0        2.016830    1.400932   -0.132772
     11          1           0        1.684416    0.786777    1.474451
     12          1           0       -0.392360    1.681436    0.439220
     13          1           0       -0.519991   -1.412780    0.164161
     14          1           0       -2.703151    0.782758    0.266940
     15          1           0       -2.575760   -0.565397    1.419531
     16          1           0       -2.992592   -0.880913   -0.271930
 ---------------------------------------------------------------------

 SCF Done:  E(RB3LYP) =  -271.765738415     A.U. after    1 cycles

 The electronic state is 1-A.
 Alpha  occ. eigenvalues --  -19.13925 -10.23087 -10.22937 -10.18576 -10.18033
 Alpha  occ. eigenvalues --  -10.17312  -1.05929  -0.77247  -0.74061  -0.66510
 Alpha  occ. eigenvalues --   -0.60719  -0.56566  -0.48921  -0.46377  -0.44431
 Alpha  occ. eigenvalues --   -0.41955  -0.40567  -0.38561  -0.36822  -0.35907
 Alpha  occ. eigenvalues --   -0.34659  -0.33851  -0.28234  -0.25832
 Alpha virt. eigenvalues --    0.09824   0.11339   0.11679   0.12060   0.13473
 Alpha virt. eigenvalues --    0.15129   0.16027   0.16688   0.17583   0.18699
 Alpha virt. eigenvalues --    0.19781   0.20894   0.22613   0.23224   0.27780

 Mulliken charges:
               1
     1  C   -0.385378
     2  C   -0.211490
     3  C    0.073983
     4  O   -0.261172
     5  C    0.085946
     6  C   -0.418566
     7  H    0.111698
     8  H    0.138439
     9  H    0.115126
    10  H    0.109449
    11  H    0.101469
    12  H    0.081302
    13  H    0.086386
    14  H    0.125578
    15  H    0.119417
    16  H    0.127813
 Sum of Mulliken charges =  -0.00000

 Dipole moment (field-independent basis, Debye):
    X=              0.0752    Y=             -0.1615    Z=              1.7307  Tot=              1.7399
 Quadrupole moment (field-independent basis, Debye-Ang):
   XX=            -35.9524   YY=            -36.5305   ZZ=            -40.3834
   XY=              0.9063   XZ=             -0.8721   YZ=              0.6014

  Exact polarizability:  67.602   2.849  54.672  -0.424   0.774  48.092
 Approx polarizability:  80.366   5.591  78.934   0.374  -0.017  76.233

                      1                      2                      3
                      A                      A                      A
 Frequencies --     93.9459               191.9090               195.4534
 Red. masses --      2.2344                 1.2199                 1.7344
 Frc consts  --      0.0116                 0.0265                 0.0390
 IR Inten    --      1.2392                 0.2355                 1.7714

                      4                      5                      6
                      A                      A                      A
 Frequencies --    227.2198               267.9150               335.7682
 Red. masses --      1.7305                 1.5488                 2.4362
 Frc consts  --      0.0526                 0.0655                 0.1618
 IR Inten    --      0.3847                 1.2365                 0.4655

                      7                      8                      9
                      A                      A                      A
 Frequencies --    462.1832               564.9399               748.9105
 Red. masses --      3.1064                 2.8973                 2.3669
 Frc consts  --      0.3910                 0.5448                 0.7821
 IR Inten    --      8.0621                 0.9856                 7.9626

                     10                     11                     12
                      A                      A                      A
 Frequencies --    793.4074               830.5956               905.5770
 Red. masses --      1.8165                 2.0715                 2.8527
 Frc consts  --      0.6737                 0.8420                 1.3784
 IR Inten    --      2.2327                 7.0271                23.9034

                     13                     14                     15
                      A                      A                      A
 Frequencies --    961.1685              1009.6642              1057.0703
 Red. masses --      1.8728                 1.3337                 1.3905
 Frc consts  --      1.0194                 0.8011                 0.9155
 IR Inten    --     15.0477                 2.2839                 8.2358

                     16                     17                     18
                      A                      A                      A
 Frequencies --   1070.0105              1108.5164              1145.7957
 Red. masses --      1.6678                 2.2640                 2.0552
 Frc consts  --      1.1250                 1.6391                 1.5897
 IR Inten    --      4.8431                13.5371                 4.9189

                     19                     20                     21
                      A                      A                      A
 Frequencies --   1174.1643              1188.8806              1281.2919
 Red. masses --      1.5076                 1.6286                 1.3650
 Frc consts  --      1.2246                 1.3562                 1.3203
 IR Inten    --      2.9736                 1.2276                 2.3813

                     22                     23                     24
                      A                      A                      A
 Frequencies --   1313.4282              1354.1588              1381.3035
 Red. masses --      1.2040                 1.3749                 1.3553
 Frc consts  --      1.2237                 1.4855                 1.5236
 IR Inten    --      0.1319                 3.5509                 5.9237

                     25                     26                     27
                      A                      A                      A
 Frequencies --   1406.2014              1415.7476              1474.7974
 Red. masses --      1.2460                 1.3092                 1.2248
 Frc consts  --      1.4516                 1.5461                 1.5695
 IR Inten    --      0.3091                13.8830                 3.5983

                     28                     29                     30
                      A                      A                      A
 Frequencies --   1479.6983              1492.2975              1498.5794
 Red. masses --      1.0676                 1.0892                 1.0616
 Frc consts  --      1.3773                 1.4291                 1.4046
 IR Inten    --      2.4209                 7.4525                 7.5568

                     31                     32                     33
                      A                      A                      A
 Frequencies --   1513.1284              1514.3314              3016.8958
 Red. masses --      1.0812                 1.8100                 1.0601
 Frc consts  --      1.4585                 2.4455                 5.6850
 IR Inten    --      4.5945                 4.8413                25.6626

                     34                     35                     36
                      A                      A                      A
 Frequencies --   3033.7632              3042.2364              3048.1863
 Red. masses --      1.0357                 1.0412                 1.0947
 Frc consts  --      5.6161                 5.6778                 5.9928
 IR Inten    --     20.4016                18.1107                19.9268

                     37                     38                     39
                      A                      A                      A
 Frequencies --   3075.1912              3097.9799              3099.9652
 Red. masses --      1.0869                 1.1005                 1.0904
 Frc consts  --      6.0560                 6.2228                 6.1736
 IR Inten    --     36.2754                19.7018                17.0982

                     40                     41                     42
                      A                      A                      A
 Frequencies --   3109.2562              3122.3552              3124.3157
 Red. masses --      1.0998                 1.1013                 1.0989
 Frc consts  --      6.2642                 6.3260                 6.3202
 IR Inten    --     23.5455                19.0260                46.4963

 - Thermochemistry -
 -------------------
 Temperature   298.150 Kelvin.  Pressure   1.00000 Atm.
 Atom     1 has atomic number  6 and mass  12.00000

 Molecular mass:    86.07317 amu.
 Principal axes and moments of inertia in atomic units:
                           1         2         3
     Eigenvalues --   230.44274 862.76165 877.69241
           X            0.99993  -0.00133  -0.01196
           Y            0.00431   0.96740   0.25320
           Z            0.01123  -0.25323   0.96734
 This molecule is an asymmetric top.
 Rotational symmetry number  1.
 Rotational temperatures (Kelvin)      0.37586     0.10039     0.09868
 Rotational constants (GHZ):           7.83163     2.09182     2.05623
 Zero-point vibrational energy     372207.3 (Joules/Mol)
                                   88.95968 (Kcal/Mol)
 Warning -- explicit consideration of   8 degrees of freedom as
           vibrations may cause significant error
 Vibrational temperatures:    135.17   276.11   281.21   326.92   385.47
          (Kelvin)            483.10   664.98   812.82  1077.52  1141.54
                             1195.04  1302.92  1382.91  1452.68  1520.89
                             1539.51  1594.91  1648.54  1689.36  1710.53
                             1843.49  1889.73  1948.33  1987.39  2023.21
                             2036.94  2121.90  2128.96  2147.08  2156.12
                             2177.05  2178.79  4340.64  4364.91  4377.10
                             4385.66  4424.51  4457.30  4460.16  4473.53
                             4492.37  4495.19

 Zero-point correction=                           0.141766 (Hartree/Particle)
 Thermal correction to Energy=                    0.148877
 Thermal correction to Enthalpy=                  0.149822
 Thermal correction to Gibbs Free Energy=         0.111126
 Sum of electronic and zero-point Energies=           -271.623972
 Sum of electronic and thermal Energies=              -271.616861
 Sum of electronic and thermal Enthalpies=            -271.615917
 Sum of electronic and thermal Free Energies=         -271.654612

                     E (Thermal)             CV                S
                      KCal/Mol        Cal/Mol-Kelvin    Cal/Mol-Kelvin
 Total                   93.422             25.246             81.442
 Electronic               0.000              0.000              0.000
 Translational            0.889              2.981             39.271
 Rotational               0.889              2.981             26.659
 Vibrational             91.645             19.284             15.512
 Vibration     1          0.603              1.954              3.576
 Vibration     2          0.634              1.851              2.209
 Vibration     3          0.636              1.846              2.175
 Vibration     4          0.651              1.800              1.901
 Vibration     5          0.673              1.732              1.610
 Vibration     6          0.717              1.604              1.232
 Vibration     7          0.820              1.334              0.760
 Vibration     8          0.921              1.107              0.514

 Optimization completed.
    -- Stationary point found.
 Normal termination of Gaussian 16 at Thu Aug  4 03:02:07 2022.
