 Gaussian 16, Revision A.03,
 Gaussian 16:  ES64L-G16RevA.03 25-Dec-2016

 -----------------------------
 # opt freq b3lyp/6-31g(2df,p)
 -----------------------------

 -------------------
 Title Card Required
 -------------------
 Symbolic Z-matrix:
 Charge =  0 Multiplicity = 1

 SCF Done:  E(RB3LYP) =  -383.429448167     A.U. after   13 cycles
 SCF Done:  E(RB3LYP) =  -383.435996808     A.U. after   12 cycles
 SCF Done:  E(RB3LYP) =  -383.437306796     A.U. after   11 cycles
 SCF Done:  E(RB3LYP) =  -383.438456821     A.U. after   12 cycles
 SCF Done:  E(RB3LYP) =  -383.440085802     A.U. after   12 cycles
 SCF Done:  E(RB3LYP) =  -383.441026089     A.U. after   14 cycles
 SCF Done:  E(RB3LYP) =  -383.443007142     A.U. after   12 cycles
 SCF Done:  E(RB3LYP) =  -383.443709176     A.U. after   11 cycles
 SCF Done:  E(RB3LYP) =  -383.444005414     A.U. after   11 cycles
 SCF Done:  E(RB3LYP) =  -383.444043411     A.U. after   10 cycles
 SCF Done:  E(RB3LYP) =  -383.444050494     A.U. after    9 cycles
 SCF Done:  E(RB3LYP) =  -383.444051895     A.U. after    8 cycles
 SCF Done:  E(RB3LYP) =  -383.444052009     A.U. after    7 cycles
 Optimization completed.
    -- Stationary point found.
 Normal termination of Gaussian 16 at Thu Aug  4 02:44:32 2022.

 ----------------------------------------------------------------------
 #N Geom=AllCheck Guess=TCheck SCRF=Check GenChk RB3LYP/6-31G(2df,p) Fr
 eq
 ----------------------------------------------------------------------

 Structure from the checkpoint file:  "CCC1CNpCCtNpC1.chk"
 -------------------
 Title Card Required
 -------------------
 Charge =  0 Multiplicity = 1

                         Standard orientation:
 ---------------------------------------------------------------------
 Center     Atomic      Atomic             Coordinates (Angstroms)
 Number     Number       Type             X           Y           Z
 ---------------------------------------------------------------------
      1          6           0        3.580140    0.038757    0.500131
      2          6           0        2.264372    0.785966    0.264533
      3          6           0        1.310604    0.046166   -0.671033
      4          6           0        0.570794   -1.167490   -0.041582
      5          7           0       -0.598228   -0.293841    0.186370
      6          6           0       -1.913668   -0.866424    0.010151
      7          6           0       -2.968432    0.124831    0.255376
      8          7           0       -3.798959    0.908562    0.428432
      9          6           0       -0.098209    0.684224   -0.804074
     10          1           0        4.234799    0.594716    1.177916
     11          1           0        4.123663   -0.111805   -0.439404
     12          1           0        3.407902   -0.947941    0.943825
     13          1           0        2.476999    1.774711   -0.162162
     14          1           0        1.757066    0.965519    1.220472
     15          1           0        1.804336   -0.169738   -1.621732
     16          1           0        0.988038   -1.614037    0.867887
     17          1           0        0.380380   -1.967476   -0.775613
     18          1           0       -2.043126   -1.690484    0.722288
     19          1           0       -2.074997   -1.288748   -1.002117
     20          1           0       -0.216703    1.731551   -0.508475
     21          1           0       -0.531654    0.544498   -1.807517
 ---------------------------------------------------------------------

 SCF Done:  E(RB3LYP) =  -383.444052009     A.U. after    1 cycles

 The electronic state is 1-A.
 Alpha  occ. eigenvalues --  -14.33817 -14.32762 -10.25784 -10.21980 -10.21902
 Alpha  occ. eigenvalues --  -10.21626 -10.20006 -10.18741 -10.18014  -0.96067
 Alpha  occ. eigenvalues --   -0.89872  -0.81167  -0.76148  -0.69170  -0.67959
 Alpha  occ. eigenvalues --   -0.61666  -0.55057  -0.53287  -0.50962  -0.49436
 Alpha  occ. eigenvalues --   -0.46226  -0.44342  -0.41562  -0.40931  -0.39241
 Alpha  occ. eigenvalues --   -0.37881  -0.36394  -0.35439  -0.34174  -0.33567
 Alpha  occ. eigenvalues --   -0.32382  -0.31894  -0.31727  -0.23569
 Alpha virt. eigenvalues --    0.02361   0.04011   0.07948   0.08731   0.10580
 Alpha virt. eigenvalues --    0.11790   0.12703   0.13634   0.14386   0.14700
 Alpha virt. eigenvalues --    0.15680   0.16597   0.17603   0.18100   0.18861

 Mulliken charges:
               1
     1  C   -0.384598
     2  C   -0.178945
     3  C    0.012209
     4  C   -0.183856
     5  N   -0.068072
     6  C   -0.287813
     7  C    0.277092
     8  N   -0.304522
     9  C   -0.193082
    10  H    0.117732
    11  H    0.114734
    12  H    0.117054
    13  H    0.098438
    14  H    0.112387
    15  H    0.074955
    16  H    0.107356
    17  H    0.086181
    18  H    0.154516
    19  H    0.122367
    20  H    0.116879
    21  H    0.088991
 Sum of Mulliken charges =  -0.00000

 Dipole moment (field-independent basis, Debye):
    X=              3.4080    Y=             -2.4349    Z=             -1.2979  Tot=              4.3850
 Quadrupole moment (field-independent basis, Debye-Ang):
   XX=            -69.6746   YY=            -54.4368   ZZ=            -54.8033
   XY=              8.5899   XZ=              2.5993   YZ=             -1.2863

  Exact polarizability: 104.743  -4.951  79.568   0.043   0.320  69.041
 Approx polarizability: 128.606 -14.013 123.171  -2.707   1.862 106.408

                      1                      2                      3
                      A                      A                      A
 Frequencies --     52.3945                77.4444               109.3667
 Red. masses --      4.0220                 4.0236                 2.6775
 Frc consts  --      0.0065                 0.0142                 0.0189
 IR Inten    --      1.4642                 4.6028                 1.0340

                      4                      5                      6
                      A                      A                      A
 Frequencies --    149.4016               202.8956               242.6201
 Red. masses --      2.4054                 2.0272                 1.4107
 Frc consts  --      0.0316                 0.0492                 0.0489
 IR Inten    --      1.9436                 0.5864                 0.9780

                      7                      8                      9
                      A                      A                      A
 Frequencies --    295.4947               327.0954               385.3210
 Red. masses --      2.9016                 3.9128                 1.8940
 Frc consts  --      0.1493                 0.2467                 0.1657
 IR Inten    --      3.7252                 1.0040                 2.5249

                     10                     11                     12
                      A                      A                      A
 Frequencies --    391.1682               433.3917               512.4536
 Red. masses --      3.2789                 2.1815                 6.6570
 Frc consts  --      0.2956                 0.2414                 1.0300
 IR Inten    --      1.0932                 0.2386                 3.9974

                     13                     14                     15
                      A                      A                      A
 Frequencies --    728.2927               775.1455               816.2296
 Red. masses --      3.2342                 1.5963                 1.6387
 Frc consts  --      1.0107                 0.5651                 0.6433
 IR Inten    --      6.6551                 5.2528                 1.6514

                     16                     17                     18
                      A                      A                      A
 Frequencies --    881.3845               908.5267               937.9796
 Red. masses --      1.7405                 2.5377                 3.6725
 Frc consts  --      0.7966                 1.2341                 1.9037
 IR Inten    --      0.3057                 5.6897                 1.3391

                     19                     20                     21
                      A                      A                      A
 Frequencies --    963.0939               990.3551               997.4168
 Red. masses --      1.7852                 1.9501                 1.5288
 Frc consts  --      0.9756                 1.1269                 0.8961
 IR Inten    --      2.5212                 5.3441                 3.9160

                     22                     23                     24
                      A                      A                      A
 Frequencies --   1000.9304              1073.0405              1105.7563
 Red. masses --      2.5095                 1.9679                 3.0215
 Frc consts  --      1.4813                 1.3350                 2.1766
 IR Inten    --      2.1108                 1.1309                20.0715

                     25                     26                     27
                      A                      A                      A
 Frequencies --   1121.1804              1143.2071              1160.7561
 Red. masses --      1.6211                 1.0982                 1.5770
 Frc consts  --      1.2006                 0.8456                 1.2519
 IR Inten    --      1.6583                 0.9488                 6.7482

                     28                     29                     30
                      A                      A                      A
 Frequencies --   1220.5693              1226.4739              1240.5694
 Red. masses --      1.7954                 2.2854                 1.6880
 Frc consts  --      1.5759                 2.0255                 1.5306
 IR Inten    --     17.3428                13.5405                10.2629

                     31                     32                     33
                      A                      A                      A
 Frequencies --   1270.9553              1296.1519              1298.1939
 Red. masses --      1.2949                 1.2897                 1.3159
 Frc consts  --      1.2324                 1.2766                 1.3066
 IR Inten    --      7.7032                 1.1092                 8.4722

                     34                     35                     36
                      A                      A                      A
 Frequencies --   1334.6303              1350.2705              1389.4592
 Red. masses --      1.4417                 1.4228                 1.4747
 Frc consts  --      1.5130                 1.5284                 1.6774
 IR Inten    --     29.5976                 1.2397                26.3872

                     37                     38                     39
                      A                      A                      A
 Frequencies --   1395.3618              1413.4725              1471.0198
 Red. masses --      1.5657                 1.2324                 1.0778
 Frc consts  --      1.7961                 1.4506                 1.3742
 IR Inten    --      1.1443                 2.3080                 3.4479

                     40                     41                     42
                      A                      A                      A
 Frequencies --   1486.7930              1499.7365              1502.8400
 Red. masses --      1.0618                 1.0479                 1.0703
 Frc consts  --      1.3829                 1.3887                 1.4242
 IR Inten    --      0.7263                 3.9996                 1.1358

                     43                     44                     45
                      A                      A                      A
 Frequencies --   1506.4239              1526.3480              2367.0237
 Red. masses --      1.0733                 1.1172                12.6229
 Frc consts  --      1.4351                 1.5335                41.6690
 IR Inten    --      3.7287                10.1429                 2.9432

                     46                     47                     48
                      A                      A                      A
 Frequencies --   2904.4460              2965.2384              2974.8640
 Red. masses --      1.0717                 1.0660                 1.0692
 Frc consts  --      5.3264                 5.5223                 5.5750
 IR Inten    --     49.1150                63.0236                54.5688

                     49                     50                     51
                      A                      A                      A
 Frequencies --   3021.2450              3030.4478              3053.0190
 Red. masses --      1.0606                 1.0361                 1.0974
 Frc consts  --      5.7040                 5.6063                 6.0264
 IR Inten    --     17.2171                24.8317                 3.2315

                     52                     53                     54
                      A                      A                      A
 Frequencies --   3053.4031              3055.0716              3069.5867
 Red. masses --      1.0853                 1.0952                 1.0953
 Frc consts  --      5.9615                 6.0227                 6.0805
 IR Inten    --     16.1447                29.7939                23.9649

                     55                     56                     57
                      A                      A                      A
 Frequencies --   3079.0345              3097.4262              3105.0568
 Red. masses --      1.0900                 1.1015                 1.1006
 Frc consts  --      6.0884                 6.2265                 6.2518
 IR Inten    --     32.1113                58.6428                33.0659

 - Thermochemistry -
 -------------------
 Temperature   298.150 Kelvin.  Pressure   1.00000 Atm.
 Atom     1 has atomic number  6 and mass  12.00000

 Molecular mass:   124.10005 amu.
 Principal axes and moments of inertia in atomic units:
                           1         2         3
     Eigenvalues --   374.868722495.097902627.96242
           X            0.99986   0.01270   0.01130
           Y           -0.01253   0.99982  -0.01437
           Z           -0.01148   0.01423   0.99983
 This molecule is an asymmetric top.
 Rotational symmetry number  1.
 Rotational temperatures (Kelvin)      0.23105     0.03471     0.03296
 Rotational constants (GHZ):           4.81433     0.72331     0.68675
 Zero-point vibrational energy     478431.3 (Joules/Mol)
                                  114.34784 (Kcal/Mol)
 Warning -- explicit consideration of  12 degrees of freedom as
           vibrations may cause significant error
 Vibrational temperatures:     75.38   111.43   157.35   214.96   291.92
          (Kelvin)            349.08   425.15   470.62   554.39   562.80
                              623.55   737.31  1047.85  1115.26  1174.37
                             1268.12  1307.17  1349.54  1385.68  1424.90
                             1435.06  1440.12  1543.87  1590.94  1613.13
                             1644.82  1670.07  1756.13  1764.62  1784.90
                             1828.62  1864.87  1867.81  1920.24  1942.74
                             1999.12  2007.61  2033.67  2116.47  2139.16
                             2157.79  2162.25  2167.41  2196.07  3405.62
                             4178.85  4266.32  4280.17  4346.90  4360.14
                             4392.61  4393.17  4395.57  4416.45  4430.04
                             4456.51  4467.48

 Zero-point correction=                           0.182225 (Hartree/Particle)
 Thermal correction to Energy=                    0.191869
 Thermal correction to Enthalpy=                  0.192813
 Thermal correction to Gibbs Free Energy=         0.146945
 Sum of electronic and zero-point Energies=           -383.261827
 Sum of electronic and thermal Energies=              -383.252183
 Sum of electronic and thermal Enthalpies=            -383.251239
 Sum of electronic and thermal Free Energies=         -383.297107

                     E (Thermal)             CV                S
                      KCal/Mol        Cal/Mol-Kelvin    Cal/Mol-Kelvin
 Total                  120.399             34.766             96.537
 Electronic               0.000              0.000              0.000
 Translational            0.889              2.981             40.362
 Rotational               0.889              2.981             29.287
 Vibrational            118.622             28.804             26.888
 Vibration     1          0.596              1.977              4.725
 Vibration     2          0.599              1.964              3.955
 Vibration     3          0.606              1.942              3.280
 Vibration     4          0.618              1.903              2.680
 Vibration     5          0.639              1.836              2.107
 Vibration     6          0.659              1.775              1.784
 Vibration     7          0.690              1.682              1.442
 Vibration     8          0.711              1.621              1.274
 Vibration     9          0.754              1.502              1.018
 Vibration    10          0.759              1.489              0.996
 Vibration    11          0.794              1.397              0.848
 Vibration    12          0.868              1.222              0.628

 Optimization completed.
    -- Stationary point found.
 Normal termination of Gaussian 16 at Thu Aug  4 03:15:00 2022.
