 Gaussian 16, Revision A.03,
 Gaussian 16:  ES64L-G16RevA.03 25-Dec-2016

 -----------------------------
 # opt freq b3lyp/6-31g(2df,p)
 -----------------------------

 -------------------
 Title Card Required
 -------------------
 Symbolic Z-matrix:
 Charge =  0 Multiplicity = 1

 SCF Done:  E(RB3LYP) =  -327.677152026     A.U. after   19 cycles
 SCF Done:  E(RB3LYP) =  -327.758251619     A.U. after   15 cycles
 SCF Done:  E(RB3LYP) =  -327.822889830     A.U. after   15 cycles
 SCF Done:  E(RB3LYP) =  -327.818892228     A.U. after   15 cycles
 SCF Done:  E(RB3LYP) =  -327.877507514     A.U. after   14 cycles
 SCF Done:  E(RB3LYP) =  -327.898812608     A.U. after   12 cycles
 SCF Done:  E(RB3LYP) =  -327.906099757     A.U. after   13 cycles
 SCF Done:  E(RB3LYP) =  -327.915792944     A.U. after   14 cycles
 SCF Done:  E(RB3LYP) =  -327.926399042     A.U. after   13 cycles
 SCF Done:  E(RB3LYP) =  -327.937822289     A.U. after   14 cycles
 SCF Done:  E(RB3LYP) =  -328.008127086     A.U. after   10 cycles
 SCF Done:  E(RB3LYP) =  -328.008152729     A.U. after    9 cycles
 SCF Done:  E(RB3LYP) =  -328.008175849     A.U. after   10 cycles
 SCF Done:  E(RB3LYP) =  -328.008181401     A.U. after    9 cycles
 SCF Done:  E(RB3LYP) =  -328.008190570     A.U. after    9 cycles
 SCF Done:  E(RB3LYP) =  -328.008196209     A.U. after    9 cycles
 SCF Done:  E(RB3LYP) =  -328.008197040     A.U. after    7 cycles
 SCF Done:  E(RB3LYP) =  -328.008197765     A.U. after    7 cycles
 SCF Done:  E(RB3LYP) =  -328.008197925     A.U. after    6 cycles
 Optimization completed.
    -- Stationary point found.
 Normal termination of Gaussian 16 at Thu Aug  4 15:50:01 2022.

 ----------------------------------------------------------------------
 #N Geom=AllCheck Guess=TCheck SCRF=Check GenChk RB3LYP/6-31G(2df,p) Fr
 eq
 ----------------------------------------------------------------------

 Structure from the checkpoint file:  "CCC1dCC1N1CC1.chk"
 -------------------
 Title Card Required
 -------------------
 Charge =  0 Multiplicity = 1

                         Standard orientation:
 ---------------------------------------------------------------------
 Center     Atomic      Atomic             Coordinates (Angstroms)
 Number     Number       Type             X           Y           Z
 ---------------------------------------------------------------------
      1          6           0        3.047769    0.695896   -0.322225
      2          6           0        2.135004   -0.011482    0.693597
      3          6           0        0.891183   -0.525118    0.076675
      4          6           0        0.062195   -1.494055   -0.183831
      5          6           0       -0.304009   -0.140388   -0.726845
      6          7           0       -1.343627    0.720205   -0.174495
      7          6           0       -2.725737    0.295268   -0.391170
      8          6           0       -2.109881    0.229132    0.961368
      9          1           0        3.937869    1.093508    0.173601
     10          1           0        2.523788    1.526899   -0.803094
     11          1           0        3.374134    0.004669   -1.105020
     12          1           0        1.860185    0.701039    1.482465
     13          1           0        2.671563   -0.832511    1.182929
     14          1           0       -0.187551   -2.537762   -0.082865
     15          1           0       -0.203704    0.070767   -1.794264
     16          1           0       -2.890434   -0.651916   -0.902715
     17          1           0       -3.432368    1.080961   -0.645138
     18          1           0       -1.871249   -0.759487    1.349760
     19          1           0       -2.355984    0.966886    1.720389
 ---------------------------------------------------------------------

 SCF Done:  E(RB3LYP) =  -328.008197925     A.U. after    1 cycles

 The electronic state is 1-A.
 Alpha  occ. eigenvalues --  -14.31416 -10.21598 -10.19912 -10.19878 -10.19786
 Alpha  occ. eigenvalues --  -10.19565 -10.18576 -10.18022  -0.95389  -0.86480
 Alpha  occ. eigenvalues --   -0.77075  -0.67531  -0.64001  -0.60634  -0.55600
 Alpha  occ. eigenvalues --   -0.53289  -0.48459  -0.48102  -0.45734  -0.45160
 Alpha  occ. eigenvalues --   -0.39945  -0.37389  -0.37068  -0.36316  -0.34599
 Alpha  occ. eigenvalues --   -0.32764  -0.31972  -0.28649  -0.24944  -0.21131
 Alpha virt. eigenvalues --    0.01765   0.10140   0.11755   0.12509   0.13246
 Alpha virt. eigenvalues --    0.14115   0.14648   0.14850   0.16096   0.16611
 Alpha virt. eigenvalues --    0.17504   0.17744   0.18538   0.20288   0.21569

 Mulliken charges:
               1
     1  C   -0.375692
     2  C   -0.310546
     3  C    0.294217
     4  C   -0.280727
     5  C   -0.063636
     6  N   -0.084941
     7  C   -0.210404
     8  C   -0.220104
     9  H    0.116466
    10  H    0.134268
    11  H    0.123373
    12  H    0.126421
    13  H    0.112046
    14  H    0.130642
    15  H    0.078059
    16  H    0.104557
    17  H    0.109715
    18  H    0.107123
    19  H    0.109162
 Sum of Mulliken charges =   0.00000

 Dipole moment (field-independent basis, Debye):
    X=              0.6722    Y=             -1.0836    Z=              0.4764  Tot=              1.3613
 Quadrupole moment (field-independent basis, Debye-Ang):
   XX=            -45.7639   YY=            -48.7920   ZZ=            -48.2173
   XY=              1.2102   XZ=              0.6361   YZ=              0.5581

  Exact polarizability:  95.384   0.992  72.295   4.590   0.002  67.952
 Approx polarizability: 120.670   6.594 115.632   8.586   0.133 102.617

                      1                      2                      3
                      A                      A                      A
 Frequencies --     48.0999                60.4773               127.0868
 Red. masses --      2.5963                 2.9769                 2.0877
 Frc consts  --      0.0035                 0.0064                 0.0199
 IR Inten    --      0.4510                 1.3209                 2.1955

                      4                      5                      6
                      A                      A                      A
 Frequencies --    171.5841               232.1567               253.3445
 Red. masses --      2.6713                 1.2644                 2.9071
 Frc consts  --      0.0463                 0.0402                 0.1099
 IR Inten    --      0.8518                 0.2032                 1.2971

                      7                      8                      9
                      A                      A                      A
 Frequencies --    317.0303               469.1643               522.9536
 Red. masses --      2.3839                 2.7699                 2.4035
 Frc consts  --      0.1412                 0.3592                 0.3873
 IR Inten    --      0.7468                 8.4352                 2.8329

                     10                     11                     12
                      A                      A                      A
 Frequencies --    563.6551               697.3235               751.5968
 Red. masses --      3.4127                 2.9945                 1.6940
 Frc consts  --      0.6388                 0.8579                 0.5638
 IR Inten    --      6.8793                 2.1711                13.3605

                     13                     14                     15
                      A                      A                      A
 Frequencies --    785.7107               802.7708               828.2324
 Red. masses --      1.8594                 1.3101                 1.3129
 Frc consts  --      0.6763                 0.4974                 0.5306
 IR Inten    --      9.4766                12.2511                 5.4556

                     16                     17                     18
                      A                      A                      A
 Frequencies --    899.9851               913.7613               971.6292
 Red. masses --      3.6781                 2.5945                 1.6873
 Frc consts  --      1.7553                 1.2763                 0.9385
 IR Inten    --      3.8768                 4.0064                16.2059

                     19                     20                     21
                      A                      A                      A
 Frequencies --   1006.7370              1037.2182              1038.7174
 Red. masses --      1.9070                 1.2683                 2.6072
 Frc consts  --      1.1388                 0.8039                 1.6574
 IR Inten    --     43.5431                12.3087                 6.7000

                     22                     23                     24
                      A                      A                      A
 Frequencies --   1067.9372              1089.1672              1108.0058
 Red. masses --      1.3493                 1.6719                 1.4067
 Frc consts  --      0.9067                 1.1685                 1.0175
 IR Inten    --     18.9494                 3.6605                 3.5820

                     25                     26                     27
                      A                      A                      A
 Frequencies --   1117.1173              1129.7761              1171.6778
 Red. masses --      1.3185                 1.9114                 1.4552
 Frc consts  --      0.9695                 1.4374                 1.1770
 IR Inten    --      1.2186                18.5845                 0.2120

                     28                     29                     30
                      A                      A                      A
 Frequencies --   1181.4823              1223.0859              1294.3067
 Red. masses --      1.7108                 3.2582                 1.2931
 Frc consts  --      1.4071                 2.8717                 1.2763
 IR Inten    --      6.3774                 9.4119                 4.1033

                     31                     32                     33
                      A                      A                      A
 Frequencies --   1316.1563              1343.7724              1381.7175
 Red. masses --      3.3556                 1.4225                 1.1642
 Frc consts  --      3.4248                 1.5134                 1.3095
 IR Inten    --     87.8598                 8.5639                28.4875

                     34                     35                     36
                      A                      A                      A
 Frequencies --   1408.5892              1475.2260              1489.5300
 Red. masses --      1.2138                 1.0738                 1.0784
 Frc consts  --      1.4190                 1.3769                 1.4098
 IR Inten    --      0.9157                 2.4097                 0.4284

                     37                     38                     39
                      A                      A                      A
 Frequencies --   1497.0712              1506.3950              1517.5190
 Red. masses --      1.0394                 1.0567                 1.2637
 Frc consts  --      1.3725                 1.4128                 1.7146
 IR Inten    --      5.0034                 2.3128                 4.8561

                     40                     41                     42
                      A                      A                      A
 Frequencies --   1831.7650              3021.2601              3042.1481
 Red. masses --      7.7600                 1.0604                 1.0344
 Frc consts  --     15.3409                 5.7030                 5.6401
 IR Inten    --     14.7469                19.4015                24.1980

                     43                     44                     45
                      A                      A                      A
 Frequencies --   3061.4106              3064.9287              3090.9495
 Red. masses --      1.1000                 1.0835                 1.0482
 Frc consts  --      6.0740                 5.9968                 5.9004
 IR Inten    --     16.3583                52.9579                37.6674

                     46                     47                     48
                      A                      A                      A
 Frequencies --   3095.7465              3114.5020              3118.9114
 Red. masses --      1.0555                 1.1025                 1.1024
 Frc consts  --      5.9598                 6.3008                 6.3181
 IR Inten    --     21.5090                26.5836                28.9678

                     49                     50                     51
                      A                      A                      A
 Frequencies --   3169.9116              3184.6093              3256.8324
 Red. masses --      1.1176                 1.1176                 1.1143
 Frc consts  --      6.6164                 6.6782                 6.9640
 IR Inten    --      2.1591                37.1011                 0.3294

 - Thermochemistry -
 -------------------
 Temperature   298.150 Kelvin.  Pressure   1.00000 Atm.
 Atom     1 has atomic number  6 and mass  12.00000

 Molecular mass:   109.08915 amu.
 Principal axes and moments of inertia in atomic units:
                           1         2         3
     Eigenvalues --   362.161311644.083941706.10787
           X            0.99990   0.01395  -0.00163
           Y           -0.01398   0.99967  -0.02156
           Z            0.00133   0.02158   0.99977
 This molecule is an asymmetric top.
 Rotational symmetry number  1.
 Rotational temperatures (Kelvin)      0.23916     0.05268     0.05077
 Rotational constants (GHZ):           4.98325     1.09772     1.05781
 Zero-point vibrational energy     429882.5 (Joules/Mol)
                                  102.74439 (Kcal/Mol)
 Warning -- explicit consideration of  10 degrees of freedom as
           vibrations may cause significant error
 Vibrational temperatures:     69.20    87.01   182.85   246.87   334.02
          (Kelvin)            364.51   456.14   675.02   752.41   810.97
                             1003.29  1081.38  1130.46  1155.01  1191.64
                             1294.88  1314.70  1397.96  1448.47  1492.33
                             1494.48  1536.52  1567.07  1594.17  1607.28
                             1625.50  1685.78  1699.89  1759.75  1862.22
                             1893.66  1933.39  1987.98  2026.65  2122.52
                             2143.10  2153.95  2167.37  2183.37  2635.50
                             4346.92  4376.97  4404.69  4409.75  4447.19
                             4454.09  4481.07  4487.42  4560.80  4581.94
                             4685.86

 Zero-point correction=                           0.163734 (Hartree/Particle)
 Thermal correction to Energy=                    0.172471
 Thermal correction to Enthalpy=                  0.173416
 Thermal correction to Gibbs Free Energy=         0.129563
 Sum of electronic and zero-point Energies=           -327.844464
 Sum of electronic and thermal Energies=              -327.835727
 Sum of electronic and thermal Enthalpies=            -327.834782
 Sum of electronic and thermal Free Energies=         -327.878635

                     E (Thermal)             CV                S
                      KCal/Mol        Cal/Mol-Kelvin    Cal/Mol-Kelvin
 Total                  108.227             31.525             92.296
 Electronic               0.000              0.000              0.000
 Translational            0.889              2.981             39.977
 Rotational               0.889              2.981             28.409
 Vibrational            106.450             25.564             23.910
 Vibration     1          0.595              1.978              4.894
 Vibration     2          0.597              1.973              4.442
 Vibration     3          0.611              1.926              2.990
 Vibration     4          0.626              1.877              2.418
 Vibration     5          0.653              1.792              1.862
 Vibration     6          0.665              1.757              1.707
 Vibration     7          0.704              1.641              1.325
 Vibration     8          0.826              1.318              0.740
 Vibration     9          0.878              1.199              0.603
 Vibration    10          0.919              1.110              0.517

 Optimization completed.
    -- Stationary point found.
 Normal termination of Gaussian 16 at Thu Aug  4 16:17:08 2022.
