 Gaussian 16, Revision A.03,
 Gaussian 16:  ES64L-G16RevA.03 25-Dec-2016

 -----------------------------
 # opt freq b3lyp/6-31g(2df,p)
 -----------------------------

 -------------------
 Title Card Required
 -------------------
 Symbolic Z-matrix:
 Charge =  0 Multiplicity = 1

 SCF Done:  E(RB3LYP) =  -289.936247791     A.U. after   12 cycles
 SCF Done:  E(RB3LYP) =  -289.956389031     A.U. after   11 cycles
 SCF Done:  E(RB3LYP) =  -289.960887792     A.U. after   10 cycles
 SCF Done:  E(RB3LYP) =  -289.961293910     A.U. after    9 cycles
 SCF Done:  E(RB3LYP) =  -289.961346209     A.U. after    8 cycles
 SCF Done:  E(RB3LYP) =  -289.961353704     A.U. after    8 cycles
 SCF Done:  E(RB3LYP) =  -289.961355099     A.U. after    7 cycles
 SCF Done:  E(RB3LYP) =  -289.961355411     A.U. after    6 cycles
 Optimization completed.
    -- Stationary point found.
 Normal termination of Gaussian 16 at Thu Aug  4 11:12:23 2022.

 ----------------------------------------------------------------------
 #N Geom=AllCheck Guess=TCheck SCRF=Check GenChk RB3LYP/6-31G(2df,p) Fr
 eq
 ----------------------------------------------------------------------

 Structure from the checkpoint file:  "CCC1C2CCN12.chk"
 -------------------
 Title Card Required
 -------------------
 Charge =  0 Multiplicity = 1

                         Standard orientation:
 ---------------------------------------------------------------------
 Center     Atomic      Atomic             Coordinates (Angstroms)
 Number     Number       Type             X           Y           Z
 ---------------------------------------------------------------------
      1          6           0       -2.705805    0.516525    0.098840
      2          6           0       -1.711267   -0.641007   -0.039576
      3          6           0       -0.308794   -0.244163    0.360105
      4          6           0        0.860214   -0.893642   -0.265072
      5          6           0        2.171592   -0.403393    0.341450
      6          6           0        1.672447    1.028721    0.011061
      7          7           0        0.431144    0.512815   -0.669566
      8          1           0       -3.711009    0.215224   -0.211002
      9          1           0       -2.393532    1.361276   -0.521836
     10          1           0       -2.767705    0.864727    1.136100
     11          1           0       -1.693128   -0.990758   -1.078075
     12          1           0       -2.030811   -1.491546    0.576408
     13          1           0       -0.207653    0.100101    1.392123
     14          1           0        0.753526   -1.734211   -0.945029
     15          1           0        3.049507   -0.684803   -0.243010
     16          1           0        2.350958   -0.660288    1.390101
     17          1           0        2.300714    1.560171   -0.706534
     18          1           0        1.460808    1.692164    0.856867
 ---------------------------------------------------------------------

 SCF Done:  E(RB3LYP) =  -289.961355411     A.U. after    1 cycles

 The electronic state is 1-A.
 Alpha  occ. eigenvalues --  -14.31886 -10.20873 -10.20681 -10.20600 -10.18725
 Alpha  occ. eigenvalues --  -10.17985 -10.16839  -0.97152  -0.77844  -0.72499
 Alpha  occ. eigenvalues --   -0.68130  -0.62861  -0.57092  -0.53813  -0.48955
 Alpha  occ. eigenvalues --   -0.47043  -0.43858  -0.42586  -0.40552  -0.38332
 Alpha  occ. eigenvalues --   -0.36508  -0.35024  -0.33990  -0.33008  -0.29995
 Alpha  occ. eigenvalues --   -0.28333  -0.22826
 Alpha virt. eigenvalues --    0.09456   0.10029   0.10826   0.11315   0.12787
 Alpha virt. eigenvalues --    0.13583   0.15000   0.16107   0.16535   0.17993
 Alpha virt. eigenvalues --    0.18774   0.20174   0.20609   0.22605   0.23932

 Mulliken charges:
               1
     1  C   -0.375520
     2  C   -0.209578
     3  C    0.035278
     4  C   -0.036407
     5  C   -0.255727
     6  C   -0.151915
     7  N   -0.143073
     8  H    0.109669
     9  H    0.134232
    10  H    0.108829
    11  H    0.104618
    12  H    0.094624
    13  H    0.071637
    14  H    0.089312
    15  H    0.111442
    16  H    0.101028
    17  H    0.110174
    18  H    0.101377
 Sum of Mulliken charges =   0.00000

 Dipole moment (field-independent basis, Debye):
    X=              0.5968    Y=             -0.6758    Z=              1.1052  Tot=              1.4263
 Quadrupole moment (field-independent basis, Debye-Ang):
   XX=            -41.4895   YY=            -43.7269   ZZ=            -44.7816
   XY=              0.7161   XZ=             -0.2512   YZ=              1.7045

  Exact polarizability:  81.991   0.906  63.911  -1.239   1.814  57.996
 Approx polarizability: 100.050   0.433  96.253  -2.700   0.831  90.843

                      1                      2                      3
                      A                      A                      A
 Frequencies --     93.8261               158.3465               205.0271
 Red. masses --      2.3420                 2.8797                 1.2334
 Frc consts  --      0.0121                 0.0425                 0.0305
 IR Inten    --      0.7589                 0.3820                 0.7322

                      4                      5                      6
                      A                      A                      A
 Frequencies --    279.3773               308.2253               395.2479
 Red. masses --      1.7529                 1.8998                 3.0739
 Frc consts  --      0.0806                 0.1063                 0.2829
 IR Inten    --      2.1135                 2.4118                 1.6336

                      7                      8                      9
                      A                      A                      A
 Frequencies --    490.3757               716.8361               754.7469
 Red. masses --      2.6236                 2.3844                 3.2130
 Frc consts  --      0.3717                 0.7219                 1.0784
 IR Inten    --      0.2329                 2.3348                 2.4494

                     10                     11                     12
                      A                      A                      A
 Frequencies --    783.1765               805.4975               855.0791
 Red. masses --      1.2513                 1.6792                 2.9679
 Frc consts  --      0.4522                 0.6419                 1.2785
 IR Inten    --      1.7783                 3.4648                16.5810

                     13                     14                     15
                      A                      A                      A
 Frequencies --    910.0548               953.5934               963.7239
 Red. masses --      1.7538                 2.3339                 1.9921
 Frc consts  --      0.8558                 1.2504                 1.0901
 IR Inten    --      1.7747                 2.1902                 5.8712

                     16                     17                     18
                      A                      A                      A
 Frequencies --    992.2647              1031.2065              1047.7081
 Red. masses --      1.9033                 1.9600                 2.6917
 Frc consts  --      1.1041                 1.2280                 1.7408
 IR Inten    --      9.3460                 3.3403                 6.9500

                     19                     20                     21
                      A                      A                      A
 Frequencies --   1065.0365              1122.5856              1131.2946
 Red. masses --      1.5669                 1.9991                 1.3929
 Frc consts  --      1.0472                 1.4843                 1.0503
 IR Inten    --      8.0573                 0.9484                 1.0808

                     22                     23                     24
                      A                      A                      A
 Frequencies --   1147.5907              1186.6723              1219.9390
 Red. masses --      1.4759                 1.6218                 1.1827
 Frc consts  --      1.1452                 1.3456                 1.0370
 IR Inten    --      1.0012                 2.4020                 0.0904

                     25                     26                     27
                      A                      A                      A
 Frequencies --   1230.9235              1266.0523              1294.6547
 Red. masses --      1.6714                 1.5893                 1.3910
 Frc consts  --      1.4921                 1.5009                 1.3736
 IR Inten    --      3.0776                 3.9414                 1.9221

                     28                     29                     30
                      A                      A                      A
 Frequencies --   1300.6997              1321.4481              1368.1105
 Red. masses --      1.2738                 1.2746                 1.5543
 Frc consts  --      1.2697                 1.3114                 1.7141
 IR Inten    --      1.1203                10.2017                 1.8710

                     31                     32                     33
                      A                      A                      A
 Frequencies --   1406.3527              1452.5735              1477.1495
 Red. masses --      1.2490                 2.2840                 1.0757
 Frc consts  --      1.4554                 2.8394                 1.3829
 IR Inten    --      2.3649                 2.3422                 1.1966

                     34                     35                     36
                      A                      A                      A
 Frequencies --   1487.7157              1497.8420              1508.1332
 Red. masses --      1.0886                 1.0462                 1.1018
 Frc consts  --      1.4195                 1.3829                 1.4764
 IR Inten    --      0.1796                 4.6219                 0.4020

                     37                     38                     39
                      A                      A                      A
 Frequencies --   1509.1222              3024.2180              3033.4341
 Red. masses --      1.0910                 1.0619                 1.0366
 Frc consts  --      1.4640                 5.7219                 5.6202
 IR Inten    --      3.7280                29.3509                24.9822

                     40                     41                     42
                      A                      A                      A
 Frequencies --   3040.1625              3052.6265              3061.2529
 Red. masses --      1.0618                 1.0643                 1.0942
 Frc consts  --      5.7823                 5.8433                 6.0417
 IR Inten    --     50.6210                48.7725                 3.8729

                     43                     44                     45
                      A                      A                      A
 Frequencies --   3077.7006              3100.0460              3100.5665
 Red. masses --      1.0911                 1.1027                 1.1011
 Frc consts  --      6.0893                 6.2440                 6.2370
 IR Inten    --     25.6381                12.7495                36.8757

                     46                     47                     48
                      A                      A                      A
 Frequencies --   3116.9598              3118.8740              3149.4648
 Red. masses --      1.1021                 1.1033                 1.0917
 Frc consts  --      6.3086                 6.3234                 6.3802
 IR Inten    --     27.3239                41.3501                29.4641

 - Thermochemistry -
 -------------------
 Temperature   298.150 Kelvin.  Pressure   1.00000 Atm.
 Atom     1 has atomic number  6 and mass  12.00000

 Molecular mass:    97.08915 amu.
 Principal axes and moments of inertia in atomic units:
                           1         2         3
     Eigenvalues --   254.861231080.160121197.07051
           X            0.99999  -0.00297   0.00229
           Y            0.00284   0.99848   0.05502
           Z           -0.00245  -0.05501   0.99848
 This molecule is an asymmetric top.
 Rotational symmetry number  1.
 Rotational temperatures (Kelvin)      0.33985     0.08019     0.07235
 Rotational constants (GHZ):           7.08127     1.67081     1.50763
 Zero-point vibrational energy     422362.6 (Joules/Mol)
                                  100.94709 (Kcal/Mol)
 Warning -- explicit consideration of   7 degrees of freedom as
           vibrations may cause significant error
 Vibrational temperatures:    134.99   227.83   294.99   401.96   443.47
          (Kelvin)            568.67   705.54  1031.37  1085.91  1126.82
                             1158.93  1230.27  1309.37  1372.01  1386.58
                             1427.65  1483.68  1507.42  1532.35  1615.15
                             1627.68  1651.13  1707.36  1755.22  1771.02
                             1821.57  1862.72  1871.42  1901.27  1968.41
                             2023.43  2089.93  2125.29  2140.49  2155.06
                             2169.87  2171.29  4351.18  4364.44  4374.12
                             4392.05  4404.46  4428.12  4460.27  4461.02
                             4484.61  4487.36  4531.38

 Zero-point correction=                           0.160869 (Hartree/Particle)
 Thermal correction to Energy=                    0.167929
 Thermal correction to Enthalpy=                  0.168873
 Thermal correction to Gibbs Free Energy=         0.129892
 Sum of electronic and zero-point Energies=           -289.800486
 Sum of electronic and thermal Energies=              -289.793426
 Sum of electronic and thermal Enthalpies=            -289.792482
 Sum of electronic and thermal Free Energies=         -289.831463

                     E (Thermal)             CV                S
                      KCal/Mol        Cal/Mol-Kelvin    Cal/Mol-Kelvin
 Total                  105.377             26.520             82.042
 Electronic               0.000              0.000              0.000
 Translational            0.889              2.981             39.630
 Rotational               0.889              2.981             27.291
 Vibrational            103.600             20.559             15.122
 Vibration     1          0.603              1.954              3.579
 Vibration     2          0.621              1.893              2.569
 Vibration     3          0.640              1.833              2.088
 Vibration     4          0.680              1.712              1.537
 Vibration     5          0.698              1.658              1.372
 Vibration     6          0.762              1.480              0.980
 Vibration     7          0.846              1.271              0.683

                           ! Non-Optimized Parameters !
 Normal termination of Gaussian 16 at Thu Aug  4 11:31:35 2022.
