 Gaussian 16, Revision A.03,
 Gaussian 16:  ES64L-G16RevA.03 25-Dec-2016

 -----------------------------
 # opt freq b3lyp/6-31g(2df,p)
 -----------------------------

 -------------------
 Title Card Required
 -------------------
 Symbolic Z-matrix:
 Charge =  0 Multiplicity = 1

 SCF Done:  E(RB3LYP) =  -398.698795355     A.U. after   15 cycles
 SCF Done:  E(RB3LYP) =  -398.710674405     A.U. after   13 cycles
 SCF Done:  E(RB3LYP) =  -398.712149708     A.U. after   14 cycles
 SCF Done:  E(RB3LYP) =  -398.711861130     A.U. after   13 cycles
 SCF Done:  E(RB3LYP) =  -398.712550195     A.U. after   12 cycles
 SCF Done:  E(RB3LYP) =  -398.712570571     A.U. after   10 cycles
 SCF Done:  E(RB3LYP) =  -398.712574208     A.U. after    9 cycles
 SCF Done:  E(RB3LYP) =  -398.712575999     A.U. after    9 cycles
 SCF Done:  E(RB3LYP) =  -398.712576853     A.U. after    9 cycles
 SCF Done:  E(RB3LYP) =  -398.712577833     A.U. after    9 cycles
 SCF Done:  E(RB3LYP) =  -398.712578543     A.U. after    9 cycles
 SCF Done:  E(RB3LYP) =  -398.712578898     A.U. after    9 cycles
 SCF Done:  E(RB3LYP) =  -398.712579087     A.U. after    7 cycles
 Optimization completed.
    -- Stationary point found.
 Normal termination of Gaussian 16 at Sun Jul  3 23:48:39 2022.

 ----------------------------------------------------------------------
 #N Geom=AllCheck Guess=TCheck SCRF=Check GenChk RB3LYP/6-31G(2df,p) Fr
 eq
 ----------------------------------------------------------------------

 Structure from the checkpoint file:  "CCc1ncpdOpc1dO.chk"
 -------------------
 Title Card Required
 -------------------
 Charge =  0 Multiplicity = 1

                         Standard orientation:
 ---------------------------------------------------------------------
 Center     Atomic      Atomic             Coordinates (Angstroms)
 Number     Number       Type             X           Y           Z
 ---------------------------------------------------------------------
      1          6           0       -2.678576    0.122579    0.563348
      2          6           0       -1.822463   -0.649099   -0.461174
      3          6           0       -0.374720   -0.443507   -0.231937
      4          7           0        0.572528   -1.313708   -0.039834
      5          6           0        1.623488   -0.284370    0.091893
      6          8           0        2.786860   -0.370690    0.282630
      7          6           0        0.501380    0.807888   -0.130967
      8          8           0        0.373564    1.987182   -0.188113
      9          1           0       -3.738687   -0.006370    0.333174
     10          1           0       -2.448265    1.190909    0.540497
     11          1           0       -2.502901   -0.246210    1.577640
     12          1           0       -2.051436   -0.275646   -1.468750
     13          1           0       -2.044455   -1.719607   -0.446840
 ---------------------------------------------------------------------

 SCF Done:  E(RB3LYP) =  -398.712579087     A.U. after    1 cycles

 The electronic state is 1-A.
 Alpha  occ. eigenvalues --  -19.18575 -19.16925 -14.37309 -10.31268 -10.30966
 Alpha  occ. eigenvalues --  -10.28007 -10.22947 -10.20920  -1.09779  -1.08243
 Alpha  occ. eigenvalues --   -0.99232  -0.81477  -0.69189  -0.68293  -0.60025
 Alpha  occ. eigenvalues --   -0.52507  -0.50120  -0.49440  -0.48440  -0.46483
 Alpha  occ. eigenvalues --   -0.45154  -0.41379  -0.40902  -0.39659  -0.38461
 Alpha  occ. eigenvalues --   -0.36127  -0.34179  -0.30754  -0.26495
 Alpha virt. eigenvalues --   -0.09604  -0.06783   0.07476   0.09913   0.11720
 Alpha virt. eigenvalues --    0.12632   0.14117   0.15063   0.17026   0.18527
 Alpha virt. eigenvalues --    0.18799   0.21269   0.23219   0.26454   0.32294

 Mulliken charges:
               1
     1  C   -0.399161
     2  C   -0.309556
     3  C    0.266252
     4  N   -0.300809
     5  C    0.350045
     6  O   -0.267833
     7  C    0.200862
     8  O   -0.259161
     9  H    0.136534
    10  H    0.153514
    11  H    0.139441
    12  H    0.145437
    13  H    0.144435
 Sum of Mulliken charges =  -0.00000

 Dipole moment (field-independent basis, Debye):
    X=             -4.1804    Y=             -0.3561    Z=             -0.5195  Tot=              4.2276
 Quadrupole moment (field-independent basis, Debye-Ang):
   XX=            -47.8396   YY=            -52.5165   ZZ=            -42.4302
   XY=              2.1538   XZ=             -0.5862   YZ=              0.6967

  Exact polarizability:  82.529  -1.901  60.861   3.509  -0.297  41.470
 Approx polarizability: 121.208  -7.754 109.422   9.169  -2.822  64.241

                      1                      2                      3
                      A                      A                      A
 Frequencies --     40.7334               108.7234               163.4056
 Red. masses --      2.9412                 5.3025                 3.0472
 Frc consts  --      0.0029                 0.0369                 0.0479
 IR Inten    --      0.0966                 0.0802                 1.9712

                      4                      5                      6
                      A                      A                      A
 Frequencies --    203.6677               262.3599               289.3046
 Red. masses --      1.7469                 2.7564                 5.6070
 Frc consts  --      0.0427                 0.1118                 0.2765
 IR Inten    --      4.8991                 6.4934                 4.9397

                      7                      8                      9
                      A                      A                      A
 Frequencies --    331.3492               539.4103               600.4174
 Red. masses --      4.4865                 4.8456                 4.0167
 Frc consts  --      0.2902                 0.8307                 0.8532
 IR Inten    --      7.7243                 2.9757                 6.1103

                     10                     11                     12
                      A                      A                      A
 Frequencies --    659.2736               739.7105               800.9842
 Red. masses --      6.1176                 7.5954                 1.3854
 Frc consts  --      1.5666                 2.4487                 0.5237
 IR Inten    --     23.5476                 5.3707                 1.1936

                     13                     14                     15
                      A                      A                      A
 Frequencies --    850.7500               858.4545               971.5330
 Red. masses --      8.9101                 5.8092                 2.1760
 Frc consts  --      3.7996                 2.5223                 1.2101
 IR Inten    --      6.1073                 2.1698                 9.1221

                     16                     17                     18
                      A                      A                      A
 Frequencies --   1022.5587              1070.1491              1086.5452
 Red. masses --      6.8357                 2.3423                 1.6639
 Frc consts  --      4.2112                 1.5804                 1.1574
 IR Inten    --    151.4939                 8.5600                 9.3545

                     19                     20                     21
                      A                      A                      A
 Frequencies --   1245.3288              1306.6497              1335.0680
 Red. masses --      1.7596                 1.7988                 1.5824
 Frc consts  --      1.6078                 1.8095                 1.6618
 IR Inten    --      0.1306                 7.4256                 4.1460

                     22                     23                     24
                      A                      A                      A
 Frequencies --   1411.4556              1466.3862              1499.4266
 Red. masses --      1.2085                 1.0886                 1.0382
 Frc consts  --      1.4185                 1.3792                 1.3752
 IR Inten    --      2.3528                 5.3567                 8.8931

                     25                     26                     27
                      A                      A                      A
 Frequencies --   1506.2352              1610.0862              1909.7065
 Red. masses --      1.0632                 9.8022                13.1263
 Frc consts  --      1.4211                14.9718                28.2051
 IR Inten    --      1.3847               161.7604               204.8269

                     28                     29                     30
                      A                      A                      A
 Frequencies --   1951.0738              3025.4680              3051.6032
 Red. masses --     13.1185                 1.0651                 1.0342
 Frc consts  --     29.4226                 5.7441                 5.6744
 IR Inten    --    276.5560                 4.1437                16.7307

                     31                     32                     33
                      A                      A                      A
 Frequencies --   3096.1665              3127.7048              3133.6988
 Red. masses --      1.0958                 1.1030                 1.1026
 Frc consts  --      6.1894                 6.3576                 6.3794
 IR Inten    --      3.8495                14.0880                14.8289

 - Thermochemistry -
 -------------------
 Temperature   298.150 Kelvin.  Pressure   1.00000 Atm.
 Atom     1 has atomic number  6 and mass  12.00000

 Molecular mass:   111.03203 amu.
 Principal axes and moments of inertia in atomic units:
                           1         2         3
     Eigenvalues --   445.994861218.607121561.58148
           X            0.99992   0.00901  -0.00832
           Y           -0.00888   0.99986   0.01449
           Z            0.00845  -0.01441   0.99986
 This molecule is an asymmetric top.
 Rotational symmetry number  1.
 Warning -- assumption of classical behavior for rotation
           may cause significant error
 Rotational temperatures (Kelvin)      0.19420     0.07108     0.05547
 Rotational constants (GHZ):           4.04655     1.48099     1.15571
 Zero-point vibrational energy     246881.6 (Joules/Mol)
                                   59.00613 (Kcal/Mol)
 Warning -- explicit consideration of   9 degrees of freedom as
           vibrations may cause significant error
 Vibrational temperatures:     58.61   156.43   235.10   293.03   377.48
          (Kelvin)            416.24   476.74   776.09   863.87   948.55
                             1064.28  1152.44  1224.04  1235.12  1397.82
                             1471.23  1539.71  1563.30  1791.75  1879.98
                             1920.87  2030.77  2109.80  2157.34  2167.14
                             2316.55  2747.64  2807.16  4352.97  4390.58
                             4454.69  4500.07  4508.69

 Zero-point correction=                           0.094032 (Hartree/Particle)
 Thermal correction to Energy=                    0.101879
 Thermal correction to Enthalpy=                  0.102824
 Thermal correction to Gibbs Free Energy=         0.060814
 Sum of electronic and zero-point Energies=           -398.618547
 Sum of electronic and thermal Energies=              -398.610700
 Sum of electronic and thermal Enthalpies=            -398.609756
 Sum of electronic and thermal Free Energies=         -398.651765

                     E (Thermal)             CV                S
                      KCal/Mol        Cal/Mol-Kelvin    Cal/Mol-Kelvin
 Total                   63.930             26.524             88.415
 Electronic               0.000              0.000              0.000
 Translational            0.889              2.981             40.030
 Rotational               0.889              2.981             28.231
 Vibrational             62.153             20.562             20.155
 Vibration     1          0.594              1.981              5.223
 Vibration     2          0.606              1.942              3.292
 Vibration     3          0.623              1.887              2.510
 Vibration     4          0.639              1.835              2.100
 Vibration     5          0.670              1.742              1.646
 Vibration     6          0.686              1.694              1.478
 Vibration     7          0.714              1.613              1.253
 Vibration     8          0.894              1.163              0.567
 Vibration     9          0.959              1.031              0.449

 Optimization completed.
    -- Stationary point found.
 Normal termination of Gaussian 16 at Mon Jul  4 00:04:19 2022.
