 Gaussian 16, Revision A.03,
 Gaussian 16:  ES64L-G16RevA.03 25-Dec-2016

 -----------------------------
 # opt freq b3lyp/6-31g(2df,p)
 -----------------------------

 -------------------
 Title Card Required
 -------------------
 Symbolic Z-matrix:
 Charge =  0 Multiplicity = 1

 SCF Done:  E(RB3LYP) =  -385.899924652     A.U. after   12 cycles
 SCF Done:  E(RB3LYP) =  -385.903146587     A.U. after   10 cycles
 SCF Done:  E(RB3LYP) =  -385.904097506     A.U. after   10 cycles
 SCF Done:  E(RB3LYP) =  -385.904781058     A.U. after   11 cycles
 SCF Done:  E(RB3LYP) =  -385.905302096     A.U. after   11 cycles
 SCF Done:  E(RB3LYP) =  -385.905944021     A.U. after   10 cycles
 SCF Done:  E(RB3LYP) =  -385.905843638     A.U. after    9 cycles
 SCF Done:  E(RB3LYP) =  -385.906321091     A.U. after   10 cycles
 SCF Done:  E(RB3LYP) =  -385.906511029     A.U. after    9 cycles
 SCF Done:  E(RB3LYP) =  -385.906760652     A.U. after   10 cycles
 SCF Done:  E(RB3LYP) =  -385.906739102     A.U. after   10 cycles
 SCF Done:  E(RB3LYP) =  -385.906798563     A.U. after    9 cycles
 SCF Done:  E(RB3LYP) =  -385.906797130     A.U. after    8 cycles
 SCF Done:  E(RB3LYP) =  -385.906804418     A.U. after    9 cycles
 SCF Done:  E(RB3LYP) =  -385.906802392     A.U. after    8 cycles
 SCF Done:  E(RB3LYP) =  -385.906804973     A.U. after    8 cycles
 SCF Done:  E(RB3LYP) =  -385.906805030     A.U. after    6 cycles
 Optimization completed.
    -- Stationary point found.
 Normal termination of Gaussian 16 at Sun Jul  3 16:45:25 2022.

 ----------------------------------------------------------------------
 #N Geom=AllCheck Guess=TCheck SCRF=Check GenChk RB3LYP/6-31G(2df,p) Fr
 eq
 ----------------------------------------------------------------------

 Structure from the checkpoint file:  "CCC1CCpNpCpCpN1.chk"
 -------------------
 Title Card Required
 -------------------
 Charge =  0 Multiplicity = 1

                         Standard orientation:
 ---------------------------------------------------------------------
 Center     Atomic      Atomic             Coordinates (Angstroms)
 Number     Number       Type             X           Y           Z
 ---------------------------------------------------------------------
      1          6           0        2.688178    0.712539    0.688887
      2          6           0        2.369635   -0.239808   -0.469077
      3          6           0        0.880120   -0.574371   -0.686596
      4          6           0        0.208297   -1.336225    0.487068
      5          6           0       -1.168790   -0.669206    0.666584
      6          7           0       -2.169874   -1.331483   -0.174870
      7          6           0       -0.836102    0.798221    0.291934
      8          6           0       -2.026319    1.703829   -0.001692
      9          7           0        0.005134    0.599517   -0.893336
     10          1           0        3.763340    0.910438    0.738567
     11          1           0        2.387222    0.302312    1.657807
     12          1           0        2.183661    1.676827    0.567351
     13          1           0        2.912066   -1.184387   -0.330616
     14          1           0        2.760600    0.192528   -1.400296
     15          1           0        0.838607   -1.197092   -1.591467
     16          1           0        0.794924   -1.221964    1.403461
     17          1           0        0.106732   -2.404775    0.288111
     18          1           0       -1.514339   -0.737084    1.703082
     19          1           0       -1.944435   -1.158606   -1.152172
     20          1           0       -3.082206   -0.911127   -0.022092
     21          1           0       -0.277922    1.232247    1.143112
     22          1           0       -2.623496    1.309261   -0.828442
     23          1           0       -1.693100    2.708851   -0.282465
     24          1           0       -2.666348    1.805421    0.882011
     25          1           0        0.517765    1.431032   -1.161157
 ---------------------------------------------------------------------

 SCF Done:  E(RB3LYP) =  -385.906805030     A.U. after    1 cycles

 The electronic state is 1-A.
 Alpha  occ. eigenvalues --  -14.30217 -14.29810 -10.20197 -10.20058 -10.19939
 Alpha  occ. eigenvalues --  -10.17846 -10.17448 -10.16975 -10.16887  -0.91636
 Alpha  occ. eigenvalues --   -0.85888  -0.77570  -0.73081  -0.73010  -0.66359
 Alpha  occ. eigenvalues --   -0.60983  -0.55877  -0.55176  -0.50428  -0.47081
 Alpha  occ. eigenvalues --   -0.45976  -0.44012  -0.42766  -0.42421  -0.40384
 Alpha  occ. eigenvalues --   -0.37668  -0.37226  -0.36520  -0.35520  -0.35059
 Alpha  occ. eigenvalues --   -0.33357  -0.32774  -0.32133  -0.30933  -0.22827
 Alpha  occ. eigenvalues --   -0.21022
 Alpha virt. eigenvalues --    0.06614   0.10013   0.10505   0.11522   0.13330
 Alpha virt. eigenvalues --    0.14201   0.15195   0.15380   0.16130   0.16885
 Alpha virt. eigenvalues --    0.17574   0.17865   0.18634   0.20111   0.20858

 Mulliken charges:
               1
     1  C   -0.376331
     2  C   -0.206742
     3  C    0.067769
     4  C   -0.233539
     5  C    0.027497
     6  N   -0.513015
     7  C    0.058259
     8  C   -0.408106
     9  N   -0.324177
    10  H    0.113826
    11  H    0.119634
    12  H    0.112071
    13  H    0.097015
    14  H    0.091958
    15  H    0.067004
    16  H    0.095754
    17  H    0.106569
    18  H    0.065762
    19  H    0.232974
    20  H    0.222797
    21  H    0.048251
    22  H    0.110553
    23  H    0.108570
    24  H    0.107292
    25  H    0.208358
 Sum of Mulliken charges =  -0.00000

 Dipole moment (field-independent basis, Debye):
    X=              0.6722    Y=              1.3273    Z=              0.2577  Tot=              1.5100
 Quadrupole moment (field-independent basis, Debye-Ang):
   XX=            -55.9310   YY=            -60.3304   ZZ=            -57.6677
   XY=             -2.2643   XZ=             -0.6695   YZ=              0.0360

  Exact polarizability: 100.467  -1.895  86.240  -1.477   1.275  78.527
 Approx polarizability: 126.556  -0.936 123.509  -1.896   1.361 122.308

                      1                      2                      3
                      A                      A                      A
 Frequencies --     59.3123                98.6741               151.4908
 Red. masses --      2.8830                 2.4396                 1.8015
 Frc consts  --      0.0060                 0.0140                 0.0244
 IR Inten    --      0.3275                 0.3071                 0.5840

                      4                      5                      6
                      A                      A                      A
 Frequencies --    213.0231               228.7728               244.9302
 Red. masses --      1.2414                 1.4505                 2.6936
 Frc consts  --      0.0332                 0.0447                 0.0952
 IR Inten    --      0.2153                 1.3032                 1.4197

                      7                      8                      9
                      A                      A                      A
 Frequencies --    258.2791               282.0806               310.5520
 Red. masses --      2.1101                 1.6324                 1.2673
 Frc consts  --      0.0829                 0.0765                 0.0720
 IR Inten    --      4.0351                 3.5282                28.4472

                     10                     11                     12
                      A                      A                      A
 Frequencies --    357.5105               430.0031               481.0416
 Red. masses --      2.2506                 1.9427                 2.7478
 Frc consts  --      0.1695                 0.2116                 0.3746
 IR Inten    --      2.8059                10.2818                10.0086

                     13                     14                     15
                      A                      A                      A
 Frequencies --    547.3790               619.9621               682.8555
 Red. masses --      2.0966                 2.4597                 2.7038
 Frc consts  --      0.3701                 0.5570                 0.7428
 IR Inten    --     30.1183                25.8426                11.6715

                     16                     17                     18
                      A                      A                      A
 Frequencies --    733.3453               780.3517               813.2445
 Red. masses --      2.4251                 1.2428                 2.5976
 Frc consts  --      0.7684                 0.4459                 1.0122
 IR Inten    --     21.5035                 0.2724                31.6140

                     19                     20                     21
                      A                      A                      A
 Frequencies --    839.0796               889.6585               908.9265
 Red. masses --      2.8006                 2.2446                 1.7887
 Frc consts  --      1.1618                 1.0467                 0.8707
 IR Inten    --     13.0453                 2.1935                96.5026

                     22                     23                     24
                      A                      A                      A
 Frequencies --    926.9632               957.4680               994.0432
 Red. masses --      1.8242                 1.9521                 1.6808
 Frc consts  --      0.9235                 1.0544                 0.9785
 IR Inten    --      3.9619                52.0365                 3.7550

                     25                     26                     27
                      A                      A                      A
 Frequencies --   1007.7008              1020.0171              1071.5016
 Red. masses --      1.4695                 1.5425                 1.6303
 Frc consts  --      0.8792                 0.9456                 1.1028
 IR Inten    --     19.9036                 3.7510                13.3860

                     28                     29                     30
                      A                      A                      A
 Frequencies --   1092.0949              1106.5625              1130.4105
 Red. masses --      2.0968                 2.1891                 1.5576
 Frc consts  --      1.4734                 1.5793                 1.1726
 IR Inten    --      1.6267                10.5926                 3.2221

                     31                     32                     33
                      A                      A                      A
 Frequencies --   1150.8298              1172.5269              1196.8188
 Red. masses --      1.8697                 2.3893                 1.5585
 Frc consts  --      1.4589                 1.9354                 1.3153
 IR Inten    --      6.7310                13.8831                 4.2035

                     34                     35                     36
                      A                      A                      A
 Frequencies --   1238.7916              1260.4079              1295.3591
 Red. masses --      1.5372                 1.4823                 1.1861
 Frc consts  --      1.3898                 1.3874                 1.1726
 IR Inten    --      1.4923                19.6511                 0.7670

                     37                     38                     39
                      A                      A                      A
 Frequencies --   1316.0599              1325.7044              1345.9485
 Red. masses --      1.3282                 1.3355                 1.4413
 Frc consts  --      1.3554                 1.3829                 1.5384
 IR Inten    --      2.5442                12.2966                 1.1012

                     40                     41                     42
                      A                      A                      A
 Frequencies --   1376.4858              1381.3260              1396.1433
 Red. masses --      1.4772                 1.2636                 1.2417
 Frc consts  --      1.6490                 1.4205                 1.4261
 IR Inten    --      3.9450                 5.6334                 1.2598

                     43                     44                     45
                      A                      A                      A
 Frequencies --   1405.2540              1418.0847              1424.8951
 Red. masses --      1.3242                 1.3230                 1.3225
 Frc consts  --      1.5407                 1.5675                 1.5821
 IR Inten    --     13.6387                 9.7040                 7.7651

                     46                     47                     48
                      A                      A                      A
 Frequencies --   1439.9322              1483.4910              1485.9911
 Red. masses --      1.3960                 1.0731                 1.0908
 Frc consts  --      1.7054                 1.3915                 1.4191
 IR Inten    --     21.0657                 0.4072                 0.4948

                     49                     50                     51
                      A                      A                      A
 Frequencies --   1493.3598              1500.1019              1503.3448
 Red. masses --      1.0785                 1.0511                 1.0597
 Frc consts  --      1.4171                 1.3936                 1.4110
 IR Inten    --      4.4230                 3.0162                 4.9840

                     52                     53                     54
                      A                      A                      A
 Frequencies --   1506.4457              1662.7192              2907.4895
 Red. masses --      1.0553                 1.0906                 1.0808
 Frc consts  --      1.4110                 1.7764                 5.3830
 IR Inten    --      9.8866                21.4436                65.0615

                     55                     56                     57
                      A                      A                      A
 Frequencies --   2979.9970              3013.3056              3030.0885
 Red. masses --      1.0827                 1.0636                 1.0361
 Frc consts  --      5.6649                 5.6900                 5.6048
 IR Inten    --     35.7912                61.0783                25.8634

                     58                     59                     60
                      A                      A                      A
 Frequencies --   3036.2532              3042.8274              3051.8643
 Red. masses --      1.0369                 1.0994                 1.0764
 Frc consts  --      5.6320                 5.9975                 5.9067
 IR Inten    --     16.0883                21.0512                17.0490

                     61                     62                     63
                      A                      A                      A
 Frequencies --   3066.2030              3091.6437              3100.6456
 Red. masses --      1.0724                 1.1006                 1.1006
 Frc consts  --      5.9404                 6.1981                 6.2342
 IR Inten    --     40.3898                26.1665                40.9500

                     64                     65                     66
                      A                      A                      A
 Frequencies --   3104.6654              3113.0040              3115.2865
 Red. masses --      1.1007                 1.1006                 1.1017
 Frc consts  --      6.2509                 6.2840                 6.2996
 IR Inten    --     41.8903                17.7269                26.9264

                     67                     68                     69
                      A                      A                      A
 Frequencies --   3476.9653              3546.0967              3556.6265
 Red. masses --      1.0491                 1.0748                 1.0914
 Frc consts  --      7.4725                 7.9634                 8.1343
 IR Inten    --      0.6568                 0.2530                 0.4368

 - Thermochemistry -
 -------------------
 Temperature   298.150 Kelvin.  Pressure   1.00000 Atm.
 Atom     1 has atomic number  6 and mass  12.00000

 Molecular mass:   128.13135 amu.
 Principal axes and moments of inertia in atomic units:
                           1         2         3
     Eigenvalues --   700.316081546.085561863.66424
           X            0.99987  -0.01503   0.00623
           Y            0.01493   0.99978   0.01502
           Z           -0.00646  -0.01492   0.99987
 This molecule is an asymmetric top.
 Rotational symmetry number  1.
 Warning -- assumption of classical behavior for rotation
           may cause significant error
 Rotational temperatures (Kelvin)      0.12368     0.05602     0.04648
 Rotational constants (GHZ):           2.57704     1.16730     0.96838
 Zero-point vibrational energy     605610.8 (Joules/Mol)
                                  144.74445 (Kcal/Mol)
 Warning -- explicit consideration of  14 degrees of freedom as
           vibrations may cause significant error
 Vibrational temperatures:     85.34   141.97   217.96   306.49   329.15
          (Kelvin)            352.40   371.61   405.85   446.82   514.38
                              618.68   692.11   787.56   891.99   982.48
                             1055.12  1122.75  1170.08  1207.25  1280.02
                             1307.74  1333.69  1377.58  1430.21  1449.86
                             1467.58  1541.65  1571.28  1592.10  1626.41
                             1655.79  1687.00  1721.96  1782.34  1813.45
                             1863.73  1893.52  1907.39  1936.52  1980.46
                             1987.42  2008.74  2021.85  2040.31  2050.11
                             2071.74  2134.41  2138.01  2148.61  2158.31
                             2162.98  2167.44  2392.28  4183.23  4287.55
                             4335.47  4359.62  4368.49  4377.95  4390.95
                             4411.58  4448.19  4461.14  4466.92  4478.92
                             4482.20  5002.58  5102.04  5117.19

 Zero-point correction=                           0.230665 (Hartree/Particle)
 Thermal correction to Energy=                    0.240844
 Thermal correction to Enthalpy=                  0.241788
 Thermal correction to Gibbs Free Energy=         0.195797
 Sum of electronic and zero-point Energies=           -385.676140
 Sum of electronic and thermal Energies=              -385.665961
 Sum of electronic and thermal Enthalpies=            -385.665017
 Sum of electronic and thermal Free Energies=         -385.711008

                     E (Thermal)             CV                S
                      KCal/Mol        Cal/Mol-Kelvin    Cal/Mol-Kelvin
 Total                  151.132             39.131             96.795
 Electronic               0.000              0.000              0.000
 Translational            0.889              2.981             40.457
 Rotational               0.889              2.981             29.091
 Vibrational            149.354             33.170             27.247
 Vibration     1          0.597              1.974              4.480
 Vibration     2          0.604              1.950              3.480
 Vibration     3          0.619              1.901              2.653
 Vibration     4          0.644              1.821              2.018
 Vibration     5          0.651              1.797              1.889
 Vibration     6          0.660              1.771              1.767
 Vibration     7          0.667              1.749              1.673
 Vibration     8          0.681              1.707              1.521
 Vibration     9          0.699              1.654              1.359
 Vibration    10          0.733              1.560              1.133
 Vibration    11          0.791              1.405              0.859
 Vibration    12          0.837              1.292              0.707
 Vibration    13          0.903              1.145              0.550
 Vibration    14          0.980              0.990              0.417

 Optimization completed.
    -- Stationary point found.
 Normal termination of Gaussian 16 at Sun Jul  3 17:28:55 2022.
