 Gaussian 16, Revision A.03,
 Gaussian 16:  ES64L-G16RevA.03 25-Dec-2016

 -----------------------------
 # opt freq b3lyp/6-31g(2df,p)
 -----------------------------

 -------------------
 Title Card Required
 -------------------
 Symbolic Z-matrix:
 Charge =  0 Multiplicity = 1

 SCF Done:  E(RB3LYP) =  -388.466393512     A.U. after   12 cycles
 SCF Done:  E(RB3LYP) =  -388.487554100     A.U. after   10 cycles
 SCF Done:  E(RB3LYP) =  -388.494455054     A.U. after   10 cycles
 SCF Done:  E(RB3LYP) =  -388.496298657     A.U. after   10 cycles
 SCF Done:  E(RB3LYP) =  -388.498431834     A.U. after   10 cycles
 SCF Done:  E(RB3LYP) =  -388.498708867     A.U. after   11 cycles
 SCF Done:  E(RB3LYP) =  -388.500173334     A.U. after   10 cycles
 SCF Done:  E(RB3LYP) =  -388.500642447     A.U. after   10 cycles
 SCF Done:  E(RB3LYP) =  -388.500921906     A.U. after   10 cycles
 SCF Done:  E(RB3LYP) =  -388.500971755     A.U. after   10 cycles
 SCF Done:  E(RB3LYP) =  -388.500989976     A.U. after   10 cycles
 SCF Done:  E(RB3LYP) =  -388.500991156     A.U. after    7 cycles
 SCF Done:  E(RB3LYP) =  -388.500991226     A.U. after    5 cycles
 Optimization completed.
    -- Stationary point found.
 Normal termination of Gaussian 16 at Thu Aug  4 06:39:29 2022.

 ----------------------------------------------------------------------
 #N Geom=AllCheck Guess=TCheck SCRF=Check GenChk RB3LYP/6-31G(2df,p) Fr
 eq
 ----------------------------------------------------------------------

 Structure from the checkpoint file:  "CCC12CCpOpCC1C2.chk"
 -------------------
 Title Card Required
 -------------------
 Charge =  0 Multiplicity = 1

                         Standard orientation:
 ---------------------------------------------------------------------
 Center     Atomic      Atomic             Coordinates (Angstroms)
 Number     Number       Type             X           Y           Z
 ---------------------------------------------------------------------
      1          6           0        2.315606   -1.410840    0.568639
      2          6           0        2.154855   -0.172766   -0.322473
      3          6           0        0.736359    0.358162   -0.398164
      4          6           0       -0.378724   -0.544026   -0.939661
      5          6           0       -1.420614   -0.620052    0.202832
      6          8           0       -2.718592   -1.020552   -0.185685
      7          6           0       -1.332489    0.755654    0.910275
      8          6           0        0.120900    1.181006    0.733642
      9          6           0        0.506372    1.838864   -0.569124
     10          1           0        3.357684   -1.744658    0.591219
     11          1           0        1.710590   -2.250265    0.210205
     12          1           0        2.008618   -1.196536    1.597783
     13          1           0        2.511879   -0.402425   -1.335842
     14          1           0        2.808304    0.624947    0.052416
     15          1           0       -0.018128   -1.537578   -1.218436
     16          1           0       -0.846212   -0.114297   -1.836463
     17          1           0       -1.094123   -1.389927    0.911818
     18          1           0       -3.050872   -0.368721   -0.812985
     19          1           0       -1.627233    0.686491    1.960542
     20          1           0       -2.025319    1.462208    0.431691
     21          1           0        0.707430    1.420850    1.614325
     22          1           0        1.379518    2.484361   -0.563979
     23          1           0       -0.286987    2.173955   -1.232619
 ---------------------------------------------------------------------

 SCF Done:  E(RB3LYP) =  -388.500991226     A.U. after    1 cycles

 The electronic state is 1-A.
 Alpha  occ. eigenvalues --  -19.13053 -10.22511 -10.19006 -10.18416 -10.18132
 Alpha  occ. eigenvalues --  -10.17972 -10.17703 -10.17579 -10.17240  -1.01357
 Alpha  occ. eigenvalues --   -0.87795  -0.76322  -0.74577  -0.70170  -0.62590
 Alpha  occ. eigenvalues --   -0.60483  -0.57484  -0.53027  -0.49329  -0.47430
 Alpha  occ. eigenvalues --   -0.46194  -0.43076  -0.42831  -0.41508  -0.38479
 Alpha  occ. eigenvalues --   -0.37817  -0.36806  -0.36698  -0.35196  -0.34531
 Alpha  occ. eigenvalues --   -0.33105  -0.30744  -0.27739  -0.25592  -0.25510
 Alpha virt. eigenvalues --    0.07398   0.08701   0.10400   0.11182   0.11506
 Alpha virt. eigenvalues --    0.13142   0.13813   0.15491   0.15977   0.16599
 Alpha virt. eigenvalues --    0.17303   0.19092   0.19605   0.19967   0.21052

 Mulliken charges:
               1
     1  C   -0.379973
     2  C   -0.279244
     3  C    0.386785
     4  C   -0.334705
     5  C    0.169244
     6  O   -0.436722
     7  C   -0.268898
     8  C   -0.069909
     9  C   -0.344298
    10  H    0.111823
    11  H    0.118645
    12  H    0.115597
    13  H    0.095763
    14  H    0.091865
    15  H    0.103874
    16  H    0.083516
    17  H    0.092433
    18  H    0.273182
    19  H    0.103828
    20  H    0.085000
    21  H    0.080810
    22  H    0.104265
    23  H    0.097119
 Sum of Mulliken charges =  -0.00000

 Dipole moment (field-independent basis, Debye):
    X=              0.8646    Y=              1.0728    Z=             -0.4260  Tot=              1.4422
 Quadrupole moment (field-independent basis, Debye-Ang):
   XX=            -57.7525   YY=            -58.5039   ZZ=            -54.8722
   XY=             -4.0366   XZ=              2.6558   YZ=             -0.3190

  Exact polarizability:  92.753  -1.797  83.784   0.258  -1.138  77.301
 Approx polarizability: 122.262  -0.906 120.891   1.053  -1.405 118.971

                      1                      2                      3
                      A                      A                      A
 Frequencies --     79.9217               101.5867               166.5994
 Red. masses --      3.4437                 2.1027                 2.0114
 Frc consts  --      0.0130                 0.0128                 0.0329
 IR Inten    --      0.9194                 0.1667                 0.7092

                      4                      5                      6
                      A                      A                      A
 Frequencies --    213.4646               266.4033               297.5704
 Red. masses --      1.4573                 1.4118                 1.8177
 Frc consts  --      0.0391                 0.0590                 0.0948
 IR Inten    --      1.0529                21.9540                14.4815

                      7                      8                      9
                      A                      A                      A
 Frequencies --    320.3538               398.2704               418.2085
 Red. masses --      1.6175                 3.1778                 2.6114
 Frc consts  --      0.0978                 0.2970                 0.2691
 IR Inten    --     41.1890                14.7197                 1.8924

                     10                     11                     12
                      A                      A                      A
 Frequencies --    451.5936               472.8968               519.7214
 Red. masses --      1.9251                 2.3626                 3.6439
 Frc consts  --      0.2313                 0.3113                 0.5799
 IR Inten    --      3.4391                 0.6522                 2.4938

                     13                     14                     15
                      A                      A                      A
 Frequencies --    586.7452               738.5055               779.9732
 Red. masses --      3.2739                 3.3884                 1.2701
 Frc consts  --      0.6641                 1.0888                 0.4552
 IR Inten    --      1.2115                 1.0341                 2.0590

                     16                     17                     18
                      A                      A                      A
 Frequencies --    818.8500               852.3273               870.2741
 Red. masses --      2.0357                 2.8713                 1.3207
 Frc consts  --      0.8042                 1.2290                 0.5893
 IR Inten    --      5.3434                 4.2803                 1.6855

                     19                     20                     21
                      A                      A                      A
 Frequencies --    897.4336               930.3080               954.0111
 Red. masses --      2.3128                 1.7541                 1.5661
 Frc consts  --      1.0975                 0.8945                 0.8398
 IR Inten    --      3.5927                 0.1250                 1.8422

                     22                     23                     24
                      A                      A                      A
 Frequencies --    989.7216              1021.3866              1046.0230
 Red. masses --      1.7169                 1.6346                 1.4376
 Frc consts  --      0.9909                 1.0047                 0.9267
 IR Inten    --      0.5006                 7.4734                 5.2896

                     25                     26                     27
                      A                      A                      A
 Frequencies --   1049.4075              1070.7418              1085.2185
 Red. masses --      2.0664                 1.3888                 2.4451
 Frc consts  --      1.3407                 0.9381                 1.6966
 IR Inten    --      3.7726                 2.9790                13.5654

                     28                     29                     30
                      A                      A                      A
 Frequencies --   1093.8750              1116.9226              1122.1774
 Red. masses --      2.4353                 2.3144                 1.7756
 Frc consts  --      1.7168                 1.7011                 1.3174
 IR Inten    --    108.9263                26.1356                10.0201

                     31                     32                     33
                      A                      A                      A
 Frequencies --   1166.3143              1194.0188              1250.8097
 Red. masses --      1.4624                 1.3048                 1.5828
 Frc consts  --      1.1721                 1.0960                 1.4590
 IR Inten    --      2.9784                 2.8837                 0.2412

                     34                     35                     36
                      A                      A                      A
 Frequencies --   1262.4988              1284.4341              1298.9310
 Red. masses --      1.5385                 1.4426                 1.6156
 Frc consts  --      1.4448                 1.4022                 1.6061
 IR Inten    --      3.6113                 5.7066                 4.8314

                     37                     38                     39
                      A                      A                      A
 Frequencies --   1328.0618              1341.8476              1352.9680
 Red. masses --      1.4197                 1.5259                 1.4622
 Frc consts  --      1.4753                 1.6187                 1.5770
 IR Inten    --      2.2742                 8.0731                 2.1691

                     40                     41                     42
                      A                      A                      A
 Frequencies --   1360.0435              1403.6583              1409.4407
 Red. masses --      1.4175                 2.1287                 1.2376
 Frc consts  --      1.5448                 2.4711                 1.4485
 IR Inten    --      1.7904                 7.8751                 3.1929

                     43                     44                     45
                      A                      A                      A
 Frequencies --   1430.5033              1480.5600              1483.5778
 Red. masses --      1.2575                 1.1167                 1.1034
 Frc consts  --      1.5162                 1.4423                 1.4309
 IR Inten    --     57.9190                 0.3696                 0.1756

                     46                     47                     48
                      A                      A                      A
 Frequencies --   1486.2227              1497.1186              1506.4465
 Red. masses --      1.1404                 1.0894                 1.0853
 Frc consts  --      1.4841                 1.4386                 1.4511
 IR Inten    --      0.4100                 6.3324                 5.8360

                     49                     50                     51
                      A                      A                      A
 Frequencies --   1507.1399              3005.3937              3008.3147
 Red. masses --      1.0861                 1.0702                 1.0678
 Frc consts  --      1.4536                 5.6952                 5.6934
 IR Inten    --      6.2084                28.0574                42.9204

                     52                     53                     54
                      A                      A                      A
 Frequencies --   3010.9727              3033.2306              3042.8444
 Red. masses --      1.0653                 1.0352                 1.0831
 Frc consts  --      5.6901                 5.6118                 5.9085
 IR Inten    --     33.5422                18.5228                31.1235

                     55                     56                     57
                      A                      A                      A
 Frequencies --   3045.0722              3089.0326              3093.1979
 Red. masses --      1.0996                 1.0934                 1.0945
 Frc consts  --      6.0071                 6.1474                 6.1701
 IR Inten    --     16.5994                22.8097                28.1578

                     58                     59                     60
                      A                      A                      A
 Frequencies --   3101.6163              3103.0537              3106.5534
 Red. masses --      1.1008                 1.1007                 1.0555
 Frc consts  --      6.2391                 6.2446                 6.0018
 IR Inten    --     38.6235                36.3763                24.9112

                     61                     62                     63
                      A                      A                      A
 Frequencies --   3158.7422              3192.6269              3794.9645
 Red. masses --      1.0912                 1.1147                 1.0656
 Frc consts  --      6.4148                 6.6945                 9.0421
 IR Inten    --     14.3954                18.8496                10.3965

 - Thermochemistry -
 -------------------
 Temperature   298.150 Kelvin.  Pressure   1.00000 Atm.
 Atom     1 has atomic number  6 and mass  12.00000

 Molecular mass:   126.10447 amu.
 Principal axes and moments of inertia in atomic units:
                           1         2         3
     Eigenvalues --   726.168871454.728221762.19016
           X            0.99905  -0.04293   0.00767
           Y            0.04306   0.99890  -0.01845
           Z           -0.00687   0.01876   0.99980
 This molecule is an asymmetric top.
 Rotational symmetry number  1.
 Warning -- assumption of classical behavior for rotation
           may cause significant error
 Rotational temperatures (Kelvin)      0.11928     0.05954     0.04915
 Rotational constants (GHZ):           2.48529     1.24060     1.02415
 Zero-point vibrational energy     541673.3 (Joules/Mol)
                                  129.46303 (Kcal/Mol)
 Warning -- explicit consideration of  13 degrees of freedom as
           vibrations may cause significant error
 Vibrational temperatures:    114.99   146.16   239.70   307.13   383.29
          (Kelvin)            428.14   460.92   573.02   601.71   649.74
                              680.39   747.76   844.20  1062.54  1122.21
                             1178.14  1226.31  1252.13  1291.21  1338.51
                             1372.61  1423.99  1469.55  1504.99  1509.86
                             1540.56  1561.39  1573.84  1607.00  1614.56
                             1678.07  1717.93  1799.64  1816.45  1848.01
                             1868.87  1910.78  1930.62  1946.62  1956.80
                             2019.55  2027.87  2058.18  2130.20  2134.54
                             2138.34  2154.02  2167.44  2168.44  4324.09
                             4328.29  4332.12  4364.14  4377.97  4381.18
                             4444.43  4450.42  4462.53  4464.60  4469.64
                             4544.73  4593.48  5460.11

 Zero-point correction=                           0.206312 (Hartree/Particle)
 Thermal correction to Energy=                    0.215537
 Thermal correction to Enthalpy=                  0.216481
 Thermal correction to Gibbs Free Energy=         0.172524
 Sum of electronic and zero-point Energies=           -388.294679
 Sum of electronic and thermal Energies=              -388.285454
 Sum of electronic and thermal Enthalpies=            -388.284510
 Sum of electronic and thermal Free Energies=         -388.328467

                     E (Thermal)             CV                S
                      KCal/Mol        Cal/Mol-Kelvin    Cal/Mol-Kelvin
 Total                  135.252             36.194             92.516
 Electronic               0.000              0.000              0.000
 Translational            0.889              2.981             40.409
 Rotational               0.889              2.981             29.011
 Vibrational            133.474             30.232             23.096
 Vibration     1          0.600              1.963              3.893
 Vibration     2          0.604              1.948              3.424
 Vibration     3          0.624              1.884              2.474
 Vibration     4          0.644              1.820              2.014
 Vibration     5          0.672              1.735              1.619
 Vibration     6          0.691              1.678              1.431
 Vibration     7          0.706              1.635              1.308
 Vibration     8          0.765              1.474              0.969
 Vibration     9          0.781              1.431              0.898
 Vibration    10          0.810              1.357              0.791
 Vibration    11          0.830              1.310              0.729
 Vibration    12          0.875              1.206              0.611
 Vibration    13          0.944              1.060              0.473

 Optimization completed.
    -- Stationary point found.
 Normal termination of Gaussian 16 at Thu Aug  4 07:19:28 2022.
