 Gaussian 16, Revision A.03,
 Gaussian 16:  ES64L-G16RevA.03 25-Dec-2016

 -----------------------------
 # opt freq b3lyp/6-31g(2df,p)
 -----------------------------

 -------------------
 Title Card Required
 -------------------
 Symbolic Z-matrix:
 Charge =  0 Multiplicity = 1

 SCF Done:  E(RB3LYP) =  -398.114772136     A.U. after   15 cycles
 SCF Done:  E(RB3LYP) =  -398.146357100     A.U. after   14 cycles
 SCF Done:  E(RB3LYP) =  -398.159028292     A.U. after   14 cycles
 SCF Done:  E(RB3LYP) =  -398.160283769     A.U. after   13 cycles
 SCF Done:  E(RB3LYP) =  -398.160722084     A.U. after   13 cycles
 SCF Done:  E(RB3LYP) =  -398.161086600     A.U. after   12 cycles
 SCF Done:  E(RB3LYP) =  -398.161533200     A.U. after   12 cycles
 SCF Done:  E(RB3LYP) =  -398.161629108     A.U. after   13 cycles
 SCF Done:  E(RB3LYP) =  -398.162225229     A.U. after   11 cycles
 SCF Done:  E(RB3LYP) =  -398.163385328     A.U. after   13 cycles
 SCF Done:  E(RB3LYP) =  -398.163665385     A.U. after   13 cycles
 SCF Done:  E(RB3LYP) =  -398.163721958     A.U. after   11 cycles
 SCF Done:  E(RB3LYP) =  -398.163813069     A.U. after   12 cycles
 SCF Done:  E(RB3LYP) =  -398.163836538     A.U. after   12 cycles
 SCF Done:  E(RB3LYP) =  -398.163838537     A.U. after    8 cycles
 SCF Done:  E(RB3LYP) =  -398.163847921     A.U. after   11 cycles
 SCF Done:  E(RB3LYP) =  -398.163849001     A.U. after    9 cycles
 SCF Done:  E(RB3LYP) =  -398.163849498     A.U. after    8 cycles
 SCF Done:  E(RB3LYP) =  -398.163849553     A.U. after    7 cycles
 Optimization completed.
    -- Stationary point found.
 Normal termination of Gaussian 16 at Thu Aug  4 08:41:56 2022.

 ----------------------------------------------------------------------
 #N Geom=AllCheck Guess=TCheck SCRF=Check GenChk RB3LYP/6-31G(2df,p) Fr
 eq
 ----------------------------------------------------------------------

 Structure from the checkpoint file:  "CCC12NdCC1dNC2N.chk"
 -------------------
 Title Card Required
 -------------------
 Charge =  0 Multiplicity = 1

                         Standard orientation:
 ---------------------------------------------------------------------
 Center     Atomic      Atomic             Coordinates (Angstroms)
 Number     Number       Type             X           Y           Z
 ---------------------------------------------------------------------
      1          6           0       -2.754923   -0.398139    0.164728
      2          6           0       -1.418346   -1.123663   -0.027772
      3          6           0       -0.210941   -0.222764   -0.094461
      4          7           0       -0.326140    0.917929   -1.116916
      5          6           0       -0.129161    1.855365   -0.251539
      6          6           0        0.263623    0.872436    0.814535
      7          7           0        1.472548    0.507678    1.120082
      8          6           0        1.246695   -0.766677    0.320770
      9          7           0        2.335339   -0.937393   -0.597937
     10          1           0       -3.576992   -1.116623    0.232111
     11          1           0       -2.961316    0.277264   -0.669613
     12          1           0       -2.751630    0.195687    1.085073
     13          1           0       -1.450523   -1.717216   -0.952001
     14          1           0       -1.263910   -1.838042    0.789947
     15          1           0       -0.071841    2.925939   -0.423031
     16          1           0        1.128729   -1.669143    0.933152
     17          1           0        2.469130   -0.087917   -1.139180
     18          1           0        2.124446   -1.686808   -1.250629
 ---------------------------------------------------------------------

 SCF Done:  E(RB3LYP) =  -398.163849553     A.U. after    1 cycles

 The electronic state is 1-A.
 Alpha  occ. eigenvalues --  -14.35756 -14.32379 -14.32374 -10.26055 -10.25655
 Alpha  occ. eigenvalues --  -10.24233 -10.22133 -10.19709 -10.18114  -1.01007
 Alpha  occ. eigenvalues --   -0.92525  -0.86994  -0.78647  -0.69621  -0.64126
 Alpha  occ. eigenvalues --   -0.61932  -0.61068  -0.51408  -0.51081  -0.49068
 Alpha  occ. eigenvalues --   -0.47253  -0.43785  -0.42242  -0.41090  -0.39340
 Alpha  occ. eigenvalues --   -0.38225  -0.35852  -0.35369  -0.32499  -0.29381
 Alpha  occ. eigenvalues --   -0.29030  -0.24478  -0.22763
 Alpha virt. eigenvalues --   -0.05988  -0.01673   0.07561   0.09435   0.10484
 Alpha virt. eigenvalues --    0.12153   0.12550   0.13211   0.14532   0.15237
 Alpha virt. eigenvalues --    0.16650   0.18009   0.19056   0.19450   0.23105

 Mulliken charges:
               1
     1  C   -0.385587
     2  C   -0.278493
     3  C    0.257366
     4  N   -0.201593
     5  C   -0.042938
     6  C    0.038497
     7  N   -0.218507
     8  C   -0.009977
     9  N   -0.479817
    10  H    0.116396
    11  H    0.133255
    12  H    0.119939
    13  H    0.110671
    14  H    0.109388
    15  H    0.148328
    16  H    0.102910
    17  H    0.242842
    18  H    0.237320
 Sum of Mulliken charges =  -0.00000

 Dipole moment (field-independent basis, Debye):
    X=             -2.0737    Y=             -0.4318    Z=             -0.9684  Tot=              2.3290
 Quadrupole moment (field-independent basis, Debye-Ang):
   XX=            -59.5558   YY=            -46.0468   ZZ=            -55.9621
   XY=             -0.1397   XZ=             -6.0332   YZ=              0.3561

  Exact polarizability:  84.770  -3.810  84.000   3.619  -1.302  66.180
 Approx polarizability: 128.626 -10.391 131.264  19.092   0.630 126.152

                      1                      2                      3
                      A                      A                      A
 Frequencies --     73.0096               127.1520               155.9581
 Red. masses --      2.2601                 2.9859                 2.7044
 Frc consts  --      0.0071                 0.0284                 0.0388
 IR Inten    --      0.5708                 2.4026                 2.8934

                      4                      5                      6
                      A                      A                      A
 Frequencies --    188.4444               215.9987               262.5644
 Red. masses --      1.3621                 1.4726                 1.8504
 Frc consts  --      0.0285                 0.0405                 0.0752
 IR Inten    --     25.7969                 7.4919                 8.4555

                      7                      8                      9
                      A                      A                      A
 Frequencies --    309.5354               377.3119               389.8879
 Red. masses --      2.9626                 2.9889                 4.6731
 Frc consts  --      0.1672                 0.2507                 0.4185
 IR Inten    --      7.4079                32.8859                 1.9574

                     10                     11                     12
                      A                      A                      A
 Frequencies --    527.5820               548.2128               655.2720
 Red. masses --      4.7338                 4.0165                 3.6480
 Frc consts  --      0.7763                 0.7112                 0.9229
 IR Inten    --      7.2078                10.7573                21.6553

                     13                     14                     15
                      A                      A                      A
 Frequencies --    681.1048               763.3368               814.1614
 Red. masses --      4.3617                 1.5744                 2.1404
 Frc consts  --      1.1922                 0.5405                 0.8359
 IR Inten    --      2.4600                13.4729                51.6329

                     16                     17                     18
                      A                      A                      A
 Frequencies --    855.4591               878.1191               890.4711
 Red. masses --      3.7997                 2.1779                 2.3758
 Frc consts  --      1.6383                 0.9895                 1.1099
 IR Inten    --     18.0675                93.1223                43.9226

                     19                     20                     21
                      A                      A                      A
 Frequencies --    907.4878               952.6150               977.3662
 Red. masses --      2.8041                 2.1415                 2.4884
 Frc consts  --      1.3606                 1.1450                 1.4005
 IR Inten    --     54.1937                10.5507                 2.9846

                     22                     23                     24
                      A                      A                      A
 Frequencies --   1064.4801              1103.8612              1118.2533
 Red. masses --      2.6623                 2.2332                 1.5542
 Frc consts  --      1.7774                 1.6033                 1.1451
 IR Inten    --     21.0796                14.1442                 4.2565

                     25                     26                     27
                      A                      A                      A
 Frequencies --   1126.9777              1204.3541              1211.1563
 Red. masses --      1.7370                 1.6320                 1.7933
 Frc consts  --      1.2998                 1.3947                 1.5499
 IR Inten    --      4.4709                 6.4051                12.9671

                     28                     29                     30
                      A                      A                      A
 Frequencies --   1249.9606              1296.1533              1339.8817
 Red. masses --      1.5795                 1.5264                 2.0718
 Frc consts  --      1.4540                 1.5109                 2.1914
 IR Inten    --     18.5870                 4.8073                 3.0924

                     31                     32                     33
                      A                      A                      A
 Frequencies --   1369.8878              1383.9658              1410.2071
 Red. masses --      1.8366                 1.3184                 1.2359
 Frc consts  --      2.0306                 1.4878                 1.4481
 IR Inten    --     10.3269                20.9730                 1.8428

                     34                     35                     36
                      A                      A                      A
 Frequencies --   1473.9468              1496.7969              1506.5498
 Red. masses --      1.0750                 1.0410                 1.0671
 Frc consts  --      1.3760                 1.3742                 1.4270
 IR Inten    --      1.6026                 7.7929                 2.9148

                     37                     38                     39
                      A                      A                      A
 Frequencies --   1523.2828              1576.9304              1642.5340
 Red. masses --      8.2775                 8.9861                 1.0994
 Frc consts  --     11.3165                13.1659                 1.7476
 IR Inten    --     11.9103                46.7727                32.8114

                     40                     41                     42
                      A                      A                      A
 Frequencies --   3013.4728              3029.7174              3038.9377
 Red. masses --      1.0623                 1.0863                 1.0367
 Frc consts  --      5.6840                 5.8747                 5.6407
 IR Inten    --     19.6275                30.4491                20.9343

                     43                     44                     45
                      A                      A                      A
 Frequencies --   3055.3414              3105.9559              3121.4813
 Red. masses --      1.0966                 1.1011                 1.1016
 Frc consts  --      6.0315                 6.2583                 6.3240
 IR Inten    --     17.5880                31.0580                21.4320

                     46                     47                     48
                      A                      A                      A
 Frequencies --   3189.9232              3491.0081              3576.3789
 Red. masses --      1.1000                 1.0484                 1.0929
 Frc consts  --      6.5946                 7.5280                 8.2364
 IR Inten    --     13.4726                 2.1108                 3.6000

 - Thermochemistry -
 -------------------
 Temperature   298.150 Kelvin.  Pressure   1.00000 Atm.
 Atom     1 has atomic number  6 and mass  12.00000

 Molecular mass:   123.07965 amu.
 Principal axes and moments of inertia in atomic units:
                           1         2         3
     Eigenvalues --   650.583271235.684491475.91584
           X            0.99964   0.01058  -0.02484
           Y           -0.01082   0.99990  -0.00925
           Z            0.02474   0.00951   0.99965
 This molecule is an asymmetric top.
 Rotational symmetry number  1.
 Warning -- assumption of classical behavior for rotation
           may cause significant error
 Rotational temperatures (Kelvin)      0.13313     0.07009     0.05868
 Rotational constants (GHZ):           2.77404     1.46052     1.22279
 Zero-point vibrational energy     384434.6 (Joules/Mol)
                                   91.88208 (Kcal/Mol)
 Warning -- explicit consideration of  11 degrees of freedom as
           vibrations may cause significant error
 Vibrational temperatures:    105.04   182.94   224.39   271.13   310.77
          (Kelvin)            377.77   445.35   542.87   560.96   759.07
                              788.76   942.79   979.96  1098.27  1171.40
                             1230.81  1263.42  1281.19  1305.67  1370.60
                             1406.21  1531.55  1588.21  1608.92  1621.47
                             1732.80  1742.58  1798.41  1864.88  1927.79
                             1970.96  1991.22  2028.97  2120.68  2153.56
                             2167.59  2191.66  2268.85  2363.24  4335.72
                             4359.09  4372.35  4395.95  4468.78  4491.12
                             4589.59  5022.78  5145.61

 Zero-point correction=                           0.146423 (Hartree/Particle)
 Thermal correction to Energy=                    0.155347
 Thermal correction to Enthalpy=                  0.156291
 Thermal correction to Gibbs Free Energy=         0.112832
 Sum of electronic and zero-point Energies=           -398.017426
 Sum of electronic and thermal Energies=              -398.008502
 Sum of electronic and thermal Enthalpies=            -398.007558
 Sum of electronic and thermal Free Energies=         -398.051018

                     E (Thermal)             CV                S
                      KCal/Mol        Cal/Mol-Kelvin    Cal/Mol-Kelvin
 Total                   97.482             32.918             91.468
 Electronic               0.000              0.000              0.000
 Translational            0.889              2.981             40.337
 Rotational               0.889              2.981             28.563
 Vibrational             95.704             26.956             22.568
 Vibration     1          0.599              1.967              4.071
 Vibration     2          0.611              1.926              2.989
 Vibration     3          0.620              1.896              2.598
 Vibration     4          0.633              1.856              2.243
 Vibration     5          0.645              1.817              1.992
 Vibration     6          0.670              1.741              1.645
 Vibration     7          0.699              1.656              1.365
 Vibration     8          0.748              1.518              1.050
 Vibration     9          0.758              1.492              1.001
 Vibration    10          0.883              1.189              0.593
 Vibration    11          0.903              1.144              0.548

 Optimization completed.
    -- Stationary point found.
 Normal termination of Gaussian 16 at Thu Aug  4 09:16:30 2022.
