 Gaussian 16, Revision A.03,
 Gaussian 16:  ES64L-G16RevA.03 25-Dec-2016

 -----------------------------
 # opt freq b3lyp/6-31g(2df,p)
 -----------------------------

 -------------------
 Title Card Required
 -------------------
 Symbolic Z-matrix:
 Charge =  0 Multiplicity = 1

 SCF Done:  E(RB3LYP) =  -311.896411509     A.U. after   14 cycles
 SCF Done:  E(RB3LYP) =  -311.918244204     A.U. after   12 cycles
 SCF Done:  E(RB3LYP) =  -311.927299537     A.U. after   13 cycles
 SCF Done:  E(RB3LYP) =  -311.928994355     A.U. after   12 cycles
 SCF Done:  E(RB3LYP) =  -311.929552291     A.U. after   12 cycles
 SCF Done:  E(RB3LYP) =  -311.929940310     A.U. after   12 cycles
 SCF Done:  E(RB3LYP) =  -311.930316393     A.U. after   13 cycles
 SCF Done:  E(RB3LYP) =  -311.931108604     A.U. after   13 cycles
 SCF Done:  E(RB3LYP) =  -311.932487986     A.U. after   14 cycles
 SCF Done:  E(RB3LYP) =  -311.934105135     A.U. after   12 cycles
 SCF Done:  E(RB3LYP) =  -311.935435450     A.U. after   12 cycles
 SCF Done:  E(RB3LYP) =  -311.935914913     A.U. after   13 cycles
 SCF Done:  E(RB3LYP) =  -311.936104721     A.U. after   11 cycles
 SCF Done:  E(RB3LYP) =  -311.936145177     A.U. after    9 cycles
 SCF Done:  E(RB3LYP) =  -311.936152855     A.U. after    9 cycles
 SCF Done:  E(RB3LYP) =  -311.936156257     A.U. after    8 cycles
 SCF Done:  E(RB3LYP) =  -311.936158261     A.U. after    8 cycles
 SCF Done:  E(RB3LYP) =  -311.936158690     A.U. after    8 cycles
 SCF Done:  E(RB3LYP) =  -311.936158819     A.U. after    7 cycles
 Optimization completed.
    -- Stationary point found.
 Normal termination of Gaussian 16 at Thu Aug  4 05:44:21 2022.

 ----------------------------------------------------------------------
 #N Geom=AllCheck Guess=TCheck SCRF=Check GenChk RB3LYP/6-31G(2df,p) Fr
 eq
 ----------------------------------------------------------------------

 Structure from the checkpoint file:  "CCC1pCpCdC2CC21.chk"
 -------------------
 Title Card Required
 -------------------
 Charge =  0 Multiplicity = 1

                         Standard orientation:
 ---------------------------------------------------------------------
 Center     Atomic      Atomic             Coordinates (Angstroms)
 Number     Number       Type             X           Y           Z
 ---------------------------------------------------------------------
      1          6           0       -2.278551   -1.022867   -0.132593
      2          6           0       -1.678931    0.386695   -0.188628
      3          6           0       -0.160844    0.506300    0.046736
      4          6           0        0.252829    1.982663    0.010230
      5          6           0        0.397585   -0.289095    1.187676
      6          6           0        1.488959   -1.015199    0.777509
      7          6           0        2.097200   -0.512457   -0.582610
      8          6           0        0.696112   -0.414359   -0.845396
      9          1           0       -3.368483   -0.971309   -0.214140
     10          1           0       -2.036378   -1.527764    0.807208
     11          1           0       -1.925491   -1.660597   -0.948852
     12          1           0       -2.170565    1.008161    0.571045
     13          1           0       -1.921224    0.849948   -1.154926
     14          1           0       -0.291101    2.551028    0.772163
     15          1           0        0.027650    2.424472   -0.967596
     16          1           0        1.320693    2.112751    0.205188
     17          1           0       -0.047224   -0.393277    2.177849
     18          1           0        2.652009   -1.273466   -1.124503
     19          1           0        2.676132    0.396850   -0.431964
     20          1           0        0.197820   -1.246875   -1.329013
 ---------------------------------------------------------------------

 SCF Done:  E(RB3LYP) =  -311.936158819     A.U. after    1 cycles

 The electronic state is 1-A.
 Alpha  occ. eigenvalues --  -10.22146 -10.21112 -10.20550 -10.19147 -10.18628
 Alpha  occ. eigenvalues --  -10.17776 -10.17675 -10.17646  -0.88937  -0.78796
 Alpha  occ. eigenvalues --   -0.73082  -0.69838  -0.64411  -0.61447  -0.55006
 Alpha  occ. eigenvalues --   -0.51803  -0.46652  -0.46345  -0.43505  -0.42395
 Alpha  occ. eigenvalues --   -0.40986  -0.40267  -0.38776  -0.36434  -0.35571
 Alpha  occ. eigenvalues --   -0.34904  -0.33144  -0.31387  -0.24955  -0.18735
 Alpha virt. eigenvalues --   -0.03115   0.03220   0.08608   0.10147   0.11512
 Alpha virt. eigenvalues --    0.13167   0.13964   0.14882   0.15694   0.16719
 Alpha virt. eigenvalues --    0.18397   0.18539   0.19120   0.20170   0.21869

 Mulliken charges:
               1
     1  C   -0.400932
     2  C   -0.229891
     3  C    0.252275
     4  C   -0.440994
     5  C   -0.069414
     6  C   -0.157434
     7  C   -0.283611
     8  C   -0.057012
     9  H    0.115527
    10  H    0.128091
    11  H    0.118157
    12  H    0.099646
    13  H    0.095836
    14  H    0.116840
    15  H    0.113312
    16  H    0.117713
    17  H    0.088820
    18  H    0.130936
    19  H    0.135712
    20  H    0.126422
 Sum of Mulliken charges =  -0.00000

 Dipole moment (field-independent basis, Debye):
    X=             -1.1089    Y=              1.3010    Z=             -1.4080  Tot=              2.2146
 Quadrupole moment (field-independent basis, Debye-Ang):
   XX=            -50.2729   YY=            -52.5893   ZZ=            -50.2777
   XY=              2.4929   XZ=             -3.4760   YZ=              3.2306

  Exact polarizability:  92.105  -7.663  78.163  -0.897  -1.555  78.792
 Approx polarizability: 137.500 -23.040 119.014   8.205  -9.897 152.634

                      1                      2                      3
                      A                      A                      A
 Frequencies --     76.3295               153.6053               209.2917
 Red. masses --      1.6115                 3.0880                 1.4324
 Frc consts  --      0.0055                 0.0429                 0.0370
 IR Inten    --      0.5298                 6.5139                 2.1332

                      4                      5                      6
                      A                      A                      A
 Frequencies --    223.4413               249.0251               270.7353
 Red. masses --      1.2564                 1.7121                 2.2970
 Frc consts  --      0.0370                 0.0626                 0.0992
 IR Inten    --      0.3035                 2.5141                 6.0844

                      7                      8                      9
                      A                      A                      A
 Frequencies --    333.2574               367.7712               444.4751
 Red. masses --      2.7728                 2.3462                 3.1090
 Frc consts  --      0.1814                 0.1870                 0.3619
 IR Inten    --     13.2370                12.2958                15.2881

                     10                     11                     12
                      A                      A                      A
 Frequencies --    461.2738               489.6371               593.1164
 Red. masses --      2.5884                 4.6949                 3.2727
 Frc consts  --      0.3245                 0.6632                 0.6783
 IR Inten    --      7.1842                24.3011                 8.8471

                     13                     14                     15
                      A                      A                      A
 Frequencies --    675.2149               729.2228               776.9067
 Red. masses --      3.8133                 3.7644                 1.2669
 Frc consts  --      1.0243                 1.1794                 0.4506
 IR Inten    --     25.4003                 5.6946                 4.0847

                     16                     17                     18
                      A                      A                      A
 Frequencies --    829.4317               907.5097               919.7244
 Red. masses --      1.5098                 1.6532                 1.4290
 Frc consts  --      0.6120                 0.8022                 0.7122
 IR Inten    --     12.8781                 1.7229                10.0548

                     19                     20                     21
                      A                      A                      A
 Frequencies --    929.4079               998.6764              1016.7663
 Red. masses --      1.8167                 1.4626                 1.3784
 Frc consts  --      0.9246                 0.8594                 0.8396
 IR Inten    --      7.0713                 3.7886                 9.4037

                     22                     23                     24
                      A                      A                      A
 Frequencies --   1049.4254              1053.7122              1074.0712
 Red. masses --      1.6329                 1.3001                 1.8396
 Frc consts  --      1.0595                 0.8505                 1.2504
 IR Inten    --      3.9810                 1.0237                 1.1134

                     25                     26                     27
                      A                      A                      A
 Frequencies --   1131.0147              1187.3437              1207.9855
 Red. masses --      1.2273                 2.6347                 2.1398
 Frc consts  --      0.9250                 2.1885                 1.8397
 IR Inten    --      2.8692                 5.5095                 4.2639

                     28                     29                     30
                      A                      A                      A
 Frequencies --   1216.9305              1241.0669              1279.3314
 Red. masses --      1.6228                 2.1350                 1.7259
 Frc consts  --      1.4159                 1.9375                 1.6643
 IR Inten    --      1.5617                 2.6759                 0.6702

                     31                     32                     33
                      A                      A                      A
 Frequencies --   1325.7708              1373.2864              1392.5820
 Red. masses --      1.3053                 1.5062                 1.5585
 Frc consts  --      1.3518                 1.6737                 1.7807
 IR Inten    --      1.0884                 2.2958                 4.5143

                     34                     35                     36
                      A                      A                      A
 Frequencies --   1416.1635              1418.1659              1476.8910
 Red. masses --      1.4193                 1.2704                 1.0735
 Frc consts  --      1.6771                 1.5054                 1.3796
 IR Inten    --      9.4791                 0.7458                 0.9493

                     37                     38                     39
                      A                      A                      A
 Frequencies --   1486.7091              1494.2790              1498.6560
 Red. masses --      1.1172                 1.1044                 1.0665
 Frc consts  --      1.4549                 1.4529                 1.4113
 IR Inten    --      1.3851                 5.3866                 5.9347

                     40                     41                     42
                      A                      A                      A
 Frequencies --   1505.8116              1508.3294              1514.3185
 Red. masses --      1.0792                 1.3962                 2.7804
 Frc consts  --      1.4418                 1.8715                 3.7566
 IR Inten    --      6.6232                 5.1056                 4.3345

                     43                     44                     45
                      A                      A                      A
 Frequencies --   3009.6205              3027.1243              3041.4658
 Red. masses --      1.0599                 1.0372                 1.0418
 Frc consts  --      5.6565                 5.5998                 5.6782
 IR Inten    --     29.6605                34.5944                16.6453

                     46                     47                     48
                      A                      A                      A
 Frequencies --   3043.3723              3093.2691              3104.2515
 Red. masses --      1.0939                 1.1004                 1.0956
 Frc consts  --      5.9697                 6.2036                 6.2202
 IR Inten    --     16.5856                17.8835                 8.6172

                     49                     50                     51
                      A                      A                      A
 Frequencies --   3104.9531              3109.1305              3110.3309
 Red. masses --      1.0883                 1.0738                 1.0902
 Frc consts  --      6.1819                 6.1158                 6.2142
 IR Inten    --     50.5870                 3.0575                37.5225

                     52                     53                     54
                      A                      A                      A
 Frequencies --   3113.5606              3175.7038              3199.2131
 Red. masses --      1.1003                 1.1085                 1.0920
 Frc consts  --      6.2847                 6.5868                 6.5850
 IR Inten    --     34.8078                 6.6000                 6.5741

 - Thermochemistry -
 -------------------
 Temperature   298.150 Kelvin.  Pressure   1.00000 Atm.
 Atom     1 has atomic number  6 and mass  12.00000

 Molecular mass:   108.09390 amu.
 Principal axes and moments of inertia in atomic units:
                           1         2         3
     Eigenvalues --   576.94203 994.955081212.97483
           X            0.99890   0.04509  -0.01307
           Y           -0.04461   0.99839   0.03500
           Z            0.01463  -0.03438   0.99930
 This molecule is an asymmetric top.
 Rotational symmetry number  1.
 Warning -- assumption of classical behavior for rotation
           may cause significant error
 Rotational temperatures (Kelvin)      0.15013     0.08705     0.07141
 Rotational constants (GHZ):           3.12812     1.81389     1.48786
 Zero-point vibrational energy     458401.0 (Joules/Mol)
                                  109.56046 (Kcal/Mol)
 Warning -- explicit consideration of  12 degrees of freedom as
           vibrations may cause significant error
 Vibrational temperatures:    109.82   221.00   301.12   321.48   358.29
          (Kelvin)            389.53   479.48   529.14   639.50   663.67
                              704.48   853.36   971.48  1049.19  1117.80
                             1193.37  1305.70  1323.28  1337.21  1436.87
                             1462.90  1509.89  1516.06  1545.35  1627.28
                             1708.32  1738.02  1750.89  1785.62  1840.67
                             1907.49  1975.85  2003.61  2037.54  2040.42
                             2124.92  2139.04  2149.93  2156.23  2166.53
                             2170.15  2178.77  4330.17  4355.36  4375.99
                             4378.73  4450.52  4466.33  4467.33  4473.35
                             4475.07  4479.72  4569.13  4602.95

 Zero-point correction=                           0.174596 (Hartree/Particle)
 Thermal correction to Energy=                    0.183367
 Thermal correction to Enthalpy=                  0.184312
 Thermal correction to Gibbs Free Energy=         0.141933
 Sum of electronic and zero-point Energies=           -311.761563
 Sum of electronic and thermal Energies=              -311.752791
 Sum of electronic and thermal Enthalpies=            -311.751847
 Sum of electronic and thermal Free Energies=         -311.794226

                     E (Thermal)             CV                S
                      KCal/Mol        Cal/Mol-Kelvin    Cal/Mol-Kelvin
 Total                  115.065             33.473             89.193
 Electronic               0.000              0.000              0.000
 Translational            0.889              2.981             39.950
 Rotational               0.889              2.981             28.034
 Vibrational            113.287             27.511             21.209
 Vibration     1          0.599              1.965              3.983
 Vibration     2          0.619              1.899              2.627
 Vibration     3          0.642              1.827              2.050
 Vibration     4          0.649              1.805              1.931
 Vibration     5          0.662              1.764              1.737
 Vibration     6          0.674              1.727              1.592
 Vibration     7          0.715              1.609              1.244
 Vibration     8          0.740              1.539              1.089
 Vibration     9          0.804              1.373              0.813
 Vibration    10          0.819              1.336              0.762
 Vibration    11          0.845              1.273              0.685
 Vibration    12          0.951              1.046              0.462

 Optimization completed.
    -- Stationary point found.
 Normal termination of Gaussian 16 at Thu Aug  4 06:13:37 2022.
