 Gaussian 16, Revision A.03,
 Gaussian 16:  ES64L-G16RevA.03 25-Dec-2016

 -----------------------------
 # opt freq b3lyp/6-31g(2df,p)
 -----------------------------

 -------------------
 Title Card Required
 -------------------
 Symbolic Z-matrix:
 Charge =  0 Multiplicity = 1

 SCF Done:  E(RB3LYP) =  -440.394347709     A.U. after   13 cycles
 SCF Done:  E(RB3LYP) =  -440.413490729     A.U. after   13 cycles
 SCF Done:  E(RB3LYP) =  -440.416789083     A.U. after   13 cycles
 SCF Done:  E(RB3LYP) =  -440.415148701     A.U. after   14 cycles
 SCF Done:  E(RB3LYP) =  -440.419778506     A.U. after   13 cycles
 SCF Done:  E(RB3LYP) =  -440.423886470     A.U. after   15 cycles
 SCF Done:  E(RB3LYP) =  -440.428011271     A.U. after   15 cycles
 SCF Done:  E(RB3LYP) =  -440.431692381     A.U. after   13 cycles
 SCF Done:  E(RB3LYP) =  -440.434106241     A.U. after   12 cycles
 SCF Done:  E(RB3LYP) =  -440.435298179     A.U. after   13 cycles
 SCF Done:  E(RB3LYP) =  -440.435743103     A.U. after   11 cycles
 SCF Done:  E(RB3LYP) =  -440.436057995     A.U. after   13 cycles
 SCF Done:  E(RB3LYP) =  -440.436269227     A.U. after   11 cycles
 SCF Done:  E(RB3LYP) =  -440.436349107     A.U. after   11 cycles
 SCF Done:  E(RB3LYP) =  -440.436361457     A.U. after    9 cycles
 SCF Done:  E(RB3LYP) =  -440.436365757     A.U. after    9 cycles
 SCF Done:  E(RB3LYP) =  -440.436365919     A.U. after    7 cycles
 Optimization completed.
    -- Stationary point found.
 Normal termination of Gaussian 16 at Thu Aug  4 02:12:42 2022.

 ----------------------------------------------------------------------
 #N Geom=AllCheck Guess=TCheck SCRF=Check GenChk RB3LYP/6-31G(2df,p) Fr
 eq
 ----------------------------------------------------------------------

 Structure from the checkpoint file:  "CCC1NC1CpOpCdO.chk"
 -------------------
 Title Card Required
 -------------------
 Charge =  0 Multiplicity = 1

                         Standard orientation:
 ---------------------------------------------------------------------
 Center     Atomic      Atomic             Coordinates (Angstroms)
 Number     Number       Type             X           Y           Z
 ---------------------------------------------------------------------
      1          6           0       -2.738149    1.496319   -0.174284
      2          6           0       -2.570058   -0.027150   -0.212899
      3          6           0       -1.307226   -0.496721    0.477006
      4          7           0       -0.755852   -1.837422    0.232894
      5          6           0       -0.039068   -0.660113   -0.284044
      6          6           0        1.328896   -0.390803    0.317157
      7          8           0        2.338621   -1.048165   -0.397777
      8          6           0        1.605591    1.100937    0.365709
      9          8           0        2.586290    1.584117   -0.146797
     10          1           0       -3.670247    1.802181   -0.658078
     11          1           0       -1.912228    1.999269   -0.687978
     12          1           0       -2.763815    1.864552    0.857013
     13          1           0       -2.559553   -0.375711   -1.253940
     14          1           0       -3.435355   -0.504292    0.265164
     15          1           0       -1.235286   -0.201802    1.524515
     16          1           0       -1.262836   -2.292658   -0.523160
     17          1           0       -0.080779   -0.473628   -1.356307
     18          1           0        1.294128   -0.741549    1.365025
     19          1           0        2.978614   -0.359265   -0.637677
     20          1           0        0.859118    1.722427    0.899886
 ---------------------------------------------------------------------

 SCF Done:  E(RB3LYP) =  -440.436365919     A.U. after    1 cycles

 The electronic state is 1-A.
 Alpha  occ. eigenvalues --  -19.16318 -19.13517 -14.33162 -10.28503 -10.24551
 Alpha  occ. eigenvalues --  -10.22486 -10.22450 -10.19923 -10.18824  -1.07373
 Alpha  occ. eigenvalues --   -1.01942  -0.96459  -0.78196  -0.75274  -0.66288
 Alpha  occ. eigenvalues --   -0.63553  -0.60264  -0.57759  -0.52508  -0.50990
 Alpha  occ. eigenvalues --   -0.48806  -0.47558  -0.44398  -0.43649  -0.41567
 Alpha  occ. eigenvalues --   -0.40129  -0.38769  -0.36889  -0.35630  -0.35292
 Alpha  occ. eigenvalues --   -0.33691  -0.32795  -0.28358  -0.27249  -0.24900
 Alpha virt. eigenvalues --   -0.03984   0.07397   0.08144   0.09682   0.11388
 Alpha virt. eigenvalues --    0.12016   0.12680   0.14526   0.15361   0.16057
 Alpha virt. eigenvalues --    0.16630   0.16912   0.17598   0.21012   0.21970

 Mulliken charges:
               1
     1  C   -0.376582
     2  C   -0.211834
     3  C    0.011407
     4  N   -0.339545
     5  C   -0.047254
     6  C    0.047541
     7  O   -0.436121
     8  C    0.133362
     9  O   -0.260061
    10  H    0.121131
    11  H    0.119867
    12  H    0.120301
    13  H    0.095513
    14  H    0.108606
    15  H    0.088375
    16  H    0.232636
    17  H    0.094774
    18  H    0.104034
    19  H    0.293337
    20  H    0.100514
 Sum of Mulliken charges =  -0.00000

 Dipole moment (field-independent basis, Debye):
    X=             -2.9515    Y=              1.2277    Z=             -0.0153  Tot=              3.1967
 Quadrupole moment (field-independent basis, Debye-Ang):
   XX=            -56.3575   YY=            -60.9672   ZZ=            -51.8370
   XY=             -0.1376   XZ=              2.4779   YZ=              3.2898

  Exact polarizability:  90.658   1.235  75.491  -4.827   1.662  63.153
 Approx polarizability: 119.625   5.899 110.164 -12.464   0.561 100.406

                      1                      2                      3
                      A                      A                      A
 Frequencies --     51.2418                78.0436               107.4811
 Red. masses --      3.6427                 5.5871                 2.5568
 Frc consts  --      0.0056                 0.0200                 0.0174
 IR Inten    --      0.9347                 0.1800                 0.9909

                      4                      5                      6
                      A                      A                      A
 Frequencies --    136.1463               174.2049               238.7345
 Red. masses --      2.9369                 2.0611                 1.3682
 Frc consts  --      0.0321                 0.0369                 0.0459
 IR Inten    --      3.9669                 0.5962                 0.4767

                      7                      8                      9
                      A                      A                      A
 Frequencies --    300.0961               314.0140               362.6904
 Red. masses --      5.2498                 2.3885                 5.3759
 Frc consts  --      0.2786                 0.1388                 0.4167
 IR Inten    --     15.9768                 4.6477                 7.0549

                     10                     11                     12
                      A                      A                      A
 Frequencies --    413.8523               438.6470               458.0861
 Red. masses --      2.5342                 2.1519                 2.0535
 Frc consts  --      0.2557                 0.2439                 0.2539
 IR Inten    --     23.1978                19.9694                30.9500

                     13                     14                     15
                      A                      A                      A
 Frequencies --    498.9789               757.9797               779.6894
 Red. masses --      1.9808                 2.8932                 1.3511
 Frc consts  --      0.2906                 0.9793                 0.4839
 IR Inten    --     19.2030                11.4693                 4.8445

                     16                     17                     18
                      A                      A                      A
 Frequencies --    824.5600               843.2016               884.1005
 Red. masses --      2.8990                 2.1912                 3.8811
 Frc consts  --      1.1613                 0.9179                 1.7873
 IR Inten    --      6.0511                17.7547                60.3665

                     19                     20                     21
                      A                      A                      A
 Frequencies --    936.1743               977.0409              1001.2890
 Red. masses --      3.0588                 1.3800                 1.3626
 Frc consts  --      1.5795                 0.7761                 0.8049
 IR Inten    --     17.9165                 3.4076                 1.8711

                     22                     23                     24
                      A                      A                      A
 Frequencies --   1018.1748              1053.8201              1072.0244
 Red. masses --      1.9043                 2.9295                 1.6112
 Frc consts  --      1.1631                 1.9168                 1.0910
 IR Inten    --     34.3476                 1.7621                 8.2504

                     25                     26                     27
                      A                      A                      A
 Frequencies --   1122.8657              1152.9995              1163.5800
 Red. masses --      1.4478                 1.9664                 2.0217
 Frc consts  --      1.0755                 1.5402                 1.6127
 IR Inten    --      2.5934                32.4136                47.3910

                     28                     29                     30
                      A                      A                      A
 Frequencies --   1202.3356              1235.9350              1250.9857
 Red. masses --      1.5535                 1.5990                 1.3237
 Frc consts  --      1.3232                 1.4391                 1.2205
 IR Inten    --      4.2205                 6.2599                18.2174

                     31                     32                     33
                      A                      A                      A
 Frequencies --   1265.9475              1305.5464              1314.0129
 Red. masses --      1.5607                 1.3167                 1.2476
 Frc consts  --      1.4737                 1.3223                 1.2692
 IR Inten    --      7.8521                 3.2110                 9.7468

                     34                     35                     36
                      A                      A                      A
 Frequencies --   1352.7556              1380.2926              1394.8446
 Red. masses --      1.3652                 1.3201                 1.2116
 Frc consts  --      1.4720                 1.4818                 1.3888
 IR Inten    --     14.7488                 6.7042                46.7622

                     37                     38                     39
                      A                      A                      A
 Frequencies --   1411.8622              1433.1767              1472.4791
 Red. masses --      1.2365                 1.3730                 2.2997
 Frc consts  --      1.4522                 1.6615                 2.9378
 IR Inten    --      1.4312                60.9045                 2.5631

                     40                     41                     42
                      A                      A                      A
 Frequencies --   1487.0359              1499.4197              1507.3337
 Red. masses --      1.0847                 1.0402                 1.0822
 Frc consts  --      1.4132                 1.3779                 1.4487
 IR Inten    --      2.2895                 6.1498                 3.0931

                     43                     44                     45
                      A                      A                      A
 Frequencies --   1812.5589              2932.3781              2951.1229
 Red. masses --     10.2133                 1.0838                 1.0821
 Frc consts  --     19.7698                 5.4907                 5.5527
 IR Inten    --    151.8517                39.8621                47.4392

                     46                     47                     48
                      A                      A                      A
 Frequencies --   3015.9499              3034.3479              3048.6066
 Red. masses --      1.0591                 1.0354                 1.1014
 Frc consts  --      5.6761                 5.6167                 6.0309
 IR Inten    --     24.5034                21.9336                13.3378

                     49                     50                     51
                      A                      A                      A
 Frequencies --   3096.7264              3103.5202              3109.9243
 Red. masses --      1.0921                 1.0984                 1.1012
 Frc consts  --      6.1705                 6.2334                 6.2752
 IR Inten    --      4.8620                47.8279                32.8369

                     52                     53                     54
                      A                      A                      A
 Frequencies --   3120.6405              3493.2444              3688.8126
 Red. masses --      1.0868                 1.0757                 1.0647
 Frc consts  --      6.2359                 7.7341                 8.5360
 IR Inten    --     19.9146                 0.4366                67.9264

 - Thermochemistry -
 -------------------
 Temperature   298.150 Kelvin.  Pressure   1.00000 Atm.
 Atom     1 has atomic number  6 and mass  12.00000

 Molecular mass:   129.07898 amu.
 Principal axes and moments of inertia in atomic units:
                           1         2         3
     Eigenvalues --   708.541681869.568752421.68755
           X            0.99946  -0.03210   0.00640
           Y            0.03203   0.99943   0.01029
           Z           -0.00673  -0.01007   0.99993
 This molecule is an asymmetric top.
 Rotational symmetry number  1.
 Warning -- assumption of classical behavior for rotation
           may cause significant error
 Rotational temperatures (Kelvin)      0.12224     0.04633     0.03577
 Rotational constants (GHZ):           2.54712     0.96532     0.74524
 Zero-point vibrational energy     443105.8 (Joules/Mol)
                                  105.90484 (Kcal/Mol)
 Warning -- explicit consideration of  13 degrees of freedom as
           vibrations may cause significant error
 Vibrational temperatures:     73.73   112.29   154.64   195.88   250.64
          (Kelvin)            343.49   431.77   451.80   521.83   595.44
                              631.12   659.08   717.92  1090.56  1121.80
                             1186.36  1213.18  1272.02  1346.95  1405.74
                             1440.63  1464.93  1516.21  1542.40  1615.55
                             1658.91  1674.13  1729.89  1778.23  1799.89
                             1821.42  1878.39  1890.57  1946.31  1985.93
                             2006.87  2031.35  2062.02  2118.57  2139.51
                             2157.33  2168.72  2607.87  4219.04  4246.01
                             4339.28  4365.75  4386.26  4455.50  4465.27
                             4474.49  4489.91  5026.00  5307.38

 Zero-point correction=                           0.168770 (Hartree/Particle)
 Thermal correction to Energy=                    0.178717
 Thermal correction to Enthalpy=                  0.179661
 Thermal correction to Gibbs Free Energy=         0.133013
 Sum of electronic and zero-point Energies=           -440.267596
 Sum of electronic and thermal Energies=              -440.257649
 Sum of electronic and thermal Enthalpies=            -440.256705
 Sum of electronic and thermal Free Energies=         -440.303353

                     E (Thermal)             CV                S
                      KCal/Mol        Cal/Mol-Kelvin    Cal/Mol-Kelvin
 Total                  112.146             35.664             98.179
 Electronic               0.000              0.000              0.000
 Translational            0.889              2.981             40.479
 Rotational               0.889              2.981             29.552
 Vibrational            110.369             29.703             28.149
 Vibration     1          0.596              1.977              4.769
 Vibration     2          0.599              1.964              3.939
 Vibration     3          0.606              1.943              3.314
 Vibration     4          0.614              1.917              2.857
 Vibration     5          0.627              1.874              2.390
 Vibration     6          0.657              1.781              1.812
 Vibration     7          0.693              1.674              1.416
 Vibration     8          0.702              1.647              1.341
 Vibration     9          0.737              1.549              1.111
 Vibration    10          0.777              1.440              0.913
 Vibration    11          0.799              1.386              0.831
 Vibration    12          0.816              1.343              0.772
 Vibration    13          0.854              1.252              0.661

                           ! Non-Optimized Parameters !
 Normal termination of Gaussian 16 at Thu Aug  4 02:43:41 2022.
