 Gaussian 16, Revision A.03,
 Gaussian 16:  ES64L-G16RevA.03 25-Dec-2016

 -----------------------------
 # opt freq b3lyp/6-31g(2df,p)
 -----------------------------

 -------------------
 Title Card Required
 -------------------
 Symbolic Z-matrix:
 Charge =  0 Multiplicity = 1

 SCF Done:  E(RB3LYP) =  -429.009858551     A.U. after   12 cycles
 SCF Done:  E(RB3LYP) =  -429.015177791     A.U. after   11 cycles
 SCF Done:  E(RB3LYP) =  -429.017039811     A.U. after   10 cycles
 SCF Done:  E(RB3LYP) =  -429.018317399     A.U. after   10 cycles
 SCF Done:  E(RB3LYP) =  -429.018842569     A.U. after   10 cycles
 SCF Done:  E(RB3LYP) =  -429.019040110     A.U. after    9 cycles
 SCF Done:  E(RB3LYP) =  -429.019086305     A.U. after    9 cycles
 SCF Done:  E(RB3LYP) =  -429.019097174     A.U. after    8 cycles
 SCF Done:  E(RB3LYP) =  -429.019097916     A.U. after    7 cycles
 SCF Done:  E(RB3LYP) =  -429.019098030     A.U. after    6 cycles
 Optimization completed.
    -- Stationary point found.
 Normal termination of Gaussian 16 at Tue Aug  2 23:35:40 2022.

 ----------------------------------------------------------------------
 #N Geom=AllCheck Guess=TCheck SCRF=Check GenChk RB3LYP/6-31G(2df,p) Fr
 eq
 ----------------------------------------------------------------------

 Structure from the checkpoint file:  "CCC1pCOCpCCC1C.chk"
 -------------------
 Title Card Required
 -------------------
 Charge =  0 Multiplicity = 1

                         Standard orientation:
 ---------------------------------------------------------------------
 Center     Atomic      Atomic             Coordinates (Angstroms)
 Number     Number       Type             X           Y           Z
 ---------------------------------------------------------------------
      1          6           0        0.471342    2.335255   -0.330646
      2          6           0       -0.481945    1.318047   -0.972229
      3          6           0       -0.382030   -0.154854   -0.526748
      4          6           0        1.026650   -0.722605   -0.660450
      5          8           0        1.839803   -0.245377    0.395502
      6          6           0        3.139210   -0.783264    0.372793
      7          6           0       -1.480730   -1.000797   -1.254456
      8          6           0       -2.352663   -0.944854    0.024802
      9          6           0       -1.096120   -0.522492    0.830309
     10          6           0       -1.253177    0.480249    1.963532
     11          1           0        0.285076    3.330809   -0.748118
     12          1           0        1.516513    2.078974   -0.513645
     13          1           0        0.340160    2.397112    0.751806
     14          1           0       -0.323047    1.332262   -2.059982
     15          1           0       -1.516416    1.655559   -0.827812
     16          1           0        1.468067   -0.452983   -1.637306
     17          1           0        0.986317   -1.825013   -0.619417
     18          1           0        3.681701   -0.371061    1.227296
     19          1           0        3.677550   -0.518153   -0.551279
     20          1           0        3.127012   -1.882124    0.455413
     21          1           0       -1.141212   -2.016189   -1.480659
     22          1           0       -1.900273   -0.567263   -2.166383
     23          1           0       -2.860578   -1.863004    0.330689
     24          1           0       -3.097105   -0.143496   -0.019647
     25          1           0       -0.605810   -1.419883    1.225490
     26          1           0       -1.729597    1.406899    1.626808
     27          1           0       -0.285390    0.733535    2.406408
     28          1           0       -1.884619    0.058928    2.754883
 ---------------------------------------------------------------------

 SCF Done:  E(RB3LYP) =  -429.019098030     A.U. after    1 cycles

 The electronic state is 1-A.
 Alpha  occ. eigenvalues --  -19.13723 -10.22207 -10.21878 -10.18347 -10.17649
 Alpha  occ. eigenvalues --  -10.17316 -10.17296 -10.17088 -10.16318 -10.15911
 Alpha  occ. eigenvalues --   -1.02928  -0.84726  -0.75410  -0.72322  -0.71341
 Alpha  occ. eigenvalues --   -0.65870  -0.61920  -0.60919  -0.58472  -0.51168
 Alpha  occ. eigenvalues --   -0.48290  -0.47877  -0.47127  -0.43920  -0.43022
 Alpha  occ. eigenvalues --   -0.42214  -0.40413  -0.39627  -0.39261  -0.38033
 Alpha  occ. eigenvalues --   -0.36666  -0.35123  -0.34715  -0.33507  -0.31827
 Alpha  occ. eigenvalues --   -0.31061  -0.29372  -0.28199  -0.27618  -0.25064
 Alpha virt. eigenvalues --    0.07664   0.09833   0.10571   0.10888   0.12521
 Alpha virt. eigenvalues --    0.13418   0.14555   0.15544   0.15746   0.16650
 Alpha virt. eigenvalues --    0.16767   0.17387   0.17912   0.18272   0.18882

 Mulliken charges:
               1
     1  C   -0.384488
     2  C   -0.234881
     3  C    0.308735
     4  C   -0.134947
     5  O   -0.232173
     6  C   -0.222865
     7  C   -0.271781
     8  C   -0.238042
     9  C    0.038578
    10  C   -0.418865
    11  H    0.098795
    12  H    0.122020
    13  H    0.120010
    14  H    0.089412
    15  H    0.090833
    16  H    0.079839
    17  H    0.076878
    18  H    0.125468
    19  H    0.102324
    20  H    0.101861
    21  H    0.091919
    22  H    0.091911
    23  H    0.090957
    24  H    0.097277
    25  H    0.067290
    26  H    0.110732
    27  H    0.127662
    28  H    0.105539
 Sum of Mulliken charges =  -0.00000

 Dipole moment (field-independent basis, Debye):
    X=              0.4709    Y=             -0.7412    Z=             -0.5032  Tot=              1.0121
 Quadrupole moment (field-independent basis, Debye-Ang):
   XX=            -61.5539   YY=            -64.3047   ZZ=            -64.7463
   XY=             -1.9375   XZ=             -0.3843   YZ=             -0.4064

  Exact polarizability: 107.923   2.231  97.533   0.507   0.176  95.484
 Approx polarizability: 140.441   0.402 137.366   0.742  -0.221 138.206

                      1                      2                      3
                      A                      A                      A
 Frequencies --     74.8702                79.8367               100.8856
 Red. masses --      2.9080                 2.4177                 2.1213
 Frc consts  --      0.0096                 0.0091                 0.0127
 IR Inten    --      0.1494                 2.0024                 0.9051

                      4                      5                      6
                      A                      A                      A
 Frequencies --    124.4031               166.7618               190.4025
 Red. masses --      1.8385                 2.1773                 1.8171
 Frc consts  --      0.0168                 0.0357                 0.0388
 IR Inten    --      0.7866                 0.7271                 0.1693

                      7                      8                      9
                      A                      A                      A
 Frequencies --    231.1669               245.4848               261.3170
 Red. masses --      1.4745                 1.5697                 1.7119
 Frc consts  --      0.0464                 0.0557                 0.0689
 IR Inten    --      2.9004                 0.2853                 0.3530

                     10                     11                     12
                      A                      A                      A
 Frequencies --    272.8072               296.5075               345.9264
 Red. masses --      1.2502                 2.2129                 2.7699
 Frc consts  --      0.0548                 0.1146                 0.1953
 IR Inten    --      0.0178                 0.5078                 1.2372

                     13                     14                     15
                      A                      A                      A
 Frequencies --    374.7677               395.0657               435.8514
 Red. masses --      2.2224                 2.5439                 3.0150
 Frc consts  --      0.1839                 0.2339                 0.3375
 IR Inten    --      0.3112                 0.3567                 0.5787

                     16                     17                     18
                      A                      A                      A
 Frequencies --    527.6918               653.3426               693.5701
 Red. masses --      2.3467                 2.2780                 2.5634
 Frc consts  --      0.3850                 0.5729                 0.7265
 IR Inten    --      0.6727                 1.9550                 0.3931

                     19                     20                     21
                      A                      A                      A
 Frequencies --    782.7891               796.8263               865.1950
 Red. masses --      1.3340                 1.4156                 1.7601
 Frc consts  --      0.4816                 0.5296                 0.7763
 IR Inten    --      1.5243                 2.7678                 2.1999

                     22                     23                     24
                      A                      A                      A
 Frequencies --    895.1835               926.4730               953.4452
 Red. masses --      2.0506                 1.3126                 2.5672
 Frc consts  --      0.9682                 0.6638                 1.3750
 IR Inten    --      0.1376                 3.0705                 1.4976

                     25                     26                     27
                      A                      A                      A
 Frequencies --    973.4735               999.1686              1015.3414
 Red. masses --      3.6682                 1.9105                 1.4781
 Frc consts  --      2.0481                 1.1237                 0.8978
 IR Inten    --     15.4548                 2.8423                 0.7381

                     28                     29                     30
                      A                      A                      A
 Frequencies --   1026.2048              1047.0537              1072.2953
 Red. masses --      1.5717                 2.5730                 1.4435
 Frc consts  --      0.9752                 1.6620                 0.9779
 IR Inten    --      4.0749                 3.4026                 4.3319

                     31                     32                     33
                      A                      A                      A
 Frequencies --   1115.6159              1141.0124              1153.4007
 Red. masses --      2.5268                 2.2394                 6.2445
 Frc consts  --      1.8529                 1.7177                 4.8945
 IR Inten    --      3.7993                11.0848               154.2050

                     34                     35                     36
                      A                      A                      A
 Frequencies --   1171.6285              1179.8925              1198.6128
 Red. masses --      1.8323                 1.3535                 1.6314
 Frc consts  --      1.4819                 1.1102                 1.3809
 IR Inten    --      2.6526                 0.9803                 1.4378

                     37                     38                     39
                      A                      A                      A
 Frequencies --   1220.2953              1229.8660              1237.3329
 Red. masses --      1.8612                 1.6190                 1.5134
 Frc consts  --      1.6330                 1.4428                 1.3651
 IR Inten    --     11.5533                19.4005                 5.2274

                     40                     41                     42
                      A                      A                      A
 Frequencies --   1265.3332              1271.7958              1281.4434
 Red. masses --      1.2781                 1.3844                 1.3763
 Frc consts  --      1.2057                 1.3193                 1.3316
 IR Inten    --      0.3000                 0.6275                 0.6052

                     43                     44                     45
                      A                      A                      A
 Frequencies --   1328.3986              1337.6831              1368.1472
 Red. masses --      1.5190                 1.3033                 1.4151
 Frc consts  --      1.5793                 1.3741                 1.5606
 IR Inten    --      4.2929                 1.2400                 3.7195

                     46                     47                     48
                      A                      A                      A
 Frequencies --   1388.2284              1404.2915              1417.2774
 Red. masses --      1.4642                 1.3078                 1.2246
 Frc consts  --      1.6625                 1.5195                 1.4493
 IR Inten    --      3.2922                 3.5676                 2.9397

                     49                     50                     51
                      A                      A                      A
 Frequencies --   1421.0203              1475.4232              1480.0946
 Red. masses --      1.3806                 1.0913                 1.1214
 Frc consts  --      1.6426                 1.3997                 1.4474
 IR Inten    --     21.3936                 2.6605                 1.1380

                     52                     53                     54
                      A                      A                      A
 Frequencies --   1483.6582              1484.7783              1492.5307
 Red. masses --      1.0736                 1.0486                 1.0558
 Frc consts  --      1.3924                 1.3621                 1.3858
 IR Inten    --      0.6996                 4.9560                 1.6072

                     55                     56                     57
                      A                      A                      A
 Frequencies --   1497.8868              1499.2428              1503.3644
 Red. masses --      1.0860                 1.0754                 1.0624
 Frc consts  --      1.4356                 1.4242                 1.4148
 IR Inten    --      2.2862                 9.7613                 6.0044

                     58                     59                     60
                      A                      A                      A
 Frequencies --   1505.0850              1507.4248              1524.2482
 Red. masses --      1.0458                 1.0783                 1.0839
 Frc consts  --      1.3958                 1.4436                 1.4837
 IR Inten    --      5.4673                 2.5227                 2.1621

                     61                     62                     63
                      A                      A                      A
 Frequencies --   2932.5941              2962.5121              2966.8819
 Red. masses --      1.0542                 1.1016                 1.0401
 Frc consts  --      5.3416                 5.6964                 5.3943
 IR Inten    --     36.3997                60.6940                84.9389

                     64                     65                     66
                      A                      A                      A
 Frequencies --   3002.2863              3008.4937              3025.4705
 Red. masses --      1.0633                 1.1029                 1.0387
 Frc consts  --      5.6469                 5.8816                 5.6019
 IR Inten    --     29.5537                52.6415                22.9175

                     67                     68                     69
                      A                      A                      A
 Frequencies --   3029.4601              3037.1047              3044.5035
 Red. masses --      1.0811                 1.0954                 1.0435
 Frc consts  --      5.8459                 5.9530                 5.6988
 IR Inten    --     15.5795                19.4398                45.4132

                     70                     71                     72
                      A                      A                      A
 Frequencies --   3045.9041              3050.7666              3086.1413
 Red. masses --      1.0572                 1.0621                 1.0997
 Frc consts  --      5.7787                 5.8242                 6.1711
 IR Inten    --     46.2400                40.6555                31.7036

                     73                     74                     75
                      A                      A                      A
 Frequencies --   3090.0586              3105.2463              3108.9159
 Red. masses --      1.1056                 1.1056                 1.1026
 Frc consts  --      6.2197                 6.2810                 6.2789
 IR Inten    --     18.0666                37.9212                37.4827

                     76                     77                     78
                      A                      A                      A
 Frequencies --   3110.8630              3114.6392              3138.0078
 Red. masses --      1.0957                 1.0936                 1.1010
 Frc consts  --      6.2472                 6.2507                 6.3877
 IR Inten    --     28.1462                37.9142                24.4363

 - Thermochemistry -
 -------------------
 Temperature   298.150 Kelvin.  Pressure   1.00000 Atm.
 Atom     1 has atomic number  6 and mass  12.00000

 Molecular mass:   142.13577 amu.
 Principal axes and moments of inertia in atomic units:
                           1         2         3
     Eigenvalues --  1109.977331886.996422032.98579
           X            0.99990  -0.01062  -0.00955
           Y            0.01086   0.99960   0.02607
           Z            0.00927  -0.02617   0.99961
 This molecule is an asymmetric top.
 Rotational symmetry number  1.
 Warning -- assumption of classical behavior for rotation
           may cause significant error
 Rotational temperatures (Kelvin)      0.07803     0.04590     0.04260
 Rotational constants (GHZ):           1.62593     0.95641     0.88773
 Zero-point vibrational energy     671517.6 (Joules/Mol)
                                  160.49655 (Kcal/Mol)
 Warning -- explicit consideration of  16 degrees of freedom as
           vibrations may cause significant error
 Vibrational temperatures:    107.72   114.87   145.15   178.99   239.93
          (Kelvin)            273.95   332.60   353.20   375.98   392.51
                              426.61   497.71   539.21   568.41   627.09
                              759.23   940.01   997.89  1126.26  1146.46
                             1244.82  1287.97  1332.99  1371.80  1400.61
                             1437.58  1460.85  1476.48  1506.48  1542.79
                             1605.12  1641.66  1659.49  1685.71  1697.60
                             1724.54  1755.73  1769.50  1780.25  1820.53
                             1829.83  1843.71  1911.27  1924.63  1968.46
                             1997.35  2020.46  2039.15  2044.53  2122.80
                             2129.53  2134.65  2136.26  2147.42  2155.13
                             2157.08  2163.01  2165.48  2168.85  2193.05
                             4219.35  4262.39  4268.68  4319.62  4328.55
                             4352.98  4358.72  4369.72  4380.36  4382.38
                             4389.37  4440.27  4445.91  4467.76  4473.04
                             4475.84  4481.27  4514.89

 Zero-point correction=                           0.255768 (Hartree/Particle)
 Thermal correction to Energy=                    0.267760
 Thermal correction to Enthalpy=                  0.268704
 Thermal correction to Gibbs Free Energy=         0.218543
 Sum of electronic and zero-point Energies=           -428.763330
 Sum of electronic and thermal Energies=              -428.751338
 Sum of electronic and thermal Enthalpies=            -428.750394
 Sum of electronic and thermal Free Energies=         -428.800555

                     E (Thermal)             CV                S
                      KCal/Mol        Cal/Mol-Kelvin    Cal/Mol-Kelvin
 Total                  168.022             44.643            105.573
 Electronic               0.000              0.000              0.000
 Translational            0.889              2.981             40.766
 Rotational               0.889              2.981             29.833
 Vibrational            166.245             38.681             34.974
 Vibration     1          0.599              1.966              4.021
 Vibration     2          0.600              1.963              3.895
 Vibration     3          0.604              1.948              3.437
 Vibration     4          0.610              1.929              3.031
 Vibration     5          0.624              1.883              2.472
 Vibration     6          0.634              1.853              2.224
 Vibration     7          0.653              1.793              1.870
 Vibration     8          0.660              1.770              1.763
 Vibration     9          0.669              1.744              1.653
 Vibration    10          0.676              1.723              1.578
 Vibration    11          0.690              1.680              1.437
 Vibration    12          0.724              1.584              1.185
 Vibration    13          0.746              1.524              1.060
 Vibration    14          0.762              1.481              0.981
 Vibration    15          0.796              1.392              0.840
 Vibration    16          0.883              1.189              0.592

                           ! Non-Optimized Parameters !
 Normal termination of Gaussian 16 at Wed Aug  3 00:41:45 2022.
