 Gaussian 16, Revision A.03,
 Gaussian 16:  ES64L-G16RevA.03 25-Dec-2016

 -----------------------------
 # opt freq b3lyp/6-31g(2df,p)
 -----------------------------

 -------------------
 Title Card Required
 -------------------
 Symbolic Z-matrix:
 Charge =  0 Multiplicity = 1

 SCF Done:  E(RB3LYP) =  -342.972042525     A.U. after   14 cycles
 SCF Done:  E(RB3LYP) =  -342.973945241     A.U. after   12 cycles
 SCF Done:  E(RB3LYP) =  -342.974114371     A.U. after   10 cycles
 SCF Done:  E(RB3LYP) =  -342.974124912     A.U. after    9 cycles
 SCF Done:  E(RB3LYP) =  -342.974128683     A.U. after    8 cycles
 SCF Done:  E(RB3LYP) =  -342.974131836     A.U. after    9 cycles
 SCF Done:  E(RB3LYP) =  -342.974133584     A.U. after    9 cycles
 SCF Done:  E(RB3LYP) =  -342.974135562     A.U. after    9 cycles
 SCF Done:  E(RB3LYP) =  -342.974135723     A.U. after    7 cycles
 Optimization completed.
    -- Stationary point found.
 Normal termination of Gaussian 16 at Thu Aug  4 03:14:44 2022.

 ----------------------------------------------------------------------
 #N Geom=AllCheck Guess=TCheck SCRF=Check GenChk RB3LYP/6-31G(2df,p) Fr
 eq
 ----------------------------------------------------------------------

 Structure from the checkpoint file:  "CCc1cnccn1.chk"
 -------------------
 Title Card Required
 -------------------
 Charge =  0 Multiplicity = 1

                         Standard orientation:
 ---------------------------------------------------------------------
 Center     Atomic      Atomic             Coordinates (Angstroms)
 Number     Number       Type             X           Y           Z
 ---------------------------------------------------------------------
      1          6           0        2.719785   -0.248641    0.611963
      2          6           0        1.862069    0.304997   -0.537619
      3          6           0        0.385748    0.141497   -0.279966
      4          6           0       -0.455088    1.233627   -0.036945
      5          7           0       -1.758994    1.104351    0.207485
      6          6           0       -2.233993   -0.141945    0.209113
      7          6           0       -1.409206   -1.237847   -0.031951
      8          7           0       -0.106300   -1.104690   -0.275661
      9          1           0        3.784752   -0.163076    0.377330
     10          1           0        2.486202   -1.302779    0.783303
     11          1           0        2.531857    0.296441    1.542624
     12          1           0        2.111587   -0.228512   -1.461690
     13          1           0        2.089098    1.363632   -0.702827
     14          1           0       -0.056265    2.245686   -0.043422
     15          1           0       -3.295211   -0.270663    0.405216
     16          1           0       -1.810858   -2.248479   -0.030872
 ---------------------------------------------------------------------

 SCF Done:  E(RB3LYP) =  -342.974135723     A.U. after    1 cycles

 The electronic state is 1-A.
 Alpha  occ. eigenvalues --  -14.34160 -14.33939 -10.23100 -10.22679 -10.22427
 Alpha  occ. eigenvalues --  -10.22386 -10.19233 -10.17967  -0.97816  -0.90487
 Alpha  occ. eigenvalues --   -0.80162  -0.74479  -0.66347  -0.65458  -0.60133
 Alpha  occ. eigenvalues --   -0.52010  -0.51238  -0.47586  -0.44545  -0.43246
 Alpha  occ. eigenvalues --   -0.42178  -0.39824  -0.37643  -0.35546  -0.35124
 Alpha  occ. eigenvalues --   -0.32109  -0.30432  -0.26398  -0.24328
 Alpha virt. eigenvalues --   -0.04668  -0.01647   0.10088   0.12362   0.12779
 Alpha virt. eigenvalues --    0.13391   0.15091   0.16543   0.16778   0.17080
 Alpha virt. eigenvalues --    0.18475   0.20144   0.22435   0.24594   0.30459

 Mulliken charges:
               1
     1  C   -0.371303
     2  C   -0.271002
     3  C    0.318037
     4  C   -0.060802
     5  N   -0.232017
     6  C   -0.013443
     7  C   -0.020031
     8  N   -0.287484
     9  H    0.115753
    10  H    0.139246
    11  H    0.118051
    12  H    0.121820
    13  H    0.103958
    14  H    0.109996
    15  H    0.115017
    16  H    0.114205
 Sum of Mulliken charges =  -0.00000

 Dipole moment (field-independent basis, Debye):
    X=              0.5842    Y=             -0.1565    Z=             -0.0600  Tot=              0.6078
 Quadrupole moment (field-independent basis, Debye-Ang):
   XX=            -44.4065   YY=            -48.2658   ZZ=            -47.8017
   XY=              5.8708   XZ=             -0.3358   YZ=             -1.1056

  Exact polarizability:  98.280   5.705  75.895  -5.472   0.733  45.920
 Approx polarizability: 145.081   7.187 134.310 -12.958   3.608  71.383

                      1                      2                      3
                      A                      A                      A
 Frequencies --     44.8380               138.0237               220.0968
 Red. masses --      2.7217                 3.1703                 1.1465
 Frc consts  --      0.0032                 0.0356                 0.0327
 IR Inten    --      0.0579                 0.3252                 0.1774

                      4                      5                      6
                      A                      A                      A
 Frequencies --    285.0476               363.4934               422.8009
 Red. masses --      2.6556                 2.2979                 4.5360
 Frc consts  --      0.1271                 0.1789                 0.4777
 IR Inten    --      0.6111                 0.7919                15.6949

                      7                      8                      9
                      A                      A                      A
 Frequencies --    516.1016               596.6178               646.2403
 Red. masses --      4.2865                 4.2834                 6.5370
 Frc consts  --      0.6727                 0.8983                 1.6085
 IR Inten    --      1.0518                 0.2285                 0.4292

                     10                     11                     12
                      A                      A                      A
 Frequencies --    783.9119               801.0350               822.2547
 Red. masses --      1.5276                 1.7881                 4.3309
 Frc consts  --      0.5531                 0.6760                 1.7252
 IR Inten    --      1.3677                 1.5826                 0.6041

                     13                     14                     15
                      A                      A                      A
 Frequencies --    872.9080               969.8124               981.9240
 Red. masses --      1.4262                 1.3526                 2.4370
 Frc consts  --      0.6403                 0.7495                 1.3844
 IR Inten    --      9.9720                 0.2603                 2.0348

                     16                     17                     18
                      A                      A                      A
 Frequencies --    994.0214              1030.0803              1068.8317
 Red. masses --      1.4647                 4.6499                 1.8501
 Frc consts  --      0.8527                 2.9069                 1.2453
 IR Inten    --      0.0104                26.2743                 6.0470

                     19                     20                     21
                      A                      A                      A
 Frequencies --   1084.2178              1088.0608              1205.5001
 Red. masses --      1.9492                 2.0661                 1.7661
 Frc consts  --      1.3500                 1.4411                 1.5122
 IR Inten    --      3.9588                12.5083                10.1118

                     22                     23                     24
                      A                      A                      A
 Frequencies --   1231.6499              1256.6247              1281.7588
 Red. masses --      5.8560                 2.0602                 1.3791
 Frc consts  --      5.2339                 1.9168                 1.3349
 IR Inten    --      8.7095                11.6001                 0.7629

                     25                     26                     27
                      A                      A                      A
 Frequencies --   1337.4964              1362.1034              1403.7695
 Red. masses --      1.3966                 1.4350                 1.2153
 Frc consts  --      1.4719                 1.5686                 1.4109
 IR Inten    --      6.8816                 0.4184                 2.3759

                     28                     29                     30
                      A                      A                      A
 Frequencies --   1436.6509              1479.8910              1496.5459
 Red. masses --      2.0076                 1.0903                 1.0417
 Frc consts  --      2.4414                 1.4069                 1.3746
 IR Inten    --     35.0775                 2.0953                 6.8341

                     31                     32                     33
                      A                      A                      A
 Frequencies --   1505.2436              1511.7992              1579.7070
 Red. masses --      1.5028                 1.3892                 8.5687
 Frc consts  --      2.0062                 1.8708                12.5986
 IR Inten    --      3.5833                13.6637                 5.3349

                     34                     35                     36
                      A                      A                      A
 Frequencies --   1615.9619              3038.4604              3040.3744
 Red. masses --      5.2107                 1.0526                 1.0413
 Frc consts  --      8.0169                 5.7254                 5.6711
 IR Inten    --      5.0730                14.9357                31.1207

                     37                     38                     39
                      A                      A                      A
 Frequencies --   3078.8061              3110.3399              3124.8182
 Red. masses --      1.1023                 1.1022                 1.1023
 Frc consts  --      6.1563                 6.2827                 6.3414
 IR Inten    --      7.1151                32.8591                20.4683

                     40                     41                     42
                      A                      A                      A
 Frequencies --   3149.9764              3151.1187              3171.3686
 Red. masses --      1.0881                 1.0883                 1.0966
 Frc consts  --      6.3613                 6.3672                 6.4984
 IR Inten    --     17.8193                17.7426                32.3420

 - Thermochemistry -
 -------------------
 Temperature   298.150 Kelvin.  Pressure   1.00000 Atm.
 Atom     1 has atomic number  6 and mass  12.00000

 Molecular mass:   108.06875 amu.
 Principal axes and moments of inertia in atomic units:
                           1         2         3
     Eigenvalues --   372.012781173.812351423.96671
           X            0.99982   0.01816   0.00483
           Y           -0.01807   0.99965  -0.01941
           Z           -0.00518   0.01931   0.99980
 This molecule is an asymmetric top.
 Rotational symmetry number  1.
 Rotational temperatures (Kelvin)      0.23283     0.07379     0.06083
 Rotational constants (GHZ):           4.85129     1.53750     1.26740
 Zero-point vibrational energy     348713.1 (Joules/Mol)
                                   83.34444 (Kcal/Mol)
 Warning -- explicit consideration of   8 degrees of freedom as
           vibrations may cause significant error
 Vibrational temperatures:     64.51   198.59   316.67   410.12   522.99
          (Kelvin)            608.32   742.56   858.40   929.80  1127.87
                             1152.51  1183.04  1255.92  1395.34  1412.77
                             1430.18  1482.06  1537.81  1559.95  1565.48
                             1734.45  1772.07  1808.00  1844.17  1924.36
                             1959.76  2019.71  2067.02  2129.23  2153.20
                             2165.71  2175.14  2272.85  2325.01  4371.67
                             4374.42  4429.72  4475.09  4495.92  4532.11
                             4533.76  4562.89

 Zero-point correction=                           0.132818 (Hartree/Particle)
 Thermal correction to Energy=                    0.139915
 Thermal correction to Enthalpy=                  0.140859
 Thermal correction to Gibbs Free Energy=         0.100816
 Sum of electronic and zero-point Energies=           -342.841318
 Sum of electronic and thermal Energies=              -342.834221
 Sum of electronic and thermal Enthalpies=            -342.833277
 Sum of electronic and thermal Free Energies=         -342.873319

                     E (Thermal)             CV                S
                      KCal/Mol        Cal/Mol-Kelvin    Cal/Mol-Kelvin
 Total                   87.798             26.007             84.277
 Electronic               0.000              0.000              0.000
 Translational            0.889              2.981             39.949
 Rotational               0.889              2.981             27.921
 Vibrational             86.021             20.045             16.406
 Vibration     1          0.595              1.979              5.033
 Vibration     2          0.614              1.915              2.831
 Vibration     3          0.647              1.810              1.958
 Vibration     4          0.683              1.701              1.503
 Vibration     5          0.737              1.547              1.107
 Vibration     6          0.785              1.421              0.883
 Vibration     7          0.871              1.214              0.619
 Vibration     8          0.954              1.039              0.456

 Optimization completed.
    -- Stationary point found.
 Normal termination of Gaussian 16 at Thu Aug  4 03:33:02 2022.
