 Gaussian 16, Revision A.03,
 Gaussian 16:  ES64L-G16RevA.03 25-Dec-2016

 -----------------------------
 # opt freq b3lyp/6-31g(2df,p)
 -----------------------------

 -------------------
 Title Card Required
 -------------------
 Symbolic Z-matrix:
 Charge =  0 Multiplicity = 1

 SCF Done:  E(RB3LYP) =  -374.992020390     A.U. after   14 cycles
 SCF Done:  E(RB3LYP) =  -374.993988170     A.U. after   13 cycles
 SCF Done:  E(RB3LYP) =  -374.994152827     A.U. after   12 cycles
 SCF Done:  E(RB3LYP) =  -374.994220895     A.U. after   11 cycles
 SCF Done:  E(RB3LYP) =  -374.994250663     A.U. after   10 cycles
 SCF Done:  E(RB3LYP) =  -374.994295131     A.U. after   12 cycles
 SCF Done:  E(RB3LYP) =  -374.994309834     A.U. after   10 cycles
 SCF Done:  E(RB3LYP) =  -374.994348371     A.U. after   12 cycles
 SCF Done:  E(RB3LYP) =  -374.994376257     A.U. after   13 cycles
 SCF Done:  E(RB3LYP) =  -374.994386804     A.U. after   11 cycles
 SCF Done:  E(RB3LYP) =  -374.994408510     A.U. after   12 cycles
 SCF Done:  E(RB3LYP) =  -374.994419017     A.U. after   10 cycles
 SCF Done:  E(RB3LYP) =  -374.994421419     A.U. after   10 cycles
 SCF Done:  E(RB3LYP) =  -374.994421759     A.U. after    8 cycles
 SCF Done:  E(RB3LYP) =  -374.994421811     A.U. after    7 cycles
 Optimization completed.
    -- Stationary point found.
 Normal termination of Gaussian 16 at Thu Aug  4 16:24:32 2022.

 ----------------------------------------------------------------------
 #N Geom=AllCheck Guess=TCheck SCRF=Check GenChk RB3LYP/6-31G(2df,p) Fr
 eq
 ----------------------------------------------------------------------

 Structure from the checkpoint file:  "CCc1ncnnn1.chk"
 -------------------
 Title Card Required
 -------------------
 Charge =  0 Multiplicity = 1

                         Standard orientation:
 ---------------------------------------------------------------------
 Center     Atomic      Atomic             Coordinates (Angstroms)
 Number     Number       Type             X           Y           Z
 ---------------------------------------------------------------------
      1          6           0       -2.654767    0.097560    0.665295
      2          6           0       -1.818290   -0.112213   -0.611569
      3          6           0       -0.350965   -0.035946   -0.315922
      4          7           0        0.226898    1.164701   -0.224951
      5          6           0        1.519557    1.107682    0.063011
      6          7           0        2.229510   -0.007816    0.258930
      7          7           0        1.590116   -1.161492    0.161525
      8          7           0        0.304218   -1.196529   -0.125782
      9          1           0       -3.720899    0.055579    0.427996
     10          1           0       -2.440202    1.071961    1.113342
     11          1           0       -2.437978   -0.678535    1.405057
     12          1           0       -2.062141    0.664159   -1.342695
     13          1           0       -2.033700   -1.091038   -1.046421
     14          1           0        2.066509    2.043331    0.149773
 ---------------------------------------------------------------------

 SCF Done:  E(RB3LYP) =  -374.994421811     A.U. after    1 cycles

 The electronic state is 1-A.
 Alpha  occ. eigenvalues --  -14.42590 -14.38420 -14.38397 -14.37183 -10.29047
 Alpha  occ. eigenvalues --  -10.28641 -10.20884 -10.19688  -1.09625  -0.96463
 Alpha  occ. eigenvalues --   -0.92930  -0.79973  -0.73845  -0.70711  -0.63381
 Alpha  occ. eigenvalues --   -0.59031  -0.52558  -0.48796  -0.45984  -0.44871
 Alpha  occ. eigenvalues --   -0.42000  -0.40270  -0.37758  -0.37072  -0.36148
 Alpha  occ. eigenvalues --   -0.34711  -0.33185  -0.28613  -0.25198
 Alpha virt. eigenvalues --   -0.09008  -0.06347   0.08144   0.10283   0.12137
 Alpha virt. eigenvalues --    0.13824   0.14061   0.15732   0.16387   0.18189
 Alpha virt. eigenvalues --    0.20848   0.21937   0.25049   0.26845   0.31119

 Mulliken charges:
               1
     1  C   -0.385139
     2  C   -0.258457
     3  C    0.402043
     4  N   -0.251489
     5  C    0.110900
     6  N   -0.171387
     7  N   -0.050925
     8  N   -0.210830
     9  H    0.129137
    10  H    0.137263
    11  H    0.137844
    12  H    0.128862
    13  H    0.133739
    14  H    0.148438
 Sum of Mulliken charges =  -0.00000

 Dipole moment (field-independent basis, Debye):
    X=             -2.3158    Y=              2.1073    Z=             -0.3678  Tot=              3.1526
 Quadrupole moment (field-independent basis, Debye-Ang):
   XX=            -47.0874   YY=            -49.8578   ZZ=            -44.7929
   XY=              5.3118   XZ=             -0.6613   YZ=              0.8213

  Exact polarizability:  84.954   3.165  64.517   4.259  -0.029  44.173
 Approx polarizability: 129.868   3.276 118.675  11.837  -1.239  69.316

                      1                      2                      3
                      A                      A                      A
 Frequencies --     22.5743               111.8322               223.2955
 Red. masses --      2.9163                 5.3812                 1.1071
 Frc consts  --      0.0009                 0.0397                 0.0325
 IR Inten    --      0.6337                 0.0751                 0.1569

                      4                      5                      6
                      A                      A                      A
 Frequencies --    252.8257               304.4240               373.5551
 Red. masses --      3.9400                 5.3041                 2.2684
 Frc consts  --      0.1484                 0.2896                 0.1865
 IR Inten    --      0.5872                 9.6665                 2.1648

                      7                      8                      9
                      A                      A                      A
 Frequencies --    535.0850               618.8515               705.7884
 Red. masses --      4.8573                 3.9957                 9.8389
 Frc consts  --      0.8194                 0.9016                 2.8876
 IR Inten    --      2.8169                 1.7154                 5.1808

                     10                     11                     12
                      A                      A                      A
 Frequencies --    798.9588               838.7945               868.7543
 Red. masses --      1.1820                 5.3343                 4.9097
 Frc consts  --      0.4445                 2.2113                 2.1832
 IR Inten    --      0.9734                 9.6440                 9.3524

                     13                     14                     15
                      A                      A                      A
 Frequencies --    952.2075               982.2801              1003.0516
 Red. masses --      8.2626                 2.8582                 1.5102
 Frc consts  --      4.4140                 1.6249                 0.8952
 IR Inten    --     29.7897                 0.9573                 0.5096

                     16                     17                     18
                      A                      A                      A
 Frequencies --   1033.7423              1082.2599              1083.3788
 Red. masses --      9.3570                 1.8726                 1.6230
 Frc consts  --      5.8913                 1.2923                 1.1224
 IR Inten    --      1.3788                18.0327                 3.9210

                     19                     20                     21
                      A                      A                      A
 Frequencies --   1161.0075              1253.7021              1300.3466
 Red. masses --      4.9435                 2.0382                 1.7326
 Frc consts  --      3.9260                 1.8875                 1.7261
 IR Inten    --      8.8329                 3.4102                 7.2200

                     22                     23                     24
                      A                      A                      A
 Frequencies --   1318.6204              1358.4429              1400.4550
 Red. masses --      2.1106                 1.7112                 1.2826
 Frc consts  --      2.1622                 1.8605                 1.4821
 IR Inten    --      8.1603                 0.7818                21.5359

                     25                     26                     27
                      A                      A                      A
 Frequencies --   1428.5794              1476.1998              1496.9581
 Red. masses --      2.0502                 1.1290                 1.0403
 Frc consts  --      2.4652                 1.4495                 1.3735
 IR Inten    --     38.1180                 2.7194                 8.6483

                     28                     29                     30
                      A                      A                      A
 Frequencies --   1506.6328              1535.4442              1569.2233
 Red. masses --      1.1504                 6.3437                 4.8568
 Frc consts  --      1.5385                 8.8118                 7.0465
 IR Inten    --      3.9306               164.8868                67.6768

                     31                     32                     33
                      A                      A                      A
 Frequencies --   3044.7427              3062.6080              3109.4433
 Red. masses --      1.0341                 1.0589                 1.1026
 Frc consts  --      5.6481                 5.8520                 6.2809
 IR Inten    --     17.4293                 9.6554                 1.1499

                     34                     35                     36
                      A                      A                      A
 Frequencies --   3123.9014              3130.9992              3172.3803
 Red. masses --      1.1023                 1.1046                 1.0922
 Frc consts  --      6.3381                 6.3802                 6.4762
 IR Inten    --     20.4642                18.5779                15.1451

 - Thermochemistry -
 -------------------
 Temperature   298.150 Kelvin.  Pressure   1.00000 Atm.
 Atom     1 has atomic number  6 and mass  12.00000

 Molecular mass:   110.05925 amu.
 Principal axes and moments of inertia in atomic units:
                           1         2         3
     Eigenvalues --   356.869931135.049061351.88228
           X            0.99981   0.01705  -0.00908
           Y           -0.01693   0.99977   0.01306
           Z            0.00930  -0.01291   0.99987
 This molecule is an asymmetric top.
 Rotational symmetry number  1.
 Rotational temperatures (Kelvin)      0.24270     0.07631     0.06407
 Rotational constants (GHZ):           5.05714     1.59001     1.33498
 Zero-point vibrational energy     282566.0 (Joules/Mol)
                                   67.53489 (Kcal/Mol)
 Warning -- explicit consideration of   8 degrees of freedom as
           vibrations may cause significant error
 Vibrational temperatures:     32.48   160.90   321.27   363.76   438.00
          (Kelvin)            537.46   769.87   890.39  1015.47  1149.52
                             1206.84  1249.94  1370.01  1413.28  1443.17
                             1487.32  1557.13  1558.74  1670.43  1803.80
                             1870.91  1897.20  1954.50  2014.94  2055.41
                             2123.92  2153.79  2167.71  2209.16  2257.76
                             4380.71  4406.41  4473.80  4494.60  4504.81
                             4564.35

 Zero-point correction=                           0.107624 (Hartree/Particle)
 Thermal correction to Energy=                    0.114794
 Thermal correction to Enthalpy=                  0.115738
 Thermal correction to Gibbs Free Energy=         0.074813
 Sum of electronic and zero-point Energies=           -374.886798
 Sum of electronic and thermal Energies=              -374.879628
 Sum of electronic and thermal Enthalpies=            -374.878684
 Sum of electronic and thermal Free Energies=         -374.919609

                     E (Thermal)             CV                S
                      KCal/Mol        Cal/Mol-Kelvin    Cal/Mol-Kelvin
 Total                   72.034             24.916             86.134
 Electronic               0.000              0.000              0.000
 Translational            0.889              2.981             40.004
 Rotational               0.889              2.981             27.795
 Vibrational             70.257             18.954             18.335
 Vibration     1          0.593              1.985              6.394
 Vibration     2          0.607              1.940              3.237
 Vibration     3          0.649              1.806              1.932
 Vibration     4          0.664              1.758              1.711
 Vibration     5          0.695              1.665              1.392
 Vibration     6          0.745              1.526              1.065
 Vibration     7          0.890              1.172              0.576
 Vibration     8          0.979              0.992              0.418

 Optimization completed.
    -- Stationary point found.
 Normal termination of Gaussian 16 at Thu Aug  4 16:42:22 2022.
