 Gaussian 16, Revision A.03,
 Gaussian 16:  ES64L-G16RevA.03 25-Dec-2016

 -----------------------------
 # opt freq b3lyp/6-31g(2df,p)
 -----------------------------

 -------------------
 Title Card Required
 -------------------
 Symbolic Z-matrix:
 Charge =  0 Multiplicity = 1

 SCF Done:  E(RB3LYP) =  -350.417991210     A.U. after   12 cycles
 SCF Done:  E(RB3LYP) =  -350.422255723     A.U. after   10 cycles
 SCF Done:  E(RB3LYP) =  -350.423324967     A.U. after   10 cycles
 SCF Done:  E(RB3LYP) =  -350.423507635     A.U. after    9 cycles
 SCF Done:  E(RB3LYP) =  -350.423552096     A.U. after    9 cycles
 SCF Done:  E(RB3LYP) =  -350.423569626     A.U. after    9 cycles
 SCF Done:  E(RB3LYP) =  -350.423571039     A.U. after    8 cycles
 SCF Done:  E(RB3LYP) =  -350.423585714     A.U. after    8 cycles
 SCF Done:  E(RB3LYP) =  -350.423632476     A.U. after   10 cycles
 SCF Done:  E(RB3LYP) =  -350.423649713     A.U. after    9 cycles
 SCF Done:  E(RB3LYP) =  -350.424207928     A.U. after   10 cycles
 SCF Done:  E(RB3LYP) =  -350.424307725     A.U. after   10 cycles
 SCF Done:  E(RB3LYP) =  -350.424302894     A.U. after    8 cycles
 SCF Done:  E(RB3LYP) =  -350.424309498     A.U. after   10 cycles
 SCF Done:  E(RB3LYP) =  -350.424305179     A.U. after   10 cycles
 SCF Done:  E(RB3LYP) =  -350.424312211     A.U. after    9 cycles
 SCF Done:  E(RB3LYP) =  -350.424312374     A.U. after    6 cycles
 SCF Done:  E(RB3LYP) =  -350.424312691     A.U. after    7 cycles
 SCF Done:  E(RB3LYP) =  -350.424312723     A.U. after    6 cycles
 Optimization completed.
    -- Stationary point found.
 Normal termination of Gaussian 16 at Thu Aug  4 04:47:11 2022.

 ----------------------------------------------------------------------
 #N Geom=AllCheck Guess=TCheck SCRF=Check GenChk RB3LYP/6-31G(2df,p) Fr
 eq
 ----------------------------------------------------------------------

 Structure from the checkpoint file:  "CCC1CCCpOpC1.chk"
 -------------------
 Title Card Required
 -------------------
 Charge =  0 Multiplicity = 1

                         Standard orientation:
 ---------------------------------------------------------------------
 Center     Atomic      Atomic             Coordinates (Angstroms)
 Number     Number       Type             X           Y           Z
 ---------------------------------------------------------------------
      1          6           0        2.861601   -0.123247    0.572965
      2          6           0        2.024207   -0.360549   -0.689787
      3          6           0        0.514029   -0.100458   -0.564856
      4          6           0        0.094208    1.350965   -0.245942
      5          6           0       -1.374639    1.251045    0.240232
      6          6           0       -1.637016   -0.252924    0.550960
      7          8           0       -2.541264   -0.852835   -0.373694
      8          6           0       -0.240449   -0.901773    0.512031
      9          1           0        3.918426   -0.322580    0.369809
     10          1           0        2.558398   -0.780214    1.394059
     11          1           0        2.788416    0.909330    0.928398
     12          1           0        2.169997   -1.397424   -1.019189
     13          1           0        2.416880    0.267494   -1.500286
     14          1           0        0.076161   -0.365015   -1.540795
     15          1           0        0.213859    2.018851   -1.104340
     16          1           0        0.726159    1.749945    0.554969
     17          1           0       -2.088178    1.574360   -0.523793
     18          1           0       -1.552251    1.879026    1.117900
     19          1           0       -2.122234   -0.389896    1.520698
     20          1           0       -2.172411   -0.754789   -1.257826
     21          1           0       -0.304363   -1.975093    0.311779
     22          1           0        0.249599   -0.769674    1.484554
 ---------------------------------------------------------------------

 SCF Done:  E(RB3LYP) =  -350.424312723     A.U. after    1 cycles

 The electronic state is 1-A.
 Alpha  occ. eigenvalues --  -19.12604 -10.22273 -10.18521 -10.18046 -10.17639
 Alpha  occ. eigenvalues --  -10.17387 -10.17328 -10.17113  -1.00804  -0.83051
 Alpha  occ. eigenvalues --   -0.76075  -0.70403  -0.68912  -0.62079  -0.57586
 Alpha  occ. eigenvalues --   -0.54464  -0.48710  -0.47938  -0.44675  -0.43656
 Alpha  occ. eigenvalues --   -0.42367  -0.40980  -0.38156  -0.37117  -0.36079
 Alpha  occ. eigenvalues --   -0.34729  -0.33607  -0.32278  -0.31865  -0.30944
 Alpha  occ. eigenvalues --   -0.30011  -0.25423
 Alpha virt. eigenvalues --    0.06699   0.08899   0.09885   0.11710   0.12740
 Alpha virt. eigenvalues --    0.14440   0.15530   0.16370   0.17045   0.18019
 Alpha virt. eigenvalues --    0.18791   0.19403   0.20039   0.20488   0.21412

 Mulliken charges:
               1
     1  C   -0.379251
     2  C   -0.208429
     3  C    0.043101
     4  C   -0.213571
     5  C   -0.243234
     6  C    0.145813
     7  O   -0.441955
     8  C   -0.232687
     9  H    0.113385
    10  H    0.119440
    11  H    0.117912
    12  H    0.094017
    13  H    0.092637
    14  H    0.052473
    15  H    0.092728
    16  H    0.099587
    17  H    0.102127
    18  H    0.100733
    19  H    0.078836
    20  H    0.275002
    21  H    0.097313
    22  H    0.094024
 Sum of Mulliken charges =   0.00000

 Dipole moment (field-independent basis, Debye):
    X=              1.4773    Y=              0.6709    Z=             -0.4188  Tot=              1.6757
 Quadrupole moment (field-independent basis, Debye-Ang):
   XX=            -57.5241   YY=            -52.0980   ZZ=            -48.1541
   XY=             -2.5719   XZ=              0.5137   YZ=              0.4543

  Exact polarizability:  86.983  -1.104  73.398  -0.523   0.128  71.661
 Approx polarizability: 109.368   1.166 105.447   0.622   0.981 109.415

                      1                      2                      3
                      A                      A                      A
 Frequencies --     50.2118                75.0696               119.6998
 Red. masses --      2.1834                 1.8299                 3.1188
 Frc consts  --      0.0032                 0.0061                 0.0263
 IR Inten    --      0.8132                 0.0226                 0.6286

                      4                      5                      6
                      A                      A                      A
 Frequencies --    209.6902               254.7619               269.1207
 Red. masses --      1.4034                 1.8677                 1.2563
 Frc consts  --      0.0364                 0.0714                 0.0536
 IR Inten    --      0.1360                16.8870                69.1885

                      7                      8                      9
                      A                      A                      A
 Frequencies --    306.6494               404.3841               432.1874
 Red. masses --      1.8170                 2.1652                 2.8482
 Frc consts  --      0.1007                 0.2086                 0.3135
 IR Inten    --      0.8941                 0.8496                10.6263

                     10                     11                     12
                      A                      A                      A
 Frequencies --    488.3457               569.1551               693.0676
 Red. masses --      2.3055                 2.9306                 2.5004
 Frc consts  --      0.3239                 0.5593                 0.7076
 IR Inten    --      1.6945                 1.2209                 6.1059

                     13                     14                     15
                      A                      A                      A
 Frequencies --    766.3391               803.4919               823.0441
 Red. masses --      1.2975                 1.7746                 2.4830
 Frc consts  --      0.4490                 0.6750                 0.9910
 IR Inten    --      1.7902                 0.4367                 8.6941

                     16                     17                     18
                      A                      A                      A
 Frequencies --    851.2358               905.5515               931.4860
 Red. masses --      3.1920                 1.9489                 2.0652
 Frc consts  --      1.3627                 0.9416                 1.0558
 IR Inten    --      4.1815                 2.5010                 1.8425

                     19                     20                     21
                      A                      A                      A
 Frequencies --    938.5431               968.9537              1010.5295
 Red. masses --      1.6548                 1.9807                 1.9830
 Frc consts  --      0.8588                 1.0957                 1.1931
 IR Inten    --      4.6385                 1.2562                11.1032

                     22                     23                     24
                      A                      A                      A
 Frequencies --   1026.0881              1048.5423              1092.7527
 Red. masses --      1.7783                 1.6005                 1.9080
 Frc consts  --      1.1031                 1.0367                 1.3424
 IR Inten    --     28.8554                 7.3844                 2.7275

                     25                     26                     27
                      A                      A                      A
 Frequencies --   1109.3355              1145.2885              1172.6622
 Red. masses --      1.8488                 1.5469                 1.6825
 Frc consts  --      1.3405                 1.1955                 1.3632
 IR Inten    --      1.0737                41.0896                45.7586

                     28                     29                     30
                      A                      A                      A
 Frequencies --   1213.9081              1223.7923              1257.1705
 Red. masses --      1.3637                 1.5587                 1.4254
 Frc consts  --      1.1840                 1.3754                 1.3274
 IR Inten    --      2.6313                 4.8945                 4.1932

                     31                     32                     33
                      A                      A                      A
 Frequencies --   1285.3030              1308.0488              1315.1703
 Red. masses --      1.2885                 1.2277                 1.3761
 Frc consts  --      1.2541                 1.2376                 1.4024
 IR Inten    --      2.7046                 0.3963                 0.7577

                     34                     35                     36
                      A                      A                      A
 Frequencies --   1324.8548              1328.2251              1363.7103
 Red. masses --      1.3755                 1.3699                 1.5726
 Frc consts  --      1.4225                 1.4239                 1.7231
 IR Inten    --      2.1228                 1.0285                 2.1359

                     37                     38                     39
                      A                      A                      A
 Frequencies --   1369.1572              1400.1437              1418.5462
 Red. masses --      1.3892                 1.3056                 1.3027
 Frc consts  --      1.5344                 1.5080                 1.5444
 IR Inten    --      1.6545                 2.5549                 7.4006

                     40                     41                     42
                      A                      A                      A
 Frequencies --   1437.2428              1478.8665              1483.5431
 Red. masses --      1.2043                 1.0994                 1.0743
 Frc consts  --      1.4657                 1.4167                 1.3931
 IR Inten    --     60.6536                 3.8666                 0.9667

                     43                     44                     45
                      A                      A                      A
 Frequencies --   1485.6979              1501.4967              1504.7798
 Red. masses --      1.0691                 1.0600                 1.0674
 Frc consts  --      1.3904                 1.4079                 1.4241
 IR Inten    --      0.9945                 1.8006                 5.2805

                     46                     47                     48
                      A                      A                      A
 Frequencies --   1509.6450              2963.3546              3015.8397
 Red. masses --      1.0759                 1.0811                 1.0610
 Frc consts  --      1.4446                 5.5935                 5.6855
 IR Inten    --      3.8426                32.8964                43.7265

                     49                     50                     51
                      A                      A                      A
 Frequencies --   3032.5028              3037.5405              3043.7514
 Red. masses --      1.0609                 1.0445                 1.0558
 Frc consts  --      5.7483                 5.6780                 5.7630
 IR Inten    --     11.5057                12.3312                43.2313

                     52                     53                     54
                      A                      A                      A
 Frequencies --   3044.2510              3054.1512              3073.7443
 Red. masses --      1.0996                 1.0628                 1.0947
 Frc consts  --      6.0043                 5.8408                 6.0937
 IR Inten    --     21.9947                23.7932                35.5557

                     55                     56                     57
                      A                      A                      A
 Frequencies --   3081.7648              3093.8606              3100.2222
 Red. masses --      1.0949                 1.1000                 1.1031
 Frc consts  --      6.1268                 6.2036                 6.2466
 IR Inten    --     18.0734                23.9200                39.6911

                     58                     59                     60
                      A                      A                      A
 Frequencies --   3103.7874              3107.7996              3806.9474
 Red. masses --      1.1011                 1.1015                 1.0658
 Frc consts  --      6.2498                 6.2680                 9.1009
 IR Inten    --     56.9236                32.9149                 7.2798

 - Thermochemistry -
 -------------------
 Temperature   298.150 Kelvin.  Pressure   1.00000 Atm.
 Atom     1 has atomic number  6 and mass  12.00000

 Molecular mass:   114.10447 amu.
 Principal axes and moments of inertia in atomic units:
                           1         2         3
     Eigenvalues --   459.747001458.806891619.27553
           X            0.99986  -0.01650   0.00312
           Y            0.01651   0.99986  -0.00362
           Z           -0.00306   0.00367   0.99999
 This molecule is an asymmetric top.
 Rotational symmetry number  1.
 Warning -- assumption of classical behavior for rotation
           may cause significant error
 Rotational temperatures (Kelvin)      0.18839     0.05937     0.05349
 Rotational constants (GHZ):           3.92551     1.23714     1.11454
 Zero-point vibrational energy     527762.5 (Joules/Mol)
                                  126.13827 (Kcal/Mol)
 Warning -- explicit consideration of  11 degrees of freedom as
           vibrations may cause significant error
 Vibrational temperatures:     72.24   108.01   172.22   301.70   366.55
          (Kelvin)            387.20   441.20   581.82   621.82   702.62
                              818.89   997.17  1102.59  1156.05  1184.18
                             1224.74  1302.89  1340.20  1350.35  1394.11
                             1453.93  1476.31  1508.62  1572.23  1596.09
                             1647.81  1687.20  1746.54  1760.76  1808.79
                             1849.26  1881.99  1892.24  1906.17  1911.02
                             1962.07  1969.91  2014.49  2040.97  2067.87
                             2127.76  2134.49  2137.59  2160.32  2165.04
                             2172.04  4263.61  4339.12  4363.10  4370.34
                             4379.28  4380.00  4394.24  4422.43  4433.97
                             4451.38  4460.53  4465.66  4471.43  5477.35

 Zero-point correction=                           0.201014 (Hartree/Particle)
 Thermal correction to Energy=                    0.210016
 Thermal correction to Enthalpy=                  0.210961
 Thermal correction to Gibbs Free Energy=         0.166911
 Sum of electronic and zero-point Energies=           -350.223299
 Sum of electronic and thermal Energies=              -350.214296
 Sum of electronic and thermal Enthalpies=            -350.213352
 Sum of electronic and thermal Free Energies=         -350.257402

                     E (Thermal)             CV                S
                      KCal/Mol        Cal/Mol-Kelvin    Cal/Mol-Kelvin
 Total                  131.787             33.568             92.711
 Electronic               0.000              0.000              0.000
 Translational            0.889              2.981             40.111
 Rotational               0.889              2.981             28.476
 Vibrational            130.010             27.606             24.124
 Vibration     1          0.595              1.978              4.809
 Vibration     2          0.599              1.966              4.016
 Vibration     3          0.609              1.933              3.105
 Vibration     4          0.642              1.826              2.046
 Vibration     5          0.665              1.755              1.697
 Vibration     6          0.674              1.730              1.602
 Vibration     7          0.697              1.661              1.380
 Vibration     8          0.770              1.461              0.947
 Vibration     9          0.793              1.400              0.852
 Vibration    10          0.844              1.276              0.688
 Vibration    11          0.925              1.098              0.506

 Optimization completed.
    -- Stationary point found.
 Normal termination of Gaussian 16 at Thu Aug  4 05:19:37 2022.
