 Gaussian 16, Revision A.03,
 Gaussian 16:  ES64L-G16RevA.03 25-Dec-2016

 -----------------------------
 # opt freq b3lyp/6-31g(2df,p)
 -----------------------------

 -------------------
 Title Card Required
 -------------------
 Symbolic Z-matrix:
 Charge =  0 Multiplicity = 1

 SCF Done:  E(RB3LYP) =  -342.976074695     A.U. after   13 cycles
 SCF Done:  E(RB3LYP) =  -342.977515384     A.U. after   12 cycles
 SCF Done:  E(RB3LYP) =  -342.977616543     A.U. after   10 cycles
 SCF Done:  E(RB3LYP) =  -342.977634606     A.U. after    9 cycles
 SCF Done:  E(RB3LYP) =  -342.977646213     A.U. after    9 cycles
 SCF Done:  E(RB3LYP) =  -342.977664766     A.U. after   10 cycles
 SCF Done:  E(RB3LYP) =  -342.977685738     A.U. after   10 cycles
 SCF Done:  E(RB3LYP) =  -342.977695677     A.U. after   10 cycles
 SCF Done:  E(RB3LYP) =  -342.977696008     A.U. after    7 cycles
 Optimization completed.
    -- Stationary point found.
 Normal termination of Gaussian 16 at Thu Aug  4 06:02:04 2022.

 ----------------------------------------------------------------------
 #N Geom=AllCheck Guess=TCheck SCRF=Check GenChk RB3LYP/6-31G(2df,p) Fr
 eq
 ----------------------------------------------------------------------

 Structure from the checkpoint file:  "CCc1cncnc1.chk"
 -------------------
 Title Card Required
 -------------------
 Charge =  0 Multiplicity = 1

                         Standard orientation:
 ---------------------------------------------------------------------
 Center     Atomic      Atomic             Coordinates (Angstroms)
 Number     Number       Type             X           Y           Z
 ---------------------------------------------------------------------
      1          6           0       -2.732991    0.000192    0.682005
      2          6           0       -1.883949   -0.000270   -0.601656
      3          6           0       -0.402868   -0.000111   -0.320998
      4          6           0        0.333802   -1.175408   -0.169760
      5          7           0        1.638091   -1.192867    0.109690
      6          6           0        2.219986    0.000147    0.239066
      7          7           0        1.637920    1.192994    0.109465
      8          6           0        0.333578    1.175298   -0.169901
      9          1           0       -3.800274   -0.000366    0.441254
     10          1           0       -2.521900    0.884181    1.291886
     11          1           0       -2.521223   -0.882857    1.293010
     12          1           0       -2.138669    0.877895   -1.205990
     13          1           0       -2.138595   -0.878889   -1.205348
     14          1           0       -0.149529   -2.145126   -0.285376
     15          1           0        3.282588    0.000230    0.469721
     16          1           0       -0.149832    2.144944   -0.285780
 ---------------------------------------------------------------------

 SCF Done:  E(RB3LYP) =  -342.977696008     A.U. after    1 cycles

 The electronic state is 1-A.
 Alpha  occ. eigenvalues --  -14.33247 -14.33238 -10.24599 -10.23311 -10.23311
 Alpha  occ. eigenvalues --  -10.20830 -10.20377 -10.18968  -0.98276  -0.88545
 Alpha  occ. eigenvalues --   -0.82343  -0.74978  -0.66371  -0.65690  -0.60900
 Alpha  occ. eigenvalues --   -0.53002  -0.52061  -0.46126  -0.44323  -0.42683
 Alpha  occ. eigenvalues --   -0.41190  -0.40858  -0.39071  -0.37481  -0.35889
 Alpha  occ. eigenvalues --   -0.31356  -0.29626  -0.27221  -0.24734
 Alpha virt. eigenvalues --   -0.03742  -0.02312   0.08624   0.12438   0.12600
 Alpha virt. eigenvalues --    0.12799   0.14583   0.15855   0.16171   0.16301
 Alpha virt. eigenvalues --    0.17524   0.20992   0.24070   0.25252   0.25394

 Mulliken charges:
               1
     1  C   -0.369061
     2  C   -0.299218
     3  C    0.235251
     4  C   -0.042307
     5  N   -0.246817
     6  C    0.074870
     7  N   -0.246800
     8  C   -0.042320
     9  H    0.120552
    10  H    0.125766
    11  H    0.125766
    12  H    0.112396
    13  H    0.112391
    14  H    0.110410
    15  H    0.118709
    16  H    0.110412
 Sum of Mulliken charges =   0.00000

 Dipole moment (field-independent basis, Debye):
    X=             -2.6943    Y=             -0.0002    Z=             -0.4447  Tot=              2.7307
 Quadrupole moment (field-independent basis, Debye-Ang):
   XX=            -47.1388   YY=            -49.5735   ZZ=            -47.5061
   XY=              0.0004   XZ=              0.6110   YZ=              0.0002

  Exact polarizability:  96.169   0.001  74.073   6.200  -0.001  46.433
 Approx polarizability: 140.578   0.001 133.048  13.804  -0.004  71.611

                      1                      2                      3
                      A                      A                      A
 Frequencies --     39.8614               137.7681               216.8156
 Red. masses --      2.5733                 3.2781                 1.1466
 Frc consts  --      0.0024                 0.0367                 0.0318
 IR Inten    --      0.0342                 0.0851                 0.1362

                      4                      5                      6
                      A                      A                      A
 Frequencies --    288.4781               340.0134               416.8984
 Red. masses --      2.8517                 1.9848                 4.1358
 Frc consts  --      0.1398                 0.1352                 0.4235
 IR Inten    --      0.5234                 0.3812                 0.0000

                      7                      8                      9
                      A                      A                      A
 Frequencies --    499.9333               593.4438               643.6943
 Red. masses --      4.3872                 3.7424                 8.9370
 Frc consts  --      0.6460                 0.7765                 2.1817
 IR Inten    --      0.5620                 0.6684                12.6937

                     10                     11                     12
                      A                      A                      A
 Frequencies --    759.3608               787.2751               811.0028
 Red. masses --      2.0343                 1.1645                 5.6023
 Frc consts  --      0.6911                 0.4252                 2.1710
 IR Inten    --     19.8292                 1.4816                 2.8314

                     13                     14                     15
                      A                      A                      A
 Frequencies --    935.9418               973.3564              1004.0483
 Red. masses --      1.7722                 2.5236                 1.3765
 Frc consts  --      0.9147                 1.4087                 0.8176
 IR Inten    --      1.6243                 4.4556                 0.0039

                     16                     17                     18
                      A                      A                      A
 Frequencies --   1014.6213              1060.9656              1069.7208
 Red. masses --      1.5010                 3.9353                 1.4785
 Frc consts  --      0.9104                 2.6099                 0.9968
 IR Inten    --      0.2896                 6.2177                 0.1485

                     19                     20                     21
                      A                      A                      A
 Frequencies --   1084.3469              1143.6268              1217.5284
 Red. masses --      1.9721                 4.5727                 2.0330
 Frc consts  --      1.3662                 3.5236                 1.7756
 IR Inten    --      5.9823                 2.5922                14.6476

                     22                     23                     24
                      A                      A                      A
 Frequencies --   1241.6773              1257.2228              1287.3961
 Red. masses --      4.1979                 1.9467                 1.3288
 Frc consts  --      3.8133                 1.8129                 1.2975
 IR Inten    --      0.0772                 7.4232                 1.5651

                     25                     26                     27
                      A                      A                      A
 Frequencies --   1353.5423              1381.4750              1409.9919
 Red. masses --      1.5001                 1.1860                 1.2107
 Frc consts  --      1.6193                 1.3336                 1.4181
 IR Inten    --      2.4515                 0.9811                 1.5436

                     28                     29                     30
                      A                      A                      A
 Frequencies --   1453.0329              1466.8665              1486.0660
 Red. masses --      2.6619                 1.9414                 1.0675
 Frc consts  --      3.3112                 2.4611                 1.3890
 IR Inten    --     63.5758                12.8897                 3.5949

                     31                     32                     33
                      A                      A                      A
 Frequencies --   1496.5799              1507.2004              1596.8711
 Red. masses --      1.0406                 1.0852                 5.3839
 Frc consts  --      1.3732                 1.4524                 8.0889
 IR Inten    --      7.5968                 4.0916                58.0704

                     34                     35                     36
                      A                      A                      A
 Frequencies --   1626.1414              3033.1222              3037.3110
 Red. masses --      5.5219                 1.0576                 1.0360
 Frc consts  --      8.6031                 5.7326                 5.6312
 IR Inten    --     19.2950                19.1116                27.5782

                     37                     38                     39
                      A                      A                      A
 Frequencies --   3069.0558              3111.6900              3112.1659
 Red. masses --      1.1028                 1.1027                 1.1021
 Frc consts  --      6.1200                 6.2908                 6.2893
 IR Inten    --      5.8212                23.4175                32.8051

                     40                     41                     42
                      A                      A                      A
 Frequencies --   3132.1105              3134.4359              3165.8337
 Red. masses --      1.0898                 1.0900                 1.0908
 Frc consts  --      6.2993                 6.3094                 6.4415
 IR Inten    --     29.7175                21.3796                20.4145

 - Thermochemistry -
 -------------------
 Temperature   298.150 Kelvin.  Pressure   1.00000 Atm.
 Atom     1 has atomic number  6 and mass  12.00000

 Molecular mass:   108.06875 amu.
 Principal axes and moments of inertia in atomic units:
                           1         2         3
     Eigenvalues --   375.532601205.003211439.50162
           X            0.99999  -0.00000  -0.00486
           Y            0.00000   1.00000   0.00001
           Z            0.00486  -0.00001   0.99999
 This molecule is an asymmetric top.
 Rotational symmetry number  1.
 Rotational temperatures (Kelvin)      0.23064     0.07188     0.06017
 Rotational constants (GHZ):           4.80582     1.49771     1.25373
 Zero-point vibrational energy     349300.5 (Joules/Mol)
                                   83.48483 (Kcal/Mol)
 Warning -- explicit consideration of   8 degrees of freedom as
           vibrations may cause significant error
 Vibrational temperatures:     57.35   198.22   311.95   415.06   489.20
          (Kelvin)            599.82   719.29   853.83   926.13  1092.55
                             1132.71  1166.85  1346.61  1400.44  1444.60
                             1459.81  1526.49  1539.09  1560.13  1645.42
                             1751.75  1786.50  1808.86  1852.28  1947.45
                             1987.63  2028.66  2090.59  2110.49  2138.12
                             2153.24  2168.53  2297.54  2339.65  4363.99
                             4370.01  4415.69  4477.03  4477.71  4506.41
                             4509.75  4554.93

 Zero-point correction=                           0.133042 (Hartree/Particle)
 Thermal correction to Energy=                    0.140180
 Thermal correction to Enthalpy=                  0.141124
 Thermal correction to Gibbs Free Energy=         0.100881
 Sum of electronic and zero-point Energies=           -342.844654
 Sum of electronic and thermal Energies=              -342.837516
 Sum of electronic and thermal Enthalpies=            -342.836572
 Sum of electronic and thermal Free Energies=         -342.876815

                     E (Thermal)             CV                S
                      KCal/Mol        Cal/Mol-Kelvin    Cal/Mol-Kelvin
 Total                   87.964             25.952             84.699
 Electronic               0.000              0.000              0.000
 Translational            0.889              2.981             39.949
 Rotational               0.889              2.981             27.968
 Vibrational             86.187             19.991             16.782
 Vibration     1          0.594              1.981              5.266
 Vibration     2          0.614              1.916              2.835
 Vibration     3          0.646              1.815              1.986
 Vibration     4          0.685              1.695              1.483
 Vibration     5          0.720              1.596              1.212
 Vibration     6          0.780              1.434              0.903
 Vibration     7          0.855              1.250              0.658
 Vibration     8          0.951              1.046              0.461

 Optimization completed.
    -- Stationary point found.
 Normal termination of Gaussian 16 at Thu Aug  4 06:23:07 2022.
