 Gaussian 16, Revision A.03,
 Gaussian 16:  ES64L-G16RevA.03 25-Dec-2016

 -----------------------------
 # opt freq b3lyp/6-31g(2df,p)
 -----------------------------

 -------------------
 Title Card Required
 -------------------
 Symbolic Z-matrix:
 Charge =  0 Multiplicity = 1

 SCF Done:  E(RB3LYP) =  -362.658431323     A.U. after   15 cycles
 SCF Done:  E(RB3LYP) =  -362.683968144     A.U. after   15 cycles
 SCF Done:  E(RB3LYP) =  -362.695980164     A.U. after   15 cycles
 SCF Done:  E(RB3LYP) =  -362.702724905     A.U. after   15 cycles
 SCF Done:  E(RB3LYP) =  -362.713593410     A.U. after   16 cycles
 SCF Done:  E(RB3LYP) =  -362.718621252     A.U. after   15 cycles
 SCF Done:  E(RB3LYP) =  -362.725040435     A.U. after   16 cycles
 SCF Done:  E(RB3LYP) =  -362.726451684     A.U. after   15 cycles
 SCF Done:  E(RB3LYP) =  -362.727308794     A.U. after   15 cycles
 SCF Done:  E(RB3LYP) =  -362.727849795     A.U. after   15 cycles
 SCF Done:  E(RB3LYP) =  -362.764872399     A.U. after   10 cycles
 SCF Done:  E(RB3LYP) =  -362.764876872     A.U. after   10 cycles
 SCF Done:  E(RB3LYP) =  -362.764880493     A.U. after   10 cycles
 SCF Done:  E(RB3LYP) =  -362.764884230     A.U. after   10 cycles
 SCF Done:  E(RB3LYP) =  -362.764888344     A.U. after   10 cycles
 SCF Done:  E(RB3LYP) =  -362.764894074     A.U. after   11 cycles
 SCF Done:  E(RB3LYP) =  -362.764897620     A.U. after   11 cycles
 SCF Done:  E(RB3LYP) =  -362.764898680     A.U. after    9 cycles
 SCF Done:  E(RB3LYP) =  -362.764898859     A.U. after    7 cycles
 Optimization completed.
    -- Stationary point found.
 Normal termination of Gaussian 16 at Thu Aug  4 20:21:07 2022.

 ----------------------------------------------------------------------
 #N Geom=AllCheck Guess=TCheck SCRF=Check GenChk RB3LYP/6-31G(2df,p) Fr
 eq
 ----------------------------------------------------------------------

 Structure from the checkpoint file:  "CCC1dC2CpdOpNC12.chk"
 -------------------
 Title Card Required
 -------------------
 Charge =  0 Multiplicity = 1

                         Standard orientation:
 ---------------------------------------------------------------------
 Center     Atomic      Atomic             Coordinates (Angstroms)
 Number     Number       Type             X           Y           Z
 ---------------------------------------------------------------------
      1          6           0        2.660413   -0.693634    0.671278
      2          6           0        1.800104   -0.604095   -0.605775
      3          6           0        0.429195   -0.045436   -0.318365
      4          6           0       -0.650573   -0.828821   -0.217221
      5          6           0       -1.926293   -0.718032    0.026858
      6          8           0       -3.068894   -0.854320    0.215075
      7          7           0       -0.708346    2.040778    0.163459
      8          6           0        0.369609    1.434701   -0.128531
      9          1           0        3.654154   -1.084129    0.434377
     10          1           0        2.191966   -1.359645    1.401301
     11          1           0        2.787891    0.286080    1.143285
     12          1           0        1.695121   -1.596500   -1.048808
     13          1           0        2.309701    0.037839   -1.336982
     14          1           0       -0.553817    3.047282    0.243208
     15          1           0        1.329829    1.950088   -0.270659
 ---------------------------------------------------------------------

 SCF Done:  E(RB3LYP) =  -362.764898859     A.U. after    1 cycles

 The electronic state is 1-A.
 Alpha  occ. eigenvalues --  -19.19446 -14.33847 -10.28906 -10.24753 -10.23823
 Alpha  occ. eigenvalues --  -10.20160 -10.19330 -10.17792  -1.09901  -0.92240
 Alpha  occ. eigenvalues --   -0.82696  -0.76374  -0.69585  -0.63003  -0.59366
 Alpha  occ. eigenvalues --   -0.52015  -0.49778  -0.47512  -0.45560  -0.43802
 Alpha  occ. eigenvalues --   -0.43209  -0.42584  -0.39872  -0.36927  -0.36134
 Alpha  occ. eigenvalues --   -0.35266  -0.28365  -0.27148  -0.22543
 Alpha virt. eigenvalues --   -0.10165   0.01143   0.04034   0.07808   0.10040
 Alpha virt. eigenvalues --    0.13293   0.13882   0.14659   0.15557   0.16936
 Alpha virt. eigenvalues --    0.18368   0.19504   0.21664   0.24000   0.27488

 Mulliken charges:
               1
     1  C   -0.377176
     2  C   -0.260662
     3  C    0.223862
     4  C   -0.359466
     5  C    0.460469
     6  O   -0.230427
     7  N   -0.377162
     8  C   -0.029226
     9  H    0.125935
    10  H    0.137945
    11  H    0.120682
    12  H    0.125417
    13  H    0.107536
    14  H    0.238644
    15  H    0.093631
 Sum of Mulliken charges =  -0.00000

 Dipole moment (field-independent basis, Debye):
    X=              3.7990    Y=              1.7232    Z=             -0.3470  Tot=              4.1860
 Quadrupole moment (field-independent basis, Debye-Ang):
   XX=            -50.6976   YY=            -42.7763   ZZ=            -46.1802
   XY=             -0.0734   XZ=              0.2739   YZ=             -0.3341

  Exact polarizability: 111.663   6.477  76.040  -5.892   1.986  45.884
 Approx polarizability: 203.027  17.195 117.830 -19.901   3.412  70.552

                      1                      2                      3
                      A                      A                      A
 Frequencies --     47.7666                80.4760                95.2116
 Red. masses --      2.9529                 6.5434                 3.3085
 Frc consts  --      0.0040                 0.0250                 0.0177
 IR Inten    --      1.9068                 4.4035                 9.0401

                      4                      5                      6
                      A                      A                      A
 Frequencies --    134.6242               214.3115               255.3635
 Red. masses --      4.2637                 1.2001                 2.9757
 Frc consts  --      0.0455                 0.0325                 0.1143
 IR Inten    --      6.1556                 0.5771                 2.5082

                      7                      8                      9
                      A                      A                      A
 Frequencies --    331.7772               394.0463               523.2024
 Red. masses --      2.8613                 4.1532                 3.1953
 Frc consts  --      0.1856                 0.3799                 0.5153
 IR Inten    --      2.2265                 6.9959                20.2531

                     10                     11                     12
                      A                      A                      A
 Frequencies --    543.4166               609.7809               657.9490
 Red. masses --      7.7570                 3.1445                 8.4545
 Frc consts  --      1.3496                 0.6889                 2.1564
 IR Inten    --      4.4986                18.3359                11.7931

                     13                     14                     15
                      A                      A                      A
 Frequencies --    758.7902               792.2866               841.9943
 Red. masses --      4.1692                 1.1860                 1.8750
 Frc consts  --      1.4143                 0.4386                 0.7832
 IR Inten    --     75.8068                 5.4151                32.9357

                     16                     17                     18
                      A                      A                      A
 Frequencies --    954.0302               999.3566              1059.0870
 Red. masses --      2.2518                 2.0118                 1.9811
 Frc consts  --      1.2076                 1.1838                 1.3092
 IR Inten    --      6.7158                 6.5498                26.8406

                     19                     20                     21
                      A                      A                      A
 Frequencies --   1110.3923              1148.3793              1189.8248
 Red. masses --      1.2517                 2.1252                 2.2675
 Frc consts  --      0.9093                 1.6513                 1.8913
 IR Inten    --      7.9445                35.1234                 3.0873

                     22                     23                     24
                      A                      A                      A
 Frequencies --   1242.1967              1298.4307              1337.5825
 Red. masses --      1.4406                 1.2982                 1.4536
 Frc consts  --      1.3097                 1.2896                 1.5322
 IR Inten    --     18.5737                 5.8725                 0.0248

                     25                     26                     27
                      A                      A                      A
 Frequencies --   1405.0683              1419.9341              1482.6058
 Red. masses --      1.2113                 1.4295                 1.0729
 Frc consts  --      1.4090                 1.6982                 1.3895
 IR Inten    --      0.8333                43.2591                 3.8495

                     28                     29                     30
                      A                      A                      A
 Frequencies --   1495.9260              1505.8507              1680.4310
 Red. masses --      1.0414                 1.0756                 7.6038
 Frc consts  --      1.3731                 1.4370                12.6508
 IR Inten    --      5.1716                 4.0301                 9.0728

                     31                     32                     33
                      A                      A                      A
 Frequencies --   1752.2378              2203.4610              3014.9622
 Red. masses --      9.6304                12.6271                 1.0803
 Frc consts  --     17.4213                36.1213                 5.7859
 IR Inten    --     16.2237              1131.8406                26.7265

                     34                     35                     36
                      A                      A                      A
 Frequencies --   3022.3343              3038.8970              3098.4541
 Red. masses --      1.0731                 1.0347                 1.0967
 Frc consts  --      5.7752                 5.6298                 6.2036
 IR Inten    --     50.7751                26.8633                 3.0192

                     37                     38                     39
                      A                      A                      A
 Frequencies --   3116.5448              3122.4315              3465.9436
 Red. masses --      1.0987                 1.1029                 1.0762
 Frc consts  --      6.2877                 6.3354                 7.6168
 IR Inten    --     29.9077                21.4838                 1.6740

 - Thermochemistry -
 -------------------
 Temperature   298.150 Kelvin.  Pressure   1.00000 Atm.
 Atom     1 has atomic number  6 and mass  12.00000

 Molecular mass:   109.05276 amu.
 Principal axes and moments of inertia in atomic units:
                           1         2         3
     Eigenvalues --   561.911921390.961481814.15443
           X            0.99943  -0.03284   0.00727
           Y            0.03285   0.99946  -0.00220
           Z           -0.00720   0.00244   0.99997
 This molecule is an asymmetric top.
 Rotational symmetry number  1.
 Warning -- assumption of classical behavior for rotation
           may cause significant error
 Rotational temperatures (Kelvin)      0.15414     0.06227     0.04774
 Rotational constants (GHZ):           3.21179     1.29748     0.99481
 Zero-point vibrational energy     307711.6 (Joules/Mol)
                                   73.54483 (Kcal/Mol)
 Warning -- explicit consideration of  11 degrees of freedom as
           vibrations may cause significant error
 Vibrational temperatures:     68.73   115.79   136.99   193.69   308.35
          (Kelvin)            367.41   477.35   566.94   752.77   781.86
                              877.34   946.64  1091.73  1139.92  1211.44
                             1372.64  1437.85  1523.79  1597.61  1652.26
                             1711.89  1787.24  1868.15  1924.48  2021.58
                             2042.97  2133.14  2152.30  2166.58  2417.77
                             2521.08  3170.29  4337.86  4348.46  4372.29
                             4457.98  4484.01  4492.48  4986.72

 Zero-point correction=                           0.117201 (Hartree/Particle)
 Thermal correction to Energy=                    0.125941
 Thermal correction to Enthalpy=                  0.126886
 Thermal correction to Gibbs Free Energy=         0.082672
 Sum of electronic and zero-point Energies=           -362.647698
 Sum of electronic and thermal Energies=              -362.638958
 Sum of electronic and thermal Enthalpies=            -362.638013
 Sum of electronic and thermal Free Energies=         -362.682227

                     E (Thermal)             CV                S
                      KCal/Mol        Cal/Mol-Kelvin    Cal/Mol-Kelvin
 Total                   79.029             29.501             93.055
 Electronic               0.000              0.000              0.000
 Translational            0.889              2.981             39.976
 Rotational               0.889              2.981             28.741
 Vibrational             77.252             23.539             24.339
 Vibration     1          0.595              1.978              4.908
 Vibration     2          0.600              1.962              3.879
 Vibration     3          0.603              1.953              3.550
 Vibration     4          0.613              1.919              2.879
 Vibration     5          0.644              1.819              2.007
 Vibration     6          0.666              1.754              1.693
 Vibration     7          0.714              1.612              1.251
 Vibration     8          0.761              1.483              0.985
 Vibration     9          0.878              1.199              0.603
 Vibration    10          0.899              1.154              0.558
 Vibration    11          0.969              1.011              0.433

                           ! Non-Optimized Parameters !
 Normal termination of Gaussian 16 at Thu Aug  4 20:39:42 2022.
