 Gaussian 16, Revision A.03,
 Gaussian 16:  ES64L-G16RevA.03 25-Dec-2016

 -----------------------------
 # opt freq b3lyp/6-31g(2df,p)
 -----------------------------

 -------------------
 Title Card Required
 -------------------
 Symbolic Z-matrix:
 Charge =  0 Multiplicity = 1

 SCF Done:  E(RB3LYP) =  -313.261330580     A.U. after   12 cycles
 SCF Done:  E(RB3LYP) =  -313.263895519     A.U. after   11 cycles
 SCF Done:  E(RB3LYP) =  -313.264157240     A.U. after   10 cycles
 SCF Done:  E(RB3LYP) =  -313.264257751     A.U. after    9 cycles
 SCF Done:  E(RB3LYP) =  -313.264294247     A.U. after    9 cycles
 SCF Done:  E(RB3LYP) =  -313.264325833     A.U. after    9 cycles
 SCF Done:  E(RB3LYP) =  -313.250391822     A.U. after   11 cycles
 SCF Done:  E(RB3LYP) =  -313.264811043     A.U. after   11 cycles
 SCF Done:  E(RB3LYP) =  -313.265737150     A.U. after   12 cycles
 SCF Done:  E(RB3LYP) =  -313.266703286     A.U. after   10 cycles
 SCF Done:  E(RB3LYP) =  -313.266835742     A.U. after   10 cycles
 SCF Done:  E(RB3LYP) =  -313.266922441     A.U. after   10 cycles
 SCF Done:  E(RB3LYP) =  -313.266993022     A.U. after   10 cycles
 SCF Done:  E(RB3LYP) =  -313.266995581     A.U. after    7 cycles
 SCF Done:  E(RB3LYP) =  -313.266995849     A.U. after    6 cycles
 Optimization completed.
    -- Stationary point found.
 Normal termination of Gaussian 16 at Thu Aug  4 11:18:39 2022.

 ----------------------------------------------------------------------
 #N Geom=AllCheck Guess=TCheck SCRF=Check GenChk RB3LYP/6-31G(2df,p) Fr
 eq
 ----------------------------------------------------------------------

 Structure from the checkpoint file:  "CCC1dCCC1pCpC.chk"
 -------------------
 Title Card Required
 -------------------
 Charge =  0 Multiplicity = 1

                         Standard orientation:
 ---------------------------------------------------------------------
 Center     Atomic      Atomic             Coordinates (Angstroms)
 Number     Number       Type             X           Y           Z
 ---------------------------------------------------------------------
      1          6           0       -2.978704   -0.121537   -0.000044
      2          6           0       -1.608175   -0.806101   -0.000129
      3          6           0       -0.458525    0.144473   -0.000190
      4          6           0       -0.321910    1.476713   -0.000079
      5          6           0        1.193769    1.454199   -0.000222
      6          6           0        1.054777   -0.118860   -0.000100
      7          6           0        1.588130   -0.798586   -1.263337
      8          6           0        1.587521   -0.797915    1.263926
      9          1           0       -3.787427   -0.858097    0.000273
     10          1           0       -3.099667    0.512926   -0.883780
     11          1           0       -3.099293    0.512984    0.883738
     12          1           0       -1.524197   -1.471861   -0.871735
     13          1           0       -1.524161   -1.471602    0.871733
     14          1           0       -1.031980    2.296465   -0.000166
     15          1           0        1.683034    1.869604    0.888398
     16          1           0        1.682247    1.869045   -0.889576
     17          1           0        1.218222   -0.301337   -2.165951
     18          1           0        1.279148   -1.849658   -1.308577
     19          1           0        2.683927   -0.777244   -1.288521
     20          1           0        1.217381   -0.299806    2.165952
     21          1           0        2.683316   -0.776889    1.289470
     22          1           0        1.278155   -1.848842    1.309789
 ---------------------------------------------------------------------

 SCF Done:  E(RB3LYP) =  -313.266995849     A.U. after    1 cycles

 The electronic state is 1-A.
 Alpha  occ. eigenvalues --  -10.18884 -10.18396 -10.17384 -10.17327 -10.17279
 Alpha  occ. eigenvalues --  -10.16800 -10.16800 -10.16788  -0.85727  -0.76708
 Alpha  occ. eigenvalues --   -0.73222  -0.67887  -0.65355  -0.60439  -0.57020
 Alpha  occ. eigenvalues --   -0.47471  -0.46584  -0.44952  -0.43751  -0.43149
 Alpha  occ. eigenvalues --   -0.40847  -0.38393  -0.38126  -0.37248  -0.36365
 Alpha  occ. eigenvalues --   -0.34765  -0.33283  -0.32848  -0.29252  -0.28331
 Alpha  occ. eigenvalues --   -0.23026
 Alpha virt. eigenvalues --    0.03473   0.08600   0.10308   0.13152   0.13861
 Alpha virt. eigenvalues --    0.14237   0.15968   0.16178   0.16630   0.17479
 Alpha virt. eigenvalues --    0.17552   0.18209   0.18861   0.20005   0.20500

 Mulliken charges:
               1
     1  C   -0.375517
     2  C   -0.313773
     3  C    0.345230
     4  C   -0.214347
     5  C   -0.309293
     6  C    0.240327
     7  C   -0.441357
     8  C   -0.441277
     9  H    0.110823
    10  H    0.120830
    11  H    0.120831
    12  H    0.108542
    13  H    0.108549
    14  H    0.088379
    15  H    0.094882
    16  H    0.094878
    17  H    0.112044
    18  H    0.108444
    19  H    0.110670
    20  H    0.112056
    21  H    0.110646
    22  H    0.108433
 Sum of Mulliken charges =  -0.00000

 Dipole moment (field-independent basis, Debye):
    X=             -0.2219    Y=             -0.3893    Z=             -0.0002  Tot=              0.4481
 Quadrupole moment (field-independent basis, Debye-Ang):
   XX=            -50.7459   YY=            -50.8703   ZZ=            -51.9241
   XY=              0.3813   XZ=             -0.0003   YZ=              0.0002

  Exact polarizability:  93.265   1.578  88.829   0.000  -0.002  70.408
 Approx polarizability: 118.906   4.392 140.180   0.001  -0.000 103.055

                      1                      2                      3
                      A                      A                      A
 Frequencies --     66.0416               144.7412               159.8181
 Red. masses --      2.1801                 1.8638                 2.6692
 Frc consts  --      0.0056                 0.0230                 0.0402
 IR Inten    --      0.0045                 0.7868                 0.1883

                      4                      5                      6
                      A                      A                      A
 Frequencies --    206.4089               233.0273               247.3632
 Red. masses --      2.0321                 1.0988                 1.2263
 Frc consts  --      0.0510                 0.0352                 0.0442
 IR Inten    --      0.0002                 0.0018                 0.2434

                      7                      8                      9
                      A                      A                      A
 Frequencies --    258.6800               286.4213               342.9812
 Red. masses --      1.3460                 1.7805                 2.2674
 Frc consts  --      0.0531                 0.0861                 0.1572
 IR Inten    --      0.0103                 0.1270                 0.0070

                     10                     11                     12
                      A                      A                      A
 Frequencies --    361.8381               496.0655               562.4611
 Red. masses --      1.9154                 2.5164                 2.3377
 Frc consts  --      0.1478                 0.3648                 0.4357
 IR Inten    --      1.1055                 0.1324                 3.6085

                     13                     14                     15
                      A                      A                      A
 Frequencies --    622.1415               714.9244               780.3803
 Red. masses --      3.4661                 2.9808                 1.2154
 Frc consts  --      0.7904                 0.8977                 0.4361
 IR Inten    --      0.1846                 0.8106                 2.2107

                     16                     17                     18
                      A                      A                      A
 Frequencies --    835.2428               847.1947               921.9503
 Red. masses --      1.2316                 2.5509                 1.6179
 Frc consts  --      0.5062                 1.0787                 0.8103
 IR Inten    --     17.1731                 0.6981                 2.3048

                     19                     20                     21
                      A                      A                      A
 Frequencies --    950.4222               957.1214               965.6000
 Red. masses --      1.8441                 1.2974                 2.0522
 Frc consts  --      0.9815                 0.7003                 1.1274
 IR Inten    --      5.0231                 1.5169                 2.1612

                     22                     23                     24
                      A                      A                      A
 Frequencies --   1002.3679              1020.1838              1063.5333
 Red. masses --      2.1103                 1.3337                 1.7918
 Frc consts  --      1.2493                 0.8178                 1.1941
 IR Inten    --      0.4200                 0.7172                 0.7881

                     25                     26                     27
                      A                      A                      A
 Frequencies --   1084.2011              1107.5825              1130.4867
 Red. masses --      1.2749                 1.5944                 2.4655
 Frc consts  --      0.8830                 1.1524                 1.8564
 IR Inten    --      0.5919                 0.4178                10.3479

                     28                     29                     30
                      A                      A                      A
 Frequencies --   1191.4584              1219.2448              1246.9289
 Red. masses --      2.3574                 1.5394                 2.6617
 Frc consts  --      1.9717                 1.3483                 2.4383
 IR Inten    --      0.5119                 3.1270                 6.9237

                     31                     32                     33
                      A                      A                      A
 Frequencies --   1266.1723              1282.1709              1286.8071
 Red. masses --      2.0747                 1.1815                 2.4780
 Frc consts  --      1.9597                 1.1444                 2.4176
 IR Inten    --      1.2611                 0.7586                14.5079

                     34                     35                     36
                      A                      A                      A
 Frequencies --   1381.4046              1395.7582              1408.7770
 Red. masses --      1.8356                 1.2559                 1.2482
 Frc consts  --      2.0638                 1.4415                 1.4596
 IR Inten    --      2.7896                 5.3114                 2.0101

                     37                     38                     39
                      A                      A                      A
 Frequencies --   1414.5905              1472.1529              1481.7973
 Red. masses --      1.2289                 1.0809                 1.1067
 Frc consts  --      1.4489                 1.3802                 1.4317
 IR Inten    --      0.3596                 2.2870                 0.7601

                     40                     41                     42
                      A                      A                      A
 Frequencies --   1483.0267              1487.8821              1496.5077
 Red. masses --      1.0468                 1.0504                 1.0395
 Frc consts  --      1.3565                 1.3701                 1.3716
 IR Inten    --      0.3633                 1.8204                 4.8870

                     43                     44                     45
                      A                      A                      A
 Frequencies --   1501.3427              1506.5008              1507.3668
 Red. masses --      1.0557                 1.0568                 1.0550
 Frc consts  --      1.4020                 1.4131                 1.4124
 IR Inten    --      2.2002                 6.8371                 2.1060

                     46                     47                     48
                      A                      A                      A
 Frequencies --   1706.6175              2997.5169              3015.0621
 Red. masses --      7.2403                 1.0594                 1.0692
 Frc consts  --     12.4246                 5.6085                 5.7266
 IR Inten    --      5.9356                21.7416                 0.0904

                     49                     50                     51
                      A                      A                      A
 Frequencies --   3017.4629              3020.1835              3025.8039
 Red. masses --      1.0626                 1.0407                 1.0510
 Frc consts  --      5.7005                 5.5932                 5.6695
 IR Inten    --     40.3225                42.7845                48.9505

                     52                     53                     54
                      A                      A                      A
 Frequencies --   3037.7918              3066.4732              3079.4216
 Red. masses --      1.0347                 1.1064                 1.1013
 Frc consts  --      5.6258                 6.1296                 6.1533
 IR Inten    --     24.7662                24.4984                 1.5779

                     55                     56                     57
                      A                      A                      A
 Frequencies --   3083.9802              3094.5506              3096.7935
 Red. masses --      1.1003                 1.1014                 1.1010
 Frc consts  --      6.1655                 6.2142                 6.2211
 IR Inten    --     54.1664                22.5006                36.3497

                     58                     59                     60
                      A                      A                      A
 Frequencies --   3106.1796              3109.8048              3185.2387
 Red. masses --      1.1018                 1.1019                 1.0981
 Frc consts  --      6.2631                 6.2784                 6.5641
 IR Inten    --     29.6624                30.4091                23.6265

 - Thermochemistry -
 -------------------
 Temperature   298.150 Kelvin.  Pressure   1.00000 Atm.
 Atom     1 has atomic number  6 and mass  12.00000

 Molecular mass:   110.10955 amu.
 Principal axes and moments of inertia in atomic units:
                           1         2         3
     Eigenvalues --   573.997581277.030401427.63392
           X            0.99998  -0.00578  -0.00001
           Y            0.00578   0.99998  -0.00001
           Z            0.00001   0.00001   1.00000
 This molecule is an asymmetric top.
 Rotational symmetry number  1.
 Warning -- assumption of classical behavior for rotation
           may cause significant error
 Rotational temperatures (Kelvin)      0.15090     0.06782     0.06067
 Rotational constants (GHZ):           3.14416     1.41323     1.26415
 Zero-point vibrational energy     520626.5 (Joules/Mol)
                                  124.43272 (Kcal/Mol)
 Warning -- explicit consideration of  12 degrees of freedom as
           vibrations may cause significant error
 Vibrational temperatures:     95.02   208.25   229.94   296.98   335.27
          (Kelvin)            355.90   372.18   412.10   493.47   520.60
                              713.73   809.26   895.12  1028.62  1122.79
                             1201.73  1218.92  1326.48  1367.45  1377.08
                             1389.28  1442.18  1467.82  1530.19  1559.92
                             1593.56  1626.52  1714.24  1754.22  1794.05
                             1821.74  1844.76  1851.43  1987.53  2008.18
                             2026.92  2035.28  2118.10  2131.98  2133.74
                             2140.73  2153.14  2160.10  2167.52  2168.76
                             2455.44  4312.76  4338.00  4341.46  4345.37
                             4353.46  4370.70  4411.97  4430.60  4437.16
                             4452.37  4455.60  4469.10  4474.32  4582.85

 Zero-point correction=                           0.198296 (Hartree/Particle)
 Thermal correction to Energy=                    0.207781
 Thermal correction to Enthalpy=                  0.208725
 Thermal correction to Gibbs Free Energy=         0.164585
 Sum of electronic and zero-point Energies=           -313.068700
 Sum of electronic and thermal Energies=              -313.059215
 Sum of electronic and thermal Enthalpies=            -313.058271
 Sum of electronic and thermal Free Energies=         -313.102411

                     E (Thermal)             CV                S
                      KCal/Mol        Cal/Mol-Kelvin    Cal/Mol-Kelvin
 Total                  130.385             35.467             92.901
 Electronic               0.000              0.000              0.000
 Translational            0.889              2.981             40.005
 Rotational               0.889              2.981             28.439
 Vibrational            128.607             29.506             24.457
 Vibration     1          0.597              1.970              4.268
 Vibration     2          0.616              1.908              2.740
 Vibration     3          0.622              1.892              2.552
 Vibration     4          0.641              1.831              2.075
 Vibration     5          0.654              1.790              1.856
 Vibration     6          0.661              1.767              1.749
 Vibration     7          0.667              1.748              1.671
 Vibration     8          0.684              1.699              1.495
 Vibration     9          0.722              1.590              1.198
 Vibration    10          0.736              1.551              1.114
 Vibration    11          0.852              1.259              0.668
 Vibration    12          0.918              1.113              0.519

 Optimization completed.
    -- Stationary point found.
 Normal termination of Gaussian 16 at Thu Aug  4 11:50:13 2022.
