 Gaussian 16, Revision A.03,
 Gaussian 16:  ES64L-G16RevA.03 25-Dec-2016

 -----------------------------
 # opt freq b3lyp/6-31g(2df,p)
 -----------------------------

 -------------------
 Title Card Required
 -------------------
 Symbolic Z-matrix:
 Charge =  0 Multiplicity = 1

 SCF Done:  E(RB3LYP) =  -441.686287532     A.U. after   12 cycles
 SCF Done:  E(RB3LYP) =  -441.690058934     A.U. after   11 cycles
 SCF Done:  E(RB3LYP) =  -441.690677150     A.U. after   10 cycles
 SCF Done:  E(RB3LYP) =  -441.690811907     A.U. after    9 cycles
 SCF Done:  E(RB3LYP) =  -441.690837430     A.U. after    9 cycles
 SCF Done:  E(RB3LYP) =  -441.690845369     A.U. after    8 cycles
 SCF Done:  E(RB3LYP) =  -441.690848125     A.U. after    7 cycles
 SCF Done:  E(RB3LYP) =  -441.690848572     A.U. after    6 cycles
 Optimization completed.
    -- Stationary point found.
 Normal termination of Gaussian 16 at Thu Aug  4 10:58:18 2022.

 ----------------------------------------------------------------------
 #N Geom=AllCheck Guess=TCheck SCRF=Check GenChk RB3LYP/6-31G(2df,p) Fr
 eq
 ----------------------------------------------------------------------

 Structure from the checkpoint file:  "CCC1CCNCpOpO1.chk"
 -------------------
 Title Card Required
 -------------------
 Charge =  0 Multiplicity = 1

                         Standard orientation:
 ---------------------------------------------------------------------
 Center     Atomic      Atomic             Coordinates (Angstroms)
 Number     Number       Type             X           Y           Z
 ---------------------------------------------------------------------
      1          6           0        3.168973   -0.397959   -0.296048
      2          6           0        1.687610   -0.739799   -0.487316
      3          6           0        0.791786   -0.230566    0.656516
      4          6           0        0.576276    1.290943    0.686801
      5          6           0       -0.427325    1.716805   -0.385825
      6          7           0       -1.646547    0.922774   -0.212362
      7          6           0       -1.399669   -0.505522   -0.317221
      8          8           0       -2.577899   -1.201915   -0.119673
      9          8           0       -0.476138   -0.899861    0.670044
     10          1           0        3.775999   -0.839229   -1.092103
     11          1           0        3.543511   -0.782999    0.659084
     12          1           0        3.347733    0.682100   -0.310274
     13          1           0        1.561883   -1.827395   -0.529283
     14          1           0        1.344684   -0.350910   -1.453137
     15          1           0        1.258131   -0.540923    1.598779
     16          1           0        1.526532    1.817448    0.554579
     17          1           0        0.174558    1.565819    1.667091
     18          1           0        0.017093    1.598009   -1.390851
     19          1           0       -0.678404    2.776138   -0.273874
     20          1           0       -2.343086    1.172089   -0.907630
     21          1           0       -1.040763   -0.812588   -1.316760
     22          1           0       -2.915654   -0.906174    0.736504
 ---------------------------------------------------------------------

 SCF Done:  E(RB3LYP) =  -441.690848572     A.U. after    1 cycles

 The electronic state is 1-A.
 Alpha  occ. eigenvalues --  -19.13831 -19.13275 -14.31556 -10.29373 -10.23135
 Alpha  occ. eigenvalues --  -10.21142 -10.18174 -10.18059 -10.17877  -1.06850
 Alpha  occ. eigenvalues --   -0.99915  -0.89341  -0.79608  -0.74539  -0.67033
 Alpha  occ. eigenvalues --   -0.64750  -0.61907  -0.56126  -0.52421  -0.48959
 Alpha  occ. eigenvalues --   -0.48374  -0.47123  -0.45543  -0.42416  -0.41903
 Alpha  occ. eigenvalues --   -0.40617  -0.38417  -0.37089  -0.36072  -0.34694
 Alpha  occ. eigenvalues --   -0.34015  -0.33235  -0.30487  -0.28913  -0.25702
 Alpha  occ. eigenvalues --   -0.23571
 Alpha virt. eigenvalues --    0.07480   0.10002   0.10140   0.11242   0.12485
 Alpha virt. eigenvalues --    0.13765   0.14541   0.15331   0.16694   0.17043
 Alpha virt. eigenvalues --    0.17956   0.18453   0.20193   0.20679   0.21967

 Mulliken charges:
               1
     1  C   -0.391453
     2  C   -0.192310
     3  C    0.126247
     4  C   -0.197738
     5  C   -0.175315
     6  N   -0.318491
     7  C    0.210804
     8  O   -0.403950
     9  O   -0.263226
    10  H    0.117879
    11  H    0.118296
    12  H    0.118175
    13  H    0.111173
    14  H    0.097317
    15  H    0.080878
    16  H    0.097588
    17  H    0.109729
    18  H    0.085771
    19  H    0.104323
    20  H    0.220956
    21  H    0.063157
    22  H    0.280192
 Sum of Mulliken charges =  -0.00000

 Dipole moment (field-independent basis, Debye):
    X=              1.1914    Y=              1.9232    Z=             -0.5552  Tot=              2.3295
 Quadrupole moment (field-independent basis, Debye-Ang):
   XX=            -54.5227   YY=            -57.1659   ZZ=            -53.8481
   XY=             -3.3096   XZ=             -0.2467   YZ=             -1.1974

  Exact polarizability:  90.900  -0.004  75.388   0.267   0.358  68.681
 Approx polarizability: 115.000   2.516 107.269  -0.016  -0.670 105.893

                      1                      2                      3
                      A                      A                      A
 Frequencies --     76.4374               120.1766               136.5372
 Red. masses --      2.1470                 3.9495                 2.3023
 Frc consts  --      0.0074                 0.0336                 0.0253
 IR Inten    --      0.2543                 0.5410                 2.3161

                      4                      5                      6
                      A                      A                      A
 Frequencies --    220.0782               267.1149               284.6756
 Red. masses --      1.3420                 2.3639                 1.7345
 Frc consts  --      0.0383                 0.0994                 0.0828
 IR Inten    --      1.0877                 1.1091                10.6590

                      7                      8                      9
                      A                      A                      A
 Frequencies --    317.1382               373.4717               394.8656
 Red. masses --      1.8597                 3.5524                 2.2917
 Frc consts  --      0.1102                 0.2919                 0.2105
 IR Inten    --     25.7160                 5.0638                 9.9958

                     10                     11                     12
                      A                      A                      A
 Frequencies --    427.6192               500.9160               547.3865
 Red. masses --      2.2309                 3.5541                 3.9875
 Frc consts  --      0.2403                 0.5254                 0.7039
 IR Inten    --     46.4434                 2.2037                 9.8654

                     13                     14                     15
                      A                      A                      A
 Frequencies --    619.6369               673.9850               759.1527
 Red. masses --      2.6338                 2.2481                 1.6865
 Frc consts  --      0.5958                 0.6017                 0.5727
 IR Inten    --     11.9893                 9.0921                 6.0103

                     16                     17                     18
                      A                      A                      A
 Frequencies --    814.7447               855.4396               900.2813
 Red. masses --      1.4915                 1.7930                 1.9565
 Frc consts  --      0.5833                 0.7730                 0.9343
 IR Inten    --     68.0042                61.3779                 6.1550

                     19                     20                     21
                      A                      A                      A
 Frequencies --    914.2568               945.6898               967.6955
 Red. masses --      2.6811                 2.7463                 1.9642
 Frc consts  --      1.3204                 1.4471                 1.0837
 IR Inten    --     24.2889                26.9528                15.6099

                     22                     23                     24
                      A                      A                      A
 Frequencies --   1022.3888              1053.6329              1059.2477
 Red. masses --      1.7427                 2.1202                 2.9417
 Frc consts  --      1.0733                 1.3868                 1.9447
 IR Inten    --      5.4272                69.8754                47.4604

                     25                     26                     27
                      A                      A                      A
 Frequencies --   1081.7304              1133.1417              1135.4490
 Red. masses --      1.8710                 2.8518                 2.0640
 Frc consts  --      1.2899                 2.1575                 1.5678
 IR Inten    --     54.7096                 4.7939               102.2555

                     28                     29                     30
                      A                      A                      A
 Frequencies --   1154.6303              1165.4926              1244.8673
 Red. masses --      2.7664                 2.3015                 1.2859
 Frc consts  --      2.1730                 1.8420                 1.1741
 IR Inten    --    101.1711                25.8216                12.7858

                     31                     32                     33
                      A                      A                      A
 Frequencies --   1258.3157              1282.0081              1332.4145
 Red. masses --      1.4349                 1.2064                 1.2694
 Frc consts  --      1.3386                 1.1682                 1.3277
 IR Inten    --     46.2177                 2.4835                16.9577

                     34                     35                     36
                      A                      A                      A
 Frequencies --   1335.4866              1350.3405              1371.5347
 Red. masses --      1.3759                 1.4927                 1.4868
 Frc consts  --      1.4458                 1.6037                 1.6478
 IR Inten    --     11.8965                23.7620                 2.3516

                     37                     38                     39
                      A                      A                      A
 Frequencies --   1385.8572              1398.0514              1414.2431
 Red. masses --      1.3457                 1.3185                 1.2329
 Frc consts  --      1.5228                 1.5183                 1.4528
 IR Inten    --     19.3823                 4.0408                 6.5685

                     40                     41                     42
                      A                      A                      A
 Frequencies --   1420.2946              1430.9892              1471.1249
 Red. masses --      1.3299                 1.2458                 1.1108
 Frc consts  --      1.5806                 1.5031                 1.4164
 IR Inten    --      8.7442                59.5858                22.3379

                     43                     44                     45
                      A                      A                      A
 Frequencies --   1479.8424              1490.2090              1502.2327
 Red. masses --      1.3034                 1.1127                 1.0475
 Frc consts  --      1.6817                 1.4558                 1.3927
 IR Inten    --     50.6917                14.5207                 8.1468

                     46                     47                     48
                      A                      A                      A
 Frequencies --   1505.9259              1515.6444              2933.3344
 Red. masses --      1.0680                 1.0916                 1.0753
 Frc consts  --      1.4270                 1.4775                 5.4514
 IR Inten    --      2.9333                 6.6028                24.9610

                     49                     50                     51
                      A                      A                      A
 Frequencies --   2939.1444              3030.0395              3032.2350
 Red. masses --      1.0789                 1.0755                 1.0380
 Frc consts  --      5.4910                 5.8180                 5.6231
 IR Inten    --    115.9095                 6.3745                13.7416

                     52                     53                     54
                      A                      A                      A
 Frequencies --   3039.5064              3052.0172              3068.8974
 Red. masses --      1.0644                 1.0656                 1.0890
 Frc consts  --      5.7940                 5.8483                 6.0431
 IR Inten    --     34.4418                35.4178                42.4921

                     55                     56                     57
                      A                      A                      A
 Frequencies --   3072.0099              3095.4369              3102.0129
 Red. masses --      1.0973                 1.1040                 1.1018
 Frc consts  --      6.1011                 6.2328                 6.2468
 IR Inten    --     11.5465                28.5881                53.4064

                     58                     59                     60
                      A                      A                      A
 Frequencies --   3106.4095              3523.2461              3770.5226
 Red. masses --      1.1008                 1.0739                 1.0641
 Frc consts  --      6.2584                 7.8543                 8.9135
 IR Inten    --     29.4989                 1.0206                25.4180

 - Thermochemistry -
 -------------------
 Temperature   298.150 Kelvin.  Pressure   1.00000 Atm.
 Atom     1 has atomic number  6 and mass  12.00000

 Molecular mass:   131.09463 amu.
 Principal axes and moments of inertia in atomic units:
                           1         2         3
     Eigenvalues --   645.055171578.952111933.22992
           X            0.99978  -0.02067  -0.00313
           Y            0.02069   0.99976   0.00735
           Z            0.00298  -0.00741   0.99997
 This molecule is an asymmetric top.
 Rotational symmetry number  1.
 Warning -- assumption of classical behavior for rotation
           may cause significant error
 Rotational temperatures (Kelvin)      0.13427     0.05486     0.04480
 Rotational constants (GHZ):           2.79781     1.14300     0.93354
 Zero-point vibrational energy     513659.8 (Joules/Mol)
                                  122.76763 (Kcal/Mol)
 Warning -- explicit consideration of  13 degrees of freedom as
           vibrations may cause significant error
 Vibrational temperatures:    109.98   172.91   196.45   316.64   384.32
          (Kelvin)            409.58   456.29   537.34   568.12   615.25
                              720.71   787.57   891.52   969.71  1092.25
                             1172.24  1230.79  1295.30  1315.41  1360.64
                             1392.30  1470.99  1515.94  1524.02  1556.37
                             1630.34  1633.66  1661.26  1676.88  1791.09
                             1810.44  1844.52  1917.05  1921.47  1942.84
                             1973.33  1993.94  2011.48  2034.78  2043.49
                             2058.87  2116.62  2129.16  2144.08  2161.38
                             2166.69  2180.67  4220.41  4228.77  4359.55
                             4362.71  4373.17  4391.17  4415.46  4419.94
                             4453.64  4463.10  4469.43  5069.17  5424.94

 Zero-point correction=                           0.195643 (Hartree/Particle)
 Thermal correction to Energy=                    0.204839
 Thermal correction to Enthalpy=                  0.205784
 Thermal correction to Gibbs Free Energy=         0.161714
 Sum of electronic and zero-point Energies=           -441.495206
 Sum of electronic and thermal Energies=              -441.486009
 Sum of electronic and thermal Enthalpies=            -441.485065
 Sum of electronic and thermal Free Energies=         -441.529134

                     E (Thermal)             CV                S
                      KCal/Mol        Cal/Mol-Kelvin    Cal/Mol-Kelvin
 Total                  128.539             35.331             92.752
 Electronic               0.000              0.000              0.000
 Translational            0.889              2.981             40.525
 Rotational               0.889              2.981             29.067
 Vibrational            126.761             29.369             23.160
 Vibration     1          0.599              1.965              3.980
 Vibration     2          0.609              1.932              3.098
 Vibration     3          0.614              1.917              2.852
 Vibration     4          0.647              1.811              1.958
 Vibration     5          0.672              1.733              1.615
 Vibration     6          0.683              1.702              1.505
 Vibration     7          0.704              1.641              1.325
 Vibration     8          0.745              1.527              1.065
 Vibration     9          0.762              1.481              0.982
 Vibration    10          0.789              1.410              0.866
 Vibration    11          0.856              1.248              0.656
 Vibration    12          0.903              1.145              0.550
 Vibration    13          0.980              0.990              0.417

 Optimization completed.
    -- Stationary point found.
 Normal termination of Gaussian 16 at Thu Aug  4 11:41:21 2022.
