 Gaussian 16, Revision A.03,
 Gaussian 16:  ES64L-G16RevA.03 25-Dec-2016

 -----------------------------
 # opt freq b3lyp/6-31g(2df,p)
 -----------------------------

 -------------------
 Title Card Required
 -------------------
 Symbolic Z-matrix:
 Charge =  0 Multiplicity = 1

 SCF Done:  E(RB3LYP) =  -378.597962207     A.U. after   25 cycles
 SCF Done:  E(RB3LYP) =  -378.660692467     A.U. after   17 cycles
 SCF Done:  E(RB3LYP) =  -378.612401090     A.U. after   16 cycles
 SCF Done:  E(RB3LYP) =  -378.720580453     A.U. after   15 cycles
 SCF Done:  E(RB3LYP) =  -378.749113517     A.U. after   14 cycles
 SCF Done:  E(RB3LYP) =  -378.756296258     A.U. after   15 cycles
 SCF Done:  E(RB3LYP) =  -378.751988925     A.U. after   17 cycles
 SCF Done:  E(RB3LYP) =  -378.756666192     A.U. after   15 cycles
 SCF Done:  E(RB3LYP) =  -378.763294379     A.U. after   15 cycles
 SCF Done:  E(RB3LYP) =  -378.762305086     A.U. after   14 cycles
 SCF Done:  E(RB3LYP) =  -378.764246686     A.U. after   13 cycles
 SCF Done:  E(RB3LYP) =  -378.764360103     A.U. after   12 cycles
 SCF Done:  E(RB3LYP) =  -378.764367467     A.U. after   11 cycles
 SCF Done:  E(RB3LYP) =  -378.764369202     A.U. after   10 cycles
 SCF Done:  E(RB3LYP) =  -378.764369349     A.U. after    8 cycles
 Optimization completed.
    -- Stationary point found.
 Normal termination of Gaussian 16 at Thu Aug  4 15:25:24 2022.

 ----------------------------------------------------------------------
 #N Geom=AllCheck Guess=TCheck SCRF=Check GenChk RB3LYP/6-31G(2df,p) Fr
 eq
 ----------------------------------------------------------------------

 Structure from the checkpoint file:  "CCC1dNCpCdOpdN1.chk"
 -------------------
 Title Card Required
 -------------------
 Charge =  0 Multiplicity = 1

                         Standard orientation:
 ---------------------------------------------------------------------
 Center     Atomic      Atomic             Coordinates (Angstroms)
 Number     Number       Type             X           Y           Z
 ---------------------------------------------------------------------
      1          6           0        3.054714    0.782433    0.000166
      2          6           0        2.236569   -0.510586    0.000045
      3          6           0        0.781566   -0.284227   -0.000136
      4          7           0       -0.324934   -1.354849    0.000062
      5          6           0       -1.036926   -0.280476   -0.000100
      6          6           0       -2.512901   -0.171556    0.000068
      7          8           0       -3.106886    0.876397    0.000163
      8          7           0        0.041684    0.768765   -0.000383
      9          1           0        4.123213    0.554508   -0.002016
     10          1           0        2.829465    1.385221    0.883277
     11          1           0        2.826216    1.387446   -0.880574
     12          1           0        2.466462   -1.143383    0.870083
     13          1           0        2.466376   -1.143231   -0.870195
     14          1           0       -3.012024   -1.162682    0.000105
 ---------------------------------------------------------------------

 SCF Done:  E(RB3LYP) =  -378.764369349     A.U. after    1 cycles

 The electronic state is 1-A.
 Alpha  occ. eigenvalues --  -19.16925 -14.35664 -14.34069 -10.29589 -10.29146
 Alpha  occ. eigenvalues --  -10.28916 -10.22341 -10.19688  -1.07439  -1.04526
 Alpha  occ. eigenvalues --   -0.84417  -0.80362  -0.71826  -0.67207  -0.57377
 Alpha  occ. eigenvalues --   -0.51896  -0.49852  -0.48838  -0.45376  -0.44540
 Alpha  occ. eigenvalues --   -0.42605  -0.41400  -0.40147  -0.39122  -0.37371
 Alpha  occ. eigenvalues --   -0.37068  -0.28677  -0.26604  -0.25991
 Alpha virt. eigenvalues --   -0.12251  -0.02061   0.06342   0.07938   0.09867
 Alpha virt. eigenvalues --    0.11898   0.13120   0.13834   0.15983   0.18087
 Alpha virt. eigenvalues --    0.18741   0.20502   0.24089   0.26251   0.31175

 Mulliken charges:
               1
     1  C   -0.381788
     2  C   -0.330170
     3  C    0.402730
     4  N   -0.305436
     5  C    0.282577
     6  C    0.063962
     7  O   -0.222948
     8  N   -0.332793
     9  H    0.125078
    10  H    0.144662
    11  H    0.144752
    12  H    0.148197
    13  H    0.148198
    14  H    0.112977
 Sum of Mulliken charges =  -0.00000

 Dipole moment (field-independent basis, Debye):
    X=              2.7984    Y=             -1.8221    Z=              0.0001  Tot=              3.3393
 Quadrupole moment (field-independent basis, Debye-Ang):
   XX=            -42.5511   YY=            -52.3572   ZZ=            -44.0487
   XY=              3.6694   XZ=              0.0010   YZ=              0.0010

  Exact polarizability:  95.879  -5.888  62.155  -0.001   0.001  41.096
 Approx polarizability: 128.356 -28.747 116.153  -0.001  -0.002  64.830

                      1                      2                      3
                      A                      A                      A
 Frequencies --     78.4471                91.6557               115.0215
 Red. masses --      6.2436                 2.0242                 4.9187
 Frc consts  --      0.0226                 0.0100                 0.0383
 IR Inten    --      0.3419                 0.4904                 3.2675

                      4                      5                      6
                      A                      A                      A
 Frequencies --    169.1896               222.7454               227.1949
 Red. masses --      1.5494                 1.8988                 4.8028
 Frc consts  --      0.0261                 0.0555                 0.1461
 IR Inten    --      5.0442                11.3498                 1.3098

                      7                      8                      9
                      A                      A                      A
 Frequencies --    367.4273               433.6756               562.4030
 Red. masses --      5.0069                 2.6566                 6.4585
 Frc consts  --      0.3983                 0.2944                 1.2036
 IR Inten    --      6.0223                 0.0322                24.8850

                     10                     11                     12
                      A                      A                      A
 Frequencies --    620.0079               659.8172               731.8927
 Red. masses --      3.5582                 6.1085                 3.9139
 Frc consts  --      0.8059                 1.5669                 1.2352
 IR Inten    --      9.8435                62.8549                55.7101

                     13                     14                     15
                      A                      A                      A
 Frequencies --    789.5050               933.9886               977.0377
 Red. masses --      1.3704                 9.7078                 2.3271
 Frc consts  --      0.5033                 4.9895                 1.3088
 IR Inten    --     11.4769                 2.1086                12.4587

                     16                     17                     18
                      A                      A                      A
 Frequencies --   1008.5284              1060.9761              1087.5538
 Red. masses --      1.8132                 2.2731                 1.5898
 Frc consts  --      1.0866                 1.5076                 1.1079
 IR Inten    --      0.6693                 8.8318                 0.0254

                     19                     20                     21
                      A                      A                      A
 Frequencies --   1120.1652              1225.7176              1259.7934
 Red. masses --      2.6741                 8.3021                 1.1900
 Frc consts  --      1.9770                 7.3489                 1.1127
 IR Inten    --     64.7138                 3.1990                 0.0092

                     22                     23                     24
                      A                      A                      A
 Frequencies --   1368.7363              1379.6648              1415.9678
 Red. masses --      1.8293                 1.2152                 1.2240
 Frc consts  --      2.0192                 1.3629                 1.4459
 IR Inten    --      2.3466                 9.0831                 3.7703

                     25                     26                     27
                      A                      A                      A
 Frequencies --   1441.7358              1493.0719              1500.3513
 Red. masses --      1.0953                 1.0371                 1.0555
 Frc consts  --      1.3413                 1.3622                 1.3999
 IR Inten    --     22.4400                 6.2114                 6.2602

                     28                     29                     30
                      A                      A                      A
 Frequencies --   1644.4629              1683.3682              1799.7555
 Red. masses --     10.5924                10.0552                10.4617
 Frc consts  --     16.8770                16.7880                19.9654
 IR Inten    --      6.6305                98.8143               126.4710

                     31                     32                     33
                      A                      A                      A
 Frequencies --   2928.9050              3011.1071              3032.4018
 Red. masses --      1.0855                 1.0605                 1.0968
 Frc consts  --      5.4864                 5.6651                 5.9423
 IR Inten    --     70.9846                 8.1611                 2.9271

                     34                     35                     36
                      A                      A                      A
 Frequencies --   3056.8211              3132.5180              3132.6146
 Red. masses --      1.0346                 1.1025                 1.1026
 Frc consts  --      5.6960                 6.3739                 6.3751
 IR Inten    --     15.6272                13.3746                13.7431

 - Thermochemistry -
 -------------------
 Temperature   298.150 Kelvin.  Pressure   1.00000 Atm.
 Atom     1 has atomic number  6 and mass  12.00000

 Molecular mass:   110.04801 amu.
 Principal axes and moments of inertia in atomic units:
                           1         2         3
     Eigenvalues --   250.436601716.219871944.55943
           X            0.99981   0.01925   0.00000
           Y           -0.01925   0.99981   0.00001
           Z           -0.00000  -0.00001   1.00000
 This molecule is an asymmetric top.
 Rotational symmetry number  1.
 Rotational temperatures (Kelvin)      0.34585     0.05047     0.04454
 Rotational constants (GHZ):           7.20638     1.05158     0.92810
 Zero-point vibrational energy     273730.9 (Joules/Mol)
                                   65.42324 (Kcal/Mol)
 Warning -- explicit consideration of  10 degrees of freedom as
           vibrations may cause significant error
 Vibrational temperatures:    112.87   131.87   165.49   243.43   320.48
          (Kelvin)            326.88   528.65   623.96   809.17   892.05
                              949.33  1053.03  1135.92  1343.80  1405.74
                             1451.05  1526.51  1564.75  1611.67  1763.53
                             1812.56  1969.31  1985.03  2037.26  2074.34
                             2148.20  2158.67  2366.02  2421.99  2589.45
                             4214.04  4332.31  4362.95  4398.08  4506.99
                             4507.13

 Zero-point correction=                           0.104259 (Hartree/Particle)
 Thermal correction to Energy=                    0.112520
 Thermal correction to Enthalpy=                  0.113464
 Thermal correction to Gibbs Free Energy=         0.070871
 Sum of electronic and zero-point Energies=           -378.660111
 Sum of electronic and thermal Energies=              -378.651849
 Sum of electronic and thermal Enthalpies=            -378.650905
 Sum of electronic and thermal Free Energies=         -378.693498

                     E (Thermal)             CV                S
                      KCal/Mol        Cal/Mol-Kelvin    Cal/Mol-Kelvin
 Total                   70.607             27.825             89.645
 Electronic               0.000              0.000              0.000
 Translational            0.889              2.981             40.003
 Rotational               0.889              2.981             28.215
 Vibrational             68.830             21.864             21.426
 Vibration     1          0.600              1.964              3.929
 Vibration     2          0.602              1.955              3.624
 Vibration     3          0.608              1.937              3.182
 Vibration     4          0.625              1.880              2.444
 Vibration     5          0.648              1.806              1.937
 Vibration     6          0.651              1.800              1.901
 Vibration     7          0.740              1.539              1.091
 Vibration     8          0.794              1.397              0.847
 Vibration     9          0.918              1.113              0.519
 Vibration    10          0.980              0.990              0.416

                           ! Non-Optimized Parameters !
 Normal termination of Gaussian 16 at Thu Aug  4 15:39:27 2022.
