 Gaussian 16, Revision A.03,
 Gaussian 16:  ES64L-G16RevA.03 25-Dec-2016

 -----------------------------
 # opt freq b3lyp/6-31g(2df,p)
 -----------------------------

 -------------------
 Title Card Required
 -------------------
 Symbolic Z-matrix:
 Charge =  0 Multiplicity = 1

 SCF Done:  E(RB3LYP) =  -403.310545143     A.U. after   14 cycles
 SCF Done:  E(RB3LYP) =  -403.320256479     A.U. after   13 cycles
 SCF Done:  E(RB3LYP) =  -403.321790603     A.U. after   12 cycles
 SCF Done:  E(RB3LYP) =  -403.322512999     A.U. after   13 cycles
 SCF Done:  E(RB3LYP) =  -403.324172826     A.U. after   12 cycles
 SCF Done:  E(RB3LYP) =  -403.324693768     A.U. after   12 cycles
 SCF Done:  E(RB3LYP) =  -403.324913822     A.U. after   12 cycles
 SCF Done:  E(RB3LYP) =  -403.324980780     A.U. after   11 cycles
 SCF Done:  E(RB3LYP) =  -403.325015315     A.U. after   10 cycles
 SCF Done:  E(RB3LYP) =  -403.325052974     A.U. after   10 cycles
 SCF Done:  E(RB3LYP) =  -403.325080956     A.U. after   10 cycles
 SCF Done:  E(RB3LYP) =  -403.325133759     A.U. after   10 cycles
 SCF Done:  E(RB3LYP) =  -403.325186314     A.U. after   11 cycles
 SCF Done:  E(RB3LYP) =  -403.325189574     A.U. after    8 cycles
 SCF Done:  E(RB3LYP) =  -403.325190598     A.U. after    7 cycles
 SCF Done:  E(RB3LYP) =  -403.325190942     A.U. after    7 cycles
 SCF Done:  E(RB3LYP) =  -403.325191044     A.U. after    7 cycles
 SCF Done:  E(RB3LYP) =  -403.325191061     A.U. after    6 cycles
 Optimization completed.
    -- Stationary point found.
 Normal termination of Gaussian 16 at Thu Aug  4 18:38:51 2022.

 ----------------------------------------------------------------------
 #N Geom=AllCheck Guess=TCheck SCRF=Check GenChk RB3LYP/6-31G(2df,p) Fr
 eq
 ----------------------------------------------------------------------

 Structure from the checkpoint file:  "CCC1dNCC1CpCpdO.chk"
 -------------------
 Title Card Required
 -------------------
 Charge =  0 Multiplicity = 1

                         Standard orientation:
 ---------------------------------------------------------------------
 Center     Atomic      Atomic             Coordinates (Angstroms)
 Number     Number       Type             X           Y           Z
 ---------------------------------------------------------------------
      1          6           0       -3.113843   -0.700271    0.105599
      2          6           0       -1.735737   -0.854863   -0.541872
      3          6           0       -0.799803    0.263621   -0.221299
      4          7           0       -1.027441    1.314462    0.490732
      5          6           0        0.349779    1.822337    0.227393
      6          6           0        0.638491    0.538360   -0.630443
      7          6           0        1.753535   -0.370644   -0.131835
      8          6           0        1.587856   -0.998991    1.241400
      9          8           0        2.732871   -0.575755   -0.811285
     10          1           0       -3.762823   -1.536810   -0.167036
     11          1           0       -3.591423    0.229268   -0.214080
     12          1           0       -3.031680   -0.665125    1.194994
     13          1           0       -1.823661   -0.920808   -1.635791
     14          1           0       -1.267181   -1.802462   -0.240173
     15          1           0        0.948712    1.947404    1.134448
     16          1           0        0.359801    2.757200   -0.339565
     17          1           0        0.807350    0.725585   -1.693686
     18          1           0        1.114885   -0.321028    1.956999
     19          1           0        2.559084   -1.329812    1.611201
     20          1           0        0.934381   -1.875899    1.154192
 ---------------------------------------------------------------------

 SCF Done:  E(RB3LYP) =  -403.325191061     A.U. after    1 cycles

 The electronic state is 1-A.
 Alpha  occ. eigenvalues --  -19.13200 -14.32477 -10.27637 -10.23640 -10.22389
 Alpha  occ. eigenvalues --  -10.20485 -10.20294 -10.19330 -10.18164  -1.04331
 Alpha  occ. eigenvalues --   -0.96378  -0.78683  -0.76502  -0.71659  -0.67753
 Alpha  occ. eigenvalues --   -0.62887  -0.55219  -0.50251  -0.49845  -0.48407
 Alpha  occ. eigenvalues --   -0.45990  -0.45013  -0.42634  -0.41966  -0.41148
 Alpha  occ. eigenvalues --   -0.39911  -0.38218  -0.37271  -0.36189  -0.35883
 Alpha  occ. eigenvalues --   -0.31885  -0.29567  -0.27345  -0.23883
 Alpha virt. eigenvalues --   -0.02211  -0.00371   0.07198   0.10009   0.10655
 Alpha virt. eigenvalues --    0.11806   0.13621   0.14374   0.15084   0.16508
 Alpha virt. eigenvalues --    0.17025   0.17634   0.18029   0.19418   0.20345

 Mulliken charges:
               1
     1  C   -0.370756
     2  C   -0.304711
     3  C    0.331638
     4  N   -0.246899
     5  C   -0.179387
     6  C   -0.231127
     7  C    0.389530
     8  C   -0.493416
     9  O   -0.305315
    10  H    0.113277
    11  H    0.136742
    12  H    0.133071
    13  H    0.124871
    14  H    0.118374
    15  H    0.117382
    16  H    0.125628
    17  H    0.103608
    18  H    0.144538
    19  H    0.145949
    20  H    0.147004
 Sum of Mulliken charges =  -0.00000

 Dipole moment (field-independent basis, Debye):
    X=             -1.2286    Y=             -0.7180    Z=              0.3295  Tot=              1.4607
 Quadrupole moment (field-independent basis, Debye-Ang):
   XX=            -63.0179   YY=            -52.9111   ZZ=            -53.8384
   XY=              5.6382   XZ=              6.9298   YZ=             -2.6688

  Exact polarizability:  90.853   1.359  80.337  -1.858   2.237  70.541
 Approx polarizability: 122.944  -3.231 122.110  -9.943  11.384 111.869

                      1                      2                      3
                      A                      A                      A
 Frequencies --     50.2236                56.2826               109.8662
 Red. masses --      4.8605                 2.1916                 1.0480
 Frc consts  --      0.0072                 0.0041                 0.0075
 IR Inten    --      4.7144                 0.6068                 0.0773

                      4                      5                      6
                      A                      A                      A
 Frequencies --    126.6009               155.0312               193.6223
 Red. masses --      2.2619                 4.2038                 1.5737
 Frc consts  --      0.0214                 0.0595                 0.0348
 IR Inten    --      0.7120                 9.5633                 1.2420

                      7                      8                      9
                      A                      A                      A
 Frequencies --    217.4988               290.0004               364.2566
 Red. masses --      2.0734                 2.1229                 4.0954
 Frc consts  --      0.0578                 0.1052                 0.3202
 IR Inten    --      3.0845                 1.7661                 3.8942

                     10                     11                     12
                      A                      A                      A
 Frequencies --    410.8233               491.6506               558.4092
 Red. masses --      2.9463                 5.0261                 2.4453
 Frc consts  --      0.2930                 0.7158                 0.4492
 IR Inten    --      1.6592                 6.8758                 5.5652

                     13                     14                     15
                      A                      A                      A
 Frequencies --    619.7361               689.2679               732.6805
 Red. masses --      2.5110                 3.0197                 2.3486
 Frc consts  --      0.5682                 0.8453                 0.7428
 IR Inten    --      1.6018                 0.3600                 2.5881

                     16                     17                     18
                      A                      A                      A
 Frequencies --    794.4342               885.2992               930.1100
 Red. masses --      1.3629                 2.5227                 1.8648
 Frc consts  --      0.5068                 1.1649                 0.9505
 IR Inten    --      1.3837                 2.5635                15.3298

                     19                     20                     21
                      A                      A                      A
 Frequencies --    943.8156               984.8516              1020.9458
 Red. masses --      2.7654                 3.0328                 2.5808
 Frc consts  --      1.4514                 1.7332                 1.5849
 IR Inten    --     12.6115                 9.0531                 1.7188

                     22                     23                     24
                      A                      A                      A
 Frequencies --   1023.9891              1069.2785              1078.5664
 Red. masses --      1.6195                 2.2153                 1.8734
 Frc consts  --      1.0005                 1.4924                 1.2840
 IR Inten    --      1.6386                 4.9083                 1.7194

                     25                     26                     27
                      A                      A                      A
 Frequencies --   1088.2431              1128.8736              1169.3103
 Red. masses --      1.6424                 1.2269                 1.7205
 Frc consts  --      1.1460                 0.9212                 1.3860
 IR Inten    --      0.8944                 8.4787                 9.0688

                     28                     29                     30
                      A                      A                      A
 Frequencies --   1219.9644              1232.3033              1262.5953
 Red. masses --      1.6365                 2.8417                 1.4128
 Frc consts  --      1.4350                 2.5425                 1.3270
 IR Inten    --     11.9302                85.2988                10.9915

                     31                     32                     33
                      A                      A                      A
 Frequencies --   1279.0497              1298.7736              1385.1467
 Red. masses --      1.3067                 1.5459                 1.3054
 Frc consts  --      1.2595                 1.5364                 1.4756
 IR Inten    --      5.5763                 7.8220                33.0308

                     34                     35                     36
                      A                      A                      A
 Frequencies --   1398.3918              1414.1517              1457.1792
 Red. masses --      2.1789                 1.2300                 1.0671
 Frc consts  --      2.5104                 1.4493                 1.3350
 IR Inten    --      6.0455                 2.2021                 8.5026

                     37                     38                     39
                      A                      A                      A
 Frequencies --   1463.8283              1473.4566              1488.0178
 Red. masses --      1.0742                 1.0702                 1.0978
 Frc consts  --      1.3562                 1.3690                 1.4322
 IR Inten    --      8.8895                 8.8139                 1.3055

                     40                     41                     42
                      A                      A                      A
 Frequencies --   1492.4142              1500.7846              1677.9115
 Red. masses --      1.0380                 1.0653                 8.6693
 Frc consts  --      1.3622                 1.4137                14.3804
 IR Inten    --      5.2698                 7.5685                42.8315

                     43                     44                     45
                      A                      A                      A
 Frequencies --   1804.4623              3010.6751              3031.8651
 Red. masses --     10.9031                 1.0603                 1.0976
 Frc consts  --     20.9168                 5.6625                 5.9443
 IR Inten    --    191.2372                16.3712                11.8762

                     46                     47                     48
                      A                      A                      A
 Frequencies --   3038.0530              3051.5788              3053.2370
 Red. masses --      1.0412                 1.0353                 1.0561
 Frc consts  --      5.6623                 5.6800                 5.8007
 IR Inten    --      2.7264                25.0341                33.4936

                     49                     50                     51
                      A                      A                      A
 Frequencies --   3086.5593              3104.2296              3108.1757
 Red. masses --      1.0872                 1.0939                 1.1060
 Frc consts  --      6.1023                 6.2106                 6.2955
 IR Inten    --      5.3092                 6.4413                21.5262

                     52                     53                     54
                      A                      A                      A
 Frequencies --   3123.9506              3127.6904              3154.3395
 Red. masses --      1.1024                 1.1018                 1.1034
 Frc consts  --      6.3386                 6.3501                 6.4685
 IR Inten    --     21.6785                17.6536                 8.5078

 - Thermochemistry -
 -------------------
 Temperature   298.150 Kelvin.  Pressure   1.00000 Atm.
 Atom     1 has atomic number  6 and mass  12.00000

 Molecular mass:   125.08406 amu.
 Principal axes and moments of inertia in atomic units:
                           1         2         3
     Eigenvalues --   658.697321707.630841950.43806
           X            0.99929   0.03169   0.02037
           Y           -0.03064   0.99829  -0.04972
           Z           -0.02191   0.04906   0.99856
 This molecule is an asymmetric top.
 Rotational symmetry number  1.
 Warning -- assumption of classical behavior for rotation
           may cause significant error
 Rotational temperatures (Kelvin)      0.13149     0.05072     0.04441
 Rotational constants (GHZ):           2.73986     1.05687     0.92530
 Zero-point vibrational energy     442154.5 (Joules/Mol)
                                  105.67745 (Kcal/Mol)
 Warning -- explicit consideration of  13 degrees of freedom as
           vibrations may cause significant error
 Vibrational temperatures:     72.26    80.98   158.07   182.15   223.06
          (Kelvin)            278.58   312.93   417.25   524.08   591.08
                              707.38   803.43   891.66   991.70  1054.16
                             1143.01  1273.75  1338.22  1357.94  1416.98
                             1468.91  1473.29  1538.45  1551.82  1565.74
                             1624.20  1682.38  1755.26  1773.01  1816.59
                             1840.27  1868.65  1992.92  2011.97  2034.65
                             2096.56  2106.12  2119.98  2140.93  2147.25
                             2159.29  2414.14  2596.22  4331.69  4362.18
                             4371.08  4390.54  4392.93  4440.87  4466.29
                             4471.97  4494.67  4500.05  4538.39

 Zero-point correction=                           0.168408 (Hartree/Particle)
 Thermal correction to Energy=                    0.178481
 Thermal correction to Enthalpy=                  0.179425
 Thermal correction to Gibbs Free Energy=         0.132293
 Sum of electronic and zero-point Energies=           -403.156783
 Sum of electronic and thermal Energies=              -403.146710
 Sum of electronic and thermal Enthalpies=            -403.145766
 Sum of electronic and thermal Free Energies=         -403.192898

                     E (Thermal)             CV                S
                      KCal/Mol        Cal/Mol-Kelvin    Cal/Mol-Kelvin
 Total                  111.998             35.308             99.197
 Electronic               0.000              0.000              0.000
 Translational            0.889              2.981             40.385
 Rotational               0.889              2.981             29.174
 Vibrational            110.221             29.346             29.637
 Vibration     1          0.595              1.978              4.809
 Vibration     2          0.596              1.975              4.583
 Vibration     3          0.606              1.941              3.271
 Vibration     4          0.611              1.927              2.997
 Vibration     5          0.620              1.897              2.610
 Vibration     6          0.635              1.849              2.193
 Vibration     7          0.646              1.814              1.980
 Vibration     8          0.686              1.692              1.474
 Vibration     9          0.738              1.546              1.104
 Vibration    10          0.775              1.447              0.924
 Vibration    11          0.847              1.269              0.679
 Vibration    12          0.914              1.121              0.527
 Vibration    13          0.980              0.990              0.417

                           ! Non-Optimized Parameters !
 Normal termination of Gaussian 16 at Thu Aug  4 19:13:51 2022.
