 Gaussian 16, Revision A.03,
 Gaussian 16:  ES64L-G16RevA.03 25-Dec-2016

 -----------------------------
 # opt freq b3lyp/6-31g(2df,p)
 -----------------------------

 -------------------
 Title Card Required
 -------------------
 Symbolic Z-matrix:
 Charge =  0 Multiplicity = 1

 SCF Done:  E(RB3LYP) =  -367.365775166     A.U. after   14 cycles
 SCF Done:  E(RB3LYP) =  -367.384836525     A.U. after   12 cycles
 SCF Done:  E(RB3LYP) =  -367.385854353     A.U. after   12 cycles
 SCF Done:  E(RB3LYP) =  -367.384536369     A.U. after   12 cycles
 SCF Done:  E(RB3LYP) =  -367.386058517     A.U. after   11 cycles
 SCF Done:  E(RB3LYP) =  -367.386043016     A.U. after   11 cycles
 SCF Done:  E(RB3LYP) =  -367.386076930     A.U. after   10 cycles
 SCF Done:  E(RB3LYP) =  -367.386080319     A.U. after    9 cycles
 SCF Done:  E(RB3LYP) =  -367.386081593     A.U. after    9 cycles
 SCF Done:  E(RB3LYP) =  -367.386084174     A.U. after   10 cycles
 SCF Done:  E(RB3LYP) =  -367.386118788     A.U. after    8 cycles
 SCF Done:  E(RB3LYP) =  -367.386118828     A.U. after    8 cycles
 SCF Done:  E(RB3LYP) =  -367.386118856     A.U. after    7 cycles
 SCF Done:  E(RB3LYP) =  -367.386118910     A.U. after    7 cycles
 SCF Done:  E(RB3LYP) =  -367.386118979     A.U. after    7 cycles
 SCF Done:  E(RB3LYP) =  -367.386119028     A.U. after    6 cycles
 SCF Done:  E(RB3LYP) =  -367.386119060     A.U. after    8 cycles
 SCF Done:  E(RB3LYP) =  -367.386119066     A.U. after    7 cycles
 SCF Done:  E(RB3LYP) =  -367.386119067     A.U. after    6 cycles
 Optimization completed.
    -- Stationary point found.
 Normal termination of Gaussian 16 at Sun Jul  3 10:44:34 2022.

 ----------------------------------------------------------------------
 #N Geom=AllCheck Guess=TCheck SCRF=Check GenChk RB3LYP/6-31G(2df,p) Fr
 eq
 ----------------------------------------------------------------------

 Structure from the checkpoint file:  "CCCCtCCpCpdNC.chk"
 -------------------
 Title Card Required
 -------------------
 Charge =  0 Multiplicity = 1

                         Standard orientation:
 ---------------------------------------------------------------------
 Center     Atomic      Atomic             Coordinates (Angstroms)
 Number     Number       Type             X           Y           Z
 ---------------------------------------------------------------------
      1          6           0        4.534697   -0.414817   -0.000043
      2          6           0        3.020034   -0.628494   -0.000145
      3          6           0        2.241534    0.703209    0.000167
      4          6           0        0.795330    0.528258    0.000089
      5          6           0       -0.396009    0.331043    0.000050
      6          6           0       -1.821158    0.178717   -0.000007
      7          6           0       -2.629121    1.466748   -0.000129
      8          7           0       -2.314201   -1.002015    0.000050
      9          6           0       -3.759962   -1.143649    0.000027
     10          1           0        5.067248   -1.370416   -0.000274
     11          1           0        4.857814    0.146028    0.884225
     12          1           0        4.857869    0.146486   -0.884000
     13          1           0        2.719448   -1.212814    0.876254
     14          1           0        2.719505   -1.212373   -0.876857
     15          1           0        2.535981    1.298808   -0.875208
     16          1           0        2.535941    1.298369    0.875857
     17          1           0       -1.981463    2.343558   -0.000100
     18          1           0       -3.279985    1.511162    0.880576
     19          1           0       -3.279817    1.511103   -0.880962
     20          1           0       -4.015837   -2.205813   -0.000053
     21          1           0       -4.224687   -0.682964   -0.884093
     22          1           0       -4.224684   -0.683107    0.884225
 ---------------------------------------------------------------------

 SCF Done:  E(RB3LYP) =  -367.386119067     A.U. after    1 cycles

 The electronic state is 1-A.
 Alpha  occ. eigenvalues --  -14.31045 -10.23728 -10.20666 -10.19787 -10.18700
 Alpha  occ. eigenvalues --  -10.18692 -10.17994 -10.17756 -10.16933  -0.91368
 Alpha  occ. eigenvalues --   -0.80683  -0.76240  -0.73087  -0.69644  -0.67584
 Alpha  occ. eigenvalues --   -0.60092  -0.57504  -0.48114  -0.47012  -0.46624
 Alpha  occ. eigenvalues --   -0.44849  -0.44472  -0.41777  -0.40141  -0.39940
 Alpha  occ. eigenvalues --   -0.39148  -0.38396  -0.36379  -0.34962  -0.33816
 Alpha  occ. eigenvalues --   -0.31551  -0.25544  -0.23908  -0.23827
 Alpha virt. eigenvalues --   -0.02452   0.05454   0.09283   0.09735   0.11488
 Alpha virt. eigenvalues --    0.13479   0.13633   0.14400   0.14593   0.14938
 Alpha virt. eigenvalues --    0.16439   0.17260   0.18771   0.18946   0.20256

 Mulliken charges:
               1
     1  C   -0.382268
     2  C   -0.153313
     3  C   -0.349347
     4  C    0.178804
     5  C    0.005894
     6  C    0.134730
     7  C   -0.483375
     8  N   -0.235252
     9  C   -0.327064
    10  H    0.116737
    11  H    0.115549
    12  H    0.115549
    13  H    0.114211
    14  H    0.114207
    15  H    0.128682
    16  H    0.128685
    17  H    0.133839
    18  H    0.140372
    19  H    0.140376
    20  H    0.125694
    21  H    0.118641
    22  H    0.118650
 Sum of Mulliken charges =   0.00000

 Dipole moment (field-independent basis, Debye):
    X=              0.2141    Y=              1.6902    Z=             -0.0001  Tot=              1.7037
 Quadrupole moment (field-independent basis, Debye-Ang):
   XX=            -44.6079   YY=            -56.5412   ZZ=            -55.3555
   XY=             -1.9245   XZ=              0.0004   YZ=              0.0001

  Exact polarizability: 152.111  12.313  84.633   0.001  -0.000  64.635
 Approx polarizability: 194.759  28.664 128.401   0.002  -0.001  98.375

                      1                      2                      3
                      A                      A                      A
 Frequencies --      6.7799                46.5575                57.1746
 Red. masses --      2.1653                 1.0447                 3.9127
 Frc consts  --      0.0001                 0.0013                 0.0075
 IR Inten    --      0.9701                 0.0006                 1.6700

                      4                      5                      6
                      A                      A                      A
 Frequencies --     66.0729               105.4334               144.3358
 Red. masses --      2.0594                 1.2320                 2.1714
 Frc consts  --      0.0053                 0.0081                 0.0267
 IR Inten    --      1.3049                 1.7672                 2.7783

                      7                      8                      9
                      A                      A                      A
 Frequencies --    162.3283               240.9459               281.1319
 Red. masses --      3.9814                 1.0803                 2.7792
 Frc consts  --      0.0618                 0.0370                 0.1294
 IR Inten    --      1.0869                 0.0086                 0.3158

                     10                     11                     12
                      A                      A                      A
 Frequencies --    290.6560               309.6283               418.2621
 Red. masses --      3.3320                 2.7927                 4.7187
 Frc consts  --      0.1659                 0.1577                 0.4864
 IR Inten    --      0.0106                 1.4160                 4.5510

                     13                     14                     15
                      A                      A                      A
 Frequencies --    420.5964               505.8289               583.7084
 Red. masses --      4.4065                 3.8235                 3.2323
 Frc consts  --      0.4593                 0.5764                 0.6489
 IR Inten    --      2.7285                 0.7165                 1.4444

                     16                     17                     18
                      A                      A                      A
 Frequencies --    589.6299               714.5196               740.4559
 Red. masses --      7.3873                 3.2039                 1.1090
 Frc consts  --      1.5132                 0.9637                 0.3582
 IR Inten    --      1.0670                 6.9022                 2.6726

                     19                     20                     21
                      A                      A                      A
 Frequencies --    869.1609               882.3951               936.4256
 Red. masses --      1.2367                 2.0771                 2.8344
 Frc consts  --      0.5505                 0.9529                 1.4644
 IR Inten    --      0.2201                 1.7604                 2.1177

                     22                     23                     24
                      A                      A                      A
 Frequencies --   1024.5839              1034.4563              1052.9904
 Red. masses --      1.5522                 2.4938                 2.0395
 Frc consts  --      0.9601                 1.5723                 1.3324
 IR Inten    --      1.5425                 0.3889                 0.7787

                     25                     26                     27
                      A                      A                      A
 Frequencies --   1070.3798              1090.6539              1109.0066
 Red. masses --      4.7551                 1.4019                 2.0516
 Frc consts  --      3.2098                 0.9825                 1.4866
 IR Inten    --     31.1742                 1.2837                 0.8592

                     28                     29                     30
                      A                      A                      A
 Frequencies --   1119.1346              1148.9872              1257.0426
 Red. masses --      1.4486                 1.5302                 1.3053
 Frc consts  --      1.0690                 1.1902                 1.2152
 IR Inten    --      0.1216                22.9764                 0.0458

                     31                     32                     33
                      A                      A                      A
 Frequencies --   1286.3802              1311.7981              1321.9140
 Red. masses --      2.1815                 1.9623                 1.0807
 Frc consts  --      2.1268                 1.9895                 1.1126
 IR Inten    --     15.9455                74.9569                 0.0028

                     34                     35                     36
                      A                      A                      A
 Frequencies --   1382.1472              1387.5681              1413.1587
 Red. masses --      1.5217                 1.2271                 1.2370
 Frc consts  --      1.7127                 1.3920                 1.4555
 IR Inten    --      4.0844                13.4562                 0.5651

                     37                     38                     39
                      A                      A                      A
 Frequencies --   1425.1444              1466.7741              1475.3245
 Red. masses --      1.1521                 1.0840                 1.0747
 Frc consts  --      1.3787                 1.3740                 1.3783
 IR Inten    --     26.2475                 2.6926                10.4506

                     40                     41                     42
                      A                      A                      A
 Frequencies --   1482.0540              1483.1002              1491.3638
 Red. masses --      1.0453                 1.0756                 1.0540
 Frc consts  --      1.3527                 1.3939                 1.3812
 IR Inten    --      1.8038                 5.6750                 0.6725

                     43                     44                     45
                      A                      A                      A
 Frequencies --   1499.1954              1507.0604              1508.4095
 Red. masses --      1.0399                 1.0463                 1.0788
 Frc consts  --      1.3771                 1.4001                 1.4462
 IR Inten    --      5.4637                10.4614                 3.7362

                     46                     47                     48
                      A                      A                      A
 Frequencies --   1684.0348              2341.2288              2983.6565
 Red. masses --      9.1742                11.9275                 1.0395
 Frc consts  --     15.3292                38.5199                 5.4521
 IR Inten    --    102.5249                61.4071                55.4568

                     49                     50                     51
                      A                      A                      A
 Frequencies --   3005.5910              3029.1548              3031.6637
 Red. masses --      1.0580                 1.0365                 1.0999
 Frc consts  --      5.6313                 5.6036                 5.9560
 IR Inten    --     19.5495                28.4767                 6.5003

                     52                     53                     54
                      A                      A                      A
 Frequencies --   3032.9167              3032.9753              3045.2283
 Red. masses --      1.0385                 1.1000                 1.0594
 Frc consts  --      5.6285                 5.9618                 5.7885
 IR Inten    --      6.8719                33.8796                22.2694

                     55                     56                     57
                      A                      A                      A
 Frequencies --   3075.3250              3088.2094              3100.8921
 Red. masses --      1.1022                 1.0988                 1.1037
 Frc consts  --      6.1419                 6.1741                 6.2526
 IR Inten    --      0.5609                 8.8281                55.4808

                     58                     59                     60
                      A                      A                      A
 Frequencies --   3104.2921              3106.4106              3145.9557
 Red. masses --      1.0955                 1.1003                 1.0994
 Frc consts  --      6.2200                 6.2556                 6.4105
 IR Inten    --     36.6606                32.0759                11.4495

 - Thermochemistry -
 -------------------
 Temperature   298.150 Kelvin.  Pressure   1.00000 Atm.
 Atom     1 has atomic number  6 and mass  12.00000

 Molecular mass:   123.10480 amu.
 Principal axes and moments of inertia in atomic units:
                           1         2         3
     Eigenvalues --   376.414683500.505513821.14917
           X            0.99998  -0.00616   0.00000
           Y            0.00616   0.99998  -0.00000
           Z           -0.00000   0.00000   1.00000
 This molecule is an asymmetric top.
 Rotational symmetry number  1.
 Rotational temperatures (Kelvin)      0.23010     0.02474     0.02267
 Rotational constants (GHZ):           4.79456     0.51557     0.47230
 Zero-point vibrational energy     499609.5 (Joules/Mol)
                                  119.40954 (Kcal/Mol)
 Warning -- explicit consideration of  16 degrees of freedom as
           vibrations may cause significant error
 Vibrational temperatures:      9.75    66.99    82.26    95.06   151.70
          (Kelvin)            207.67   233.55   346.67   404.49   418.19
                              445.49   601.79   605.14   727.77   839.83
                              848.35  1028.03  1065.35  1250.53  1269.57
                             1347.31  1474.15  1488.35  1515.02  1540.04
                             1569.21  1595.61  1610.19  1653.14  1808.60
                             1850.81  1887.38  1901.94  1988.60  1996.40
                             2033.22  2050.46  2110.36  2122.66  2132.35
                             2133.85  2145.74  2157.01  2168.32  2170.26
                             2422.95  3368.51  4292.82  4324.38  4358.28
                             4361.89  4363.69  4363.78  4381.40  4424.71
                             4443.24  4461.49  4466.38  4469.43  4526.33

 Zero-point correction=                           0.190291 (Hartree/Particle)
 Thermal correction to Energy=                    0.202143
 Thermal correction to Enthalpy=                  0.203087
 Thermal correction to Gibbs Free Energy=         0.149461
 Sum of electronic and zero-point Energies=           -367.195828
 Sum of electronic and thermal Energies=              -367.183976
 Sum of electronic and thermal Enthalpies=            -367.183032
 Sum of electronic and thermal Free Energies=         -367.236658

                     E (Thermal)             CV                S
                      KCal/Mol        Cal/Mol-Kelvin    Cal/Mol-Kelvin
 Total                  126.846             39.817            112.866
 Electronic               0.000              0.000              0.000
 Translational            0.889              2.981             40.338
 Rotational               0.889              2.981             30.000
 Vibrational            125.069             33.855             42.529
 Vibration     1          0.593              1.987              8.783
 Vibration     2          0.595              1.979              4.959
 Vibration     3          0.596              1.975              4.552
 Vibration     4          0.597              1.970              4.267
 Vibration     5          0.605              1.945              3.351
 Vibration     6          0.616              1.909              2.746
 Vibration     7          0.622              1.889              2.522
 Vibration     8          0.658              1.778              1.796
 Vibration     9          0.681              1.709              1.527
 Vibration    10          0.687              1.691              1.470
 Vibration    11          0.699              1.655              1.364
 Vibration    12          0.781              1.431              0.898
 Vibration    13          0.783              1.425              0.890
 Vibration    14          0.861              1.237              0.644
 Vibration    15          0.941              1.067              0.479
 Vibration    16          0.947              1.054              0.468

 Optimization completed.
    -- Stationary point found.
 Normal termination of Gaussian 16 at Sun Jul  3 11:07:55 2022.
