 Gaussian 16, Revision A.03,
 Gaussian 16:  ES64L-G16RevA.03 25-Dec-2016

 -----------------------------
 # opt freq b3lyp/6-31g(2df,p)
 -----------------------------

 -------------------
 Title Card Required
 -------------------
 Symbolic Z-matrix:
 Charge =  0 Multiplicity = 1

 SCF Done:  E(RB3LYP) =  -405.786641770     A.U. after   13 cycles
 SCF Done:  E(RB3LYP) =  -405.792023016     A.U. after   12 cycles
 SCF Done:  E(RB3LYP) =  -405.795469468     A.U. after   11 cycles
 SCF Done:  E(RB3LYP) =  -405.798163190     A.U. after   12 cycles
 SCF Done:  E(RB3LYP) =  -405.798663452     A.U. after   12 cycles
 SCF Done:  E(RB3LYP) =  -405.799710931     A.U. after   11 cycles
 SCF Done:  E(RB3LYP) =  -405.800098956     A.U. after   12 cycles
 SCF Done:  E(RB3LYP) =  -405.800657095     A.U. after   13 cycles
 SCF Done:  E(RB3LYP) =  -405.800976900     A.U. after   13 cycles
 SCF Done:  E(RB3LYP) =  -405.801110456     A.U. after   12 cycles
 SCF Done:  E(RB3LYP) =  -405.801866154     A.U. after   11 cycles
 SCF Done:  E(RB3LYP) =  -405.801880014     A.U. after   10 cycles
 SCF Done:  E(RB3LYP) =  -405.801784811     A.U. after   10 cycles
 SCF Done:  E(RB3LYP) =  -405.801882692     A.U. after   10 cycles
 SCF Done:  E(RB3LYP) =  -405.801815190     A.U. after   10 cycles
 SCF Done:  E(RB3LYP) =  -405.801885530     A.U. after   10 cycles
 SCF Done:  E(RB3LYP) =  -405.801886778     A.U. after    8 cycles
 SCF Done:  E(RB3LYP) =  -405.801887233     A.U. after    7 cycles
 SCF Done:  E(RB3LYP) =  -405.801887263     A.U. after    6 cycles
 Optimization completed.
    -- Stationary point found.
 Normal termination of Gaussian 16 at Thu Aug  4 19:02:29 2022.

 ----------------------------------------------------------------------
 #N Geom=AllCheck Guess=TCheck SCRF=Check GenChk RB3LYP/6-31G(2df,p) Fr
 eq
 ----------------------------------------------------------------------

 Structure from the checkpoint file:  "CCCCpCCpNCdO.chk"
 -------------------
 Title Card Required
 -------------------
 Charge =  0 Multiplicity = 1

                         Standard orientation:
 ---------------------------------------------------------------------
 Center     Atomic      Atomic             Coordinates (Angstroms)
 Number     Number       Type             X           Y           Z
 ---------------------------------------------------------------------
      1          6           0        3.160265   -1.655160   -0.097725
      2          6           0        2.036417   -0.806558    0.503036
      3          6           0        0.895195   -0.547690   -0.491200
      4          6           0       -0.267396    0.312502    0.067906
      5          6           0       -0.158839    1.812511   -0.275828
      6          6           0        1.106352    2.517482    0.220193
      7          7           0       -1.559176   -0.193436   -0.384703
      8          6           0       -2.570909   -0.619104    0.417334
      9          8           0       -3.649032   -1.016323    0.032183
     10          1           0        3.952050   -1.842423    0.633964
     11          1           0        3.615591   -1.156750   -0.960775
     12          1           0        2.784109   -2.626102   -0.438427
     13          1           0        2.448357    0.142210    0.864201
     14          1           0        1.626705   -1.314345    1.386136
     15          1           0        0.482646   -1.514263   -0.801162
     16          1           0        1.296009   -0.079480   -1.400783
     17          1           0       -0.278353    0.206739    1.160689
     18          1           0       -1.042007    2.311713    0.138520
     19          1           0       -0.232170    1.919870   -1.367011
     20          1           0        1.223438    2.415383    1.304704
     21          1           0        1.059265    3.586775   -0.006909
     22          1           0        2.010151    2.123044   -0.253327
     23          1           0       -1.753607   -0.206607   -1.377236
     24          1           0       -2.292190   -0.565011    1.490586
 ---------------------------------------------------------------------

 SCF Done:  E(RB3LYP) =  -405.801887263     A.U. after    1 cycles

 The electronic state is 1-A.
 Alpha  occ. eigenvalues --  -19.09729 -14.35050 -10.27048 -10.23361 -10.19319
 Alpha  occ. eigenvalues --  -10.18983 -10.18945 -10.18584 -10.18023  -1.02391
 Alpha  occ. eigenvalues --   -0.92491  -0.80757  -0.77473  -0.71711  -0.66154
 Alpha  occ. eigenvalues --   -0.62156  -0.60269  -0.58614  -0.50233  -0.48651
 Alpha  occ. eigenvalues --   -0.46415  -0.45651  -0.43342  -0.42205  -0.40852
 Alpha  occ. eigenvalues --   -0.39947  -0.38694  -0.38311  -0.37217  -0.36593
 Alpha  occ. eigenvalues --   -0.34721  -0.34243  -0.33699  -0.32474  -0.24710
 Alpha  occ. eigenvalues --   -0.24521
 Alpha virt. eigenvalues --    0.03623   0.07451   0.08235   0.09622   0.10968
 Alpha virt. eigenvalues --    0.11975   0.13056   0.14373   0.15255   0.15752
 Alpha virt. eigenvalues --    0.15993   0.17178   0.17758   0.17804   0.18652

 Mulliken charges:
               1
     1  C   -0.381427
     2  C   -0.168966
     3  C   -0.184636
     4  C    0.011803
     5  C   -0.169348
     6  C   -0.389023
     7  N   -0.245070
     8  C    0.150532
     9  O   -0.336387
    10  H    0.115241
    11  H    0.115310
    12  H    0.118312
    13  H    0.103803
    14  H    0.099785
    15  H    0.105446
    16  H    0.094215
    17  H    0.089347
    18  H    0.106380
    19  H    0.095669
    20  H    0.118816
    21  H    0.119349
    22  H    0.124007
    23  H    0.243834
    24  H    0.063008
 Sum of Mulliken charges =  -0.00000

 Dipole moment (field-independent basis, Debye):
    X=              3.9596    Y=              1.5568    Z=             -0.1352  Tot=              4.2568
 Quadrupole moment (field-independent basis, Debye-Ang):
   XX=            -75.2649   YY=            -57.7848   ZZ=            -54.0633
   XY=             -5.6733   XZ=              0.0262   YZ=             -0.4088

  Exact polarizability: 105.254   4.723  83.695  -0.351  -0.626  76.323
 Approx polarizability: 137.862  11.746 111.223  -0.409  -1.109 118.768

                      1                      2                      3
                      A                      A                      A
 Frequencies --     34.5251                62.1822                77.1869
 Red. masses --      4.7792                 1.7695                 2.5980
 Frc consts  --      0.0034                 0.0040                 0.0091
 IR Inten    --      1.6851                 0.6143                 0.1975

                      4                      5                      6
                      A                      A                      A
 Frequencies --    118.2245               131.8745               158.1840
 Red. masses --      2.1298                 2.0334                 2.3060
 Frc consts  --      0.0175                 0.0208                 0.0340
 IR Inten    --      0.6195                 0.3251                 1.2730

                      7                      8                      9
                      A                      A                      A
 Frequencies --    240.1256               243.9828               264.3865
 Red. masses --      1.9550                 1.2449                 1.4107
 Frc consts  --      0.0664                 0.0437                 0.0581
 IR Inten    --      0.1465                 0.0081                 0.7483

                     10                     11                     12
                      A                      A                      A
 Frequencies --    292.7428               340.0164               378.7014
 Red. masses --      2.2665                 4.1133                 3.3484
 Frc consts  --      0.1144                 0.2802                 0.2829
 IR Inten    --      4.7444                 0.4091                 0.9861

                     13                     14                     15
                      A                      A                      A
 Frequencies --    428.0754               502.8379               615.4523
 Red. masses --      3.2030                 2.4649                 1.3368
 Frc consts  --      0.3458                 0.3672                 0.2983
 IR Inten    --      0.3471                 2.4207                98.9787

                     16                     17                     18
                      A                      A                      A
 Frequencies --    657.6249               737.8294               782.5262
 Red. masses --      3.6386                 1.1280                 1.2314
 Frc consts  --      0.9271                 0.3618                 0.4443
 IR Inten    --     21.3561                 5.5318                 2.9922

                     19                     20                     21
                      A                      A                      A
 Frequencies --    842.0183               899.1141               909.6640
 Red. masses --      1.5278                 1.5489                 1.6607
 Frc consts  --      0.6382                 0.7377                 0.8097
 IR Inten    --      0.7654                 0.7068                 6.0437

                     22                     23                     24
                      A                      A                      A
 Frequencies --    986.6824              1034.4165              1048.1269
 Red. masses --      2.1687                 1.4922                 1.5455
 Frc consts  --      1.2440                 0.9407                 1.0003
 IR Inten    --      3.4256                 3.8924                 0.3420

                     25                     26                     27
                      A                      A                      A
 Frequencies --   1050.1749              1054.7908              1076.4689
 Red. masses --      2.6879                 2.2171                 2.0256
 Frc consts  --      1.7466                 1.4534                 1.3830
 IR Inten    --      0.5295                 0.7785                 1.7874

                     28                     29                     30
                      A                      A                      A
 Frequencies --   1142.7935              1162.8195              1182.4686
 Red. masses --      2.2234                 2.8835                 1.9746
 Frc consts  --      1.7108                 2.2972                 1.6267
 IR Inten    --      1.7814                30.5962                 1.4016

                     31                     32                     33
                      A                      A                      A
 Frequencies --   1256.2952              1274.9942              1292.2875
 Red. masses --      1.3649                 1.9890                 1.2450
 Frc consts  --      1.2692                 1.9051                 1.2250
 IR Inten    --      1.4849               114.9416                 3.9360

                     34                     35                     36
                      A                      A                      A
 Frequencies --   1303.0112              1327.1280              1333.3750
 Red. masses --      1.5377                 1.2182                 1.0891
 Frc consts  --      1.5382                 1.2642                 1.1408
 IR Inten    --     52.0083                 5.6674                 0.7142

                     37                     38                     39
                      A                      A                      A
 Frequencies --   1357.7719              1375.5853              1394.7965
 Red. masses --      1.2982                 1.4493                 1.4361
 Frc consts  --      1.4101                 1.6158                 1.6461
 IR Inten    --      2.9682                 1.1877                 1.1455

                     40                     41                     42
                      A                      A                      A
 Frequencies --   1413.4655              1413.8925              1431.2199
 Red. masses --      1.2344                 1.2412                 1.2071
 Frc consts  --      1.4530                 1.4619                 1.4568
 IR Inten    --      1.6313                 0.9481                18.0974

                     43                     44                     45
                      A                      A                      A
 Frequencies --   1482.9434              1484.8376              1487.8342
 Red. masses --      1.0781                 1.3170                 1.2831
 Frc consts  --      1.3968                 1.7107                 1.6735
 IR Inten    --      0.7777                17.1821                12.6318

                     46                     47                     48
                      A                      A                      A
 Frequencies --   1496.0115              1499.4870              1502.5365
 Red. masses --      1.0704                 1.0409                 1.0580
 Frc consts  --      1.4114                 1.3789                 1.4073
 IR Inten    --      2.5339                 6.2389                 5.0309

                     49                     50                     51
                      A                      A                      A
 Frequencies --   1507.9575              1513.7927              1815.8330
 Red. masses --      1.0688                 1.0778                 7.4806
 Frc consts  --      1.4320                 1.4552                14.5324
 IR Inten    --      8.0038                 2.5601               529.0127

                     52                     53                     54
                      A                      A                      A
 Frequencies --   2914.5548              3011.2453              3012.3971
 Red. masses --      1.0827                 1.0641                 1.0687
 Frc consts  --      5.4188                 5.6852                 5.7140
 IR Inten    --     73.9567                 1.7684                10.9304

                     55                     56                     57
                      A                      A                      A
 Frequencies --   3022.2834              3029.3415              3031.9722
 Red. masses --      1.0682                 1.0482                 1.0582
 Frc consts  --      5.7487                 5.6677                 5.7314
 IR Inten    --      5.4359                25.5542                52.9729

                     58                     59                     60
                      A                      A                      A
 Frequencies --   3035.7175              3054.2748              3063.2077
 Red. masses --      1.0400                 1.0935                 1.0972
 Frc consts  --      5.6468                 6.0100                 6.0659
 IR Inten    --     33.3215                 1.0468                20.5681

                     61                     62                     63
                      A                      A                      A
 Frequencies --   3073.6010              3098.4797              3101.8328
 Red. masses --      1.0997                 1.1023                 1.1009
 Frc consts  --      6.1211                 6.2349                 6.2407
 IR Inten    --     22.1783                64.0572                23.9482

                     64                     65                     66
                      A                      A                      A
 Frequencies --   3104.4231              3111.2282              3590.9606
 Red. masses --      1.1008                 1.1010                 1.0751
 Frc consts  --      6.2508                 6.2790                 8.1682
 IR Inten    --     38.5006                35.2602                15.4426

 - Thermochemistry -
 -------------------
 Temperature   298.150 Kelvin.  Pressure   1.00000 Atm.
 Atom     1 has atomic number  6 and mass  12.00000

 Molecular mass:   129.11536 amu.
 Principal axes and moments of inertia in atomic units:
                           1         2         3
     Eigenvalues --   923.607062183.982912908.99346
           X            0.99950  -0.03157  -0.00016
           Y            0.03157   0.99950   0.00341
           Z            0.00005  -0.00341   0.99999
 This molecule is an asymmetric top.
 Rotational symmetry number  1.
 Warning -- assumption of classical behavior for rotation
           may cause significant error
 Rotational temperatures (Kelvin)      0.09378     0.03966     0.02977
 Rotational constants (GHZ):           1.95401     0.82635     0.62040
 Zero-point vibrational energy     566291.8 (Joules/Mol)
                                  135.34698 (Kcal/Mol)
 Warning -- explicit consideration of  15 degrees of freedom as
           vibrations may cause significant error
 Vibrational temperatures:     49.67    89.47   111.05   170.10   189.74
          (Kelvin)            227.59   345.49   351.04   380.39   421.19
                              489.21   544.87   615.91   723.47   885.50
                              946.18  1061.57  1125.88  1211.48  1293.62
                             1308.80  1419.62  1488.29  1508.02  1510.97
                             1517.61  1548.80  1644.22  1673.04  1701.31
                             1807.53  1834.43  1859.31  1874.74  1909.44
                             1918.43  1953.53  1979.16  2006.80  2033.66
                             2034.28  2059.21  2133.62  2136.35  2140.66
                             2152.43  2157.43  2161.81  2169.61  2178.01
                             2612.58  4193.39  4332.51  4334.17  4348.39
                             4358.55  4362.33  4367.72  4394.42  4407.27
                             4422.23  4458.02  4462.85  4466.57  4476.36
                             5166.59

 Zero-point correction=                           0.215689 (Hartree/Particle)
 Thermal correction to Energy=                    0.227123
 Thermal correction to Enthalpy=                  0.228067
 Thermal correction to Gibbs Free Energy=         0.177558
 Sum of electronic and zero-point Energies=           -405.586198
 Sum of electronic and thermal Energies=              -405.574765
 Sum of electronic and thermal Enthalpies=            -405.573820
 Sum of electronic and thermal Free Energies=         -405.624329

                     E (Thermal)             CV                S
                      KCal/Mol        Cal/Mol-Kelvin    Cal/Mol-Kelvin
 Total                  142.522             40.166            106.305
 Electronic               0.000              0.000              0.000
 Translational            0.889              2.981             40.480
 Rotational               0.889              2.981             30.152
 Vibrational            140.744             34.204             35.674
 Vibration     1          0.594              1.983              5.551
 Vibration     2          0.597              1.972              4.387
 Vibration     3          0.599              1.964              3.961
 Vibration     4          0.608              1.934              3.129
 Vibration     5          0.612              1.921              2.919
 Vibration     6          0.621              1.893              2.571
 Vibration     7          0.657              1.779              1.802
 Vibration     8          0.659              1.773              1.774
 Vibration     9          0.671              1.738              1.633
 Vibration    10          0.688              1.687              1.458
 Vibration    11          0.720              1.596              1.212
 Vibration    12          0.749              1.516              1.044
 Vibration    13          0.790              1.409              0.865
 Vibration    14          0.858              1.244              0.651
 Vibration    15          0.975              0.999              0.424

 Optimization completed.
    -- Stationary point found.
 Normal termination of Gaussian 16 at Thu Aug  4 19:40:42 2022.
