 Gaussian 16, Revision A.03,
 Gaussian 16:  ES64L-G16RevA.03 25-Dec-2016

 -----------------------------
 # opt freq b3lyp/6-31g(2df,p)
 -----------------------------

 -------------------
 Title Card Required
 -------------------
 Symbolic Z-matrix:
 Charge =  0 Multiplicity = 1

 SCF Done:  E(RB3LYP) =  -462.681843334     A.U. after   13 cycles
 SCF Done:  E(RB3LYP) =  -462.685246165     A.U. after   11 cycles
 SCF Done:  E(RB3LYP) =  -462.685722481     A.U. after   11 cycles
 SCF Done:  E(RB3LYP) =  -462.686049024     A.U. after   12 cycles
 SCF Done:  E(RB3LYP) =  -462.685423438     A.U. after   14 cycles
 SCF Done:  E(RB3LYP) =  -462.686686967     A.U. after   11 cycles
 SCF Done:  E(RB3LYP) =  -462.686917358     A.U. after   12 cycles
 SCF Done:  E(RB3LYP) =  -462.687057025     A.U. after   10 cycles
 SCF Done:  E(RB3LYP) =  -462.687065538     A.U. after    9 cycles
 SCF Done:  E(RB3LYP) =  -462.687068673     A.U. after    8 cycles
 SCF Done:  E(RB3LYP) =  -462.687069815     A.U. after    8 cycles
 SCF Done:  E(RB3LYP) =  -462.687069989     A.U. after    7 cycles
 SCF Done:  E(RB3LYP) =  -462.687070019     A.U. after    6 cycles
 Optimization completed.
    -- Stationary point found.
 Normal termination of Gaussian 16 at Fri Aug  5 10:30:22 2022.

 ----------------------------------------------------------------------
 #N Geom=AllCheck Guess=TCheck SCRF=Check GenChk RB3LYP/6-31G(2df,p) Fr
 eq
 ----------------------------------------------------------------------

 Structure from the checkpoint file:  "CCCCpCpCpOpOO.chk"
 -------------------
 Title Card Required
 -------------------
 Charge =  0 Multiplicity = 1

                         Standard orientation:
 ---------------------------------------------------------------------
 Center     Atomic      Atomic             Coordinates (Angstroms)
 Number     Number       Type             X           Y           Z
 ---------------------------------------------------------------------
      1          6           0       -3.877920   -0.536069    0.168668
      2          6           0       -2.657270    0.228308   -0.352679
      3          6           0       -1.347766   -0.253449    0.283173
      4          6           0       -0.080816    0.437118   -0.256822
      5          6           0       -0.004901    1.920373    0.133048
      6          6           0        1.172227   -0.324639    0.224131
      7          8           0        1.149885   -1.693741   -0.061221
      8          8           0        2.262986    0.317267   -0.408507
      9          8           0        3.484640   -0.179405    0.189553
     10          1           0       -4.801052   -0.183079   -0.301553
     11          1           0       -3.988169   -0.413497    1.251910
     12          1           0       -3.788700   -1.609205   -0.033176
     13          1           0       -2.799004    1.299767   -0.168044
     14          1           0       -2.592170    0.113661   -1.443204
     15          1           0       -1.248541   -1.332357    0.126206
     16          1           0       -1.396453   -0.108127    1.372246
     17          1           0       -0.086671    0.362365   -1.355157
     18          1           0        0.027144    2.031784    1.223834
     19          1           0       -0.878677    2.468845   -0.228120
     20          1           0        0.886745    2.394168   -0.281548
     21          1           0        1.284232   -0.257578    1.313447
     22          1           0        1.162269   -1.786179   -1.022058
     23          1           0        3.817633    0.636605    0.589493
 ---------------------------------------------------------------------

 SCF Done:  E(RB3LYP) =  -462.687070019     A.U. after    1 cycles

 The electronic state is 1-A.
 Alpha  occ. eigenvalues --  -19.19445 -19.18921 -19.14130 -10.27536 -10.19244
 Alpha  occ. eigenvalues --  -10.17987 -10.17653 -10.17475 -10.17229  -1.12162
 Alpha  occ. eigenvalues --   -1.02810  -0.90601  -0.80775  -0.75545  -0.67851
 Alpha  occ. eigenvalues --   -0.65874  -0.59917  -0.57714  -0.53346  -0.49039
 Alpha  occ. eigenvalues --   -0.48378  -0.46127  -0.45440  -0.42997  -0.41227
 Alpha  occ. eigenvalues --   -0.40336  -0.38689  -0.38147  -0.36892  -0.35165
 Alpha  occ. eigenvalues --   -0.34167  -0.32832  -0.32385  -0.31948  -0.30401
 Alpha  occ. eigenvalues --   -0.27630  -0.26921
 Alpha virt. eigenvalues --    0.02980   0.08162   0.08607   0.09612   0.11521
 Alpha virt. eigenvalues --    0.11820   0.13957   0.15678   0.16198   0.16888
 Alpha virt. eigenvalues --    0.17261   0.17730   0.18702   0.19652   0.20809

 Mulliken charges:
               1
     1  C   -0.379430
     2  C   -0.176495
     3  C   -0.163138
     4  C   -0.039990
     5  C   -0.400903
     6  C    0.243030
     7  O   -0.400123
     8  O   -0.203251
     9  O   -0.314876
    10  H    0.110648
    11  H    0.114448
    12  H    0.115450
    13  H    0.098059
    14  H    0.092659
    15  H    0.108566
    16  H    0.089219
    17  H    0.073423
    18  H    0.111108
    19  H    0.118290
    20  H    0.127612
    21  H    0.085410
    22  H    0.279909
    23  H    0.310376
 Sum of Mulliken charges =  -0.00000

 Dipole moment (field-independent basis, Debye):
    X=             -0.7132    Y=              1.5674    Z=              0.0513  Tot=              1.7227
 Quadrupole moment (field-independent basis, Debye-Ang):
   XX=            -56.2520   YY=            -57.6786   ZZ=            -53.6420
   XY=              4.7549   XZ=              2.9376   YZ=              3.7721

  Exact polarizability: 100.743   2.070  74.981   2.582   1.460  68.359
 Approx polarizability: 119.008  -0.610 107.673   4.172   1.099 107.360

                      1                      2                      3
                      A                      A                      A
 Frequencies --     50.0055                59.8462                88.3371
 Red. masses --      3.2512                 1.9333                 3.0274
 Frc consts  --      0.0048                 0.0041                 0.0139
 IR Inten    --      0.2900                 0.1922                 0.5661

                      4                      5                      6
                      A                      A                      A
 Frequencies --    125.3195               143.8049               198.3407
 Red. masses --      3.4423                 3.6638                 1.1905
 Frc consts  --      0.0319                 0.0446                 0.0276
 IR Inten    --      2.5288                 3.1689                 1.6126

                      7                      8                      9
                      A                      A                      A
 Frequencies --    213.6952               245.9382               259.9029
 Red. masses --      1.1714                 1.1294                 2.8514
 Frc consts  --      0.0315                 0.0402                 0.1135
 IR Inten    --     94.2111                 0.1395                 7.3712

                     10                     11                     12
                      A                      A                      A
 Frequencies --    283.7086               309.0886               323.5116
 Red. masses --      2.1227                 1.7133                 3.1480
 Frc consts  --      0.1007                 0.0964                 0.1941
 IR Inten    --      8.0618                56.5719                17.4263

                     13                     14                     15
                      A                      A                      A
 Frequencies --    337.4784               425.6869               464.8670
 Red. masses --      2.5143                 2.8156                 3.5168
 Frc consts  --      0.1687                 0.3006                 0.4478
 IR Inten    --     19.0743                 6.2779                 4.3860

                     16                     17                     18
                      A                      A                      A
 Frequencies --    568.3379               613.8272               744.5602
 Red. masses --      2.9206                 4.2760                 1.1157
 Frc consts  --      0.5558                 0.9493                 0.3644
 IR Inten    --      7.6279                41.6597                 2.6013

                     19                     20                     21
                      A                      A                      A
 Frequencies --    851.7410               877.4712               898.7446
 Red. masses --      1.5846                 1.6889                 1.7450
 Frc consts  --      0.6773                 0.7662                 0.8304
 IR Inten    --      4.8967                 1.3723                 8.7054

                     22                     23                     24
                      A                      A                      A
 Frequencies --    942.4143               944.1682              1003.0910
 Red. masses --      2.5924                 3.8343                 2.1257
 Frc consts  --      1.3565                 2.0139                 1.2602
 IR Inten    --      3.3938                34.1374                20.8956

                     25                     26                     27
                      A                      A                      A
 Frequencies --   1012.4056              1037.5991              1073.7777
 Red. masses --      1.9128                 2.7539                 2.5691
 Frc consts  --      1.1551                 1.7469                 1.7453
 IR Inten    --     17.3607                12.8477                28.8879

                     28                     29                     30
                      A                      A                      A
 Frequencies --   1097.1402              1135.6280              1161.0724
 Red. masses --      2.4356                 1.8932                 2.9512
 Frc consts  --      1.7274                 1.4385                 2.3440
 IR Inten    --     93.6968                 2.5198                29.0475

                     31                     32                     33
                      A                      A                      A
 Frequencies --   1187.7093              1240.4077              1273.6758
 Red. masses --      1.8270                 1.4207                 1.3312
 Frc consts  --      1.5185                 1.2879                 1.2724
 IR Inten    --      2.2288                 4.1187                 3.1021

                     34                     35                     36
                      A                      A                      A
 Frequencies --   1313.8401              1325.7117              1332.0327
 Red. masses --      1.3371                 1.2136                 1.1988
 Frc consts  --      1.3599                 1.2567                 1.2532
 IR Inten    --      1.2417                10.6138                 3.9623

                     37                     38                     39
                      A                      A                      A
 Frequencies --   1355.1275              1379.3978              1390.3214
 Red. masses --      1.3359                 1.4467                 1.1364
 Frc consts  --      1.4454                 1.6219                 1.2943
 IR Inten    --      5.8621                 7.9054                50.8121

                     40                     41                     42
                      A                      A                      A
 Frequencies --   1394.9458              1408.9205              1413.8786
 Red. masses --      1.5156                 1.2370                 1.2386
 Frc consts  --      1.7376                 1.4468                 1.4588
 IR Inten    --      5.3294                 2.4871                 1.3975

                     43                     44                     45
                      A                      A                      A
 Frequencies --   1437.1227              1484.8070              1495.4629
 Red. masses --      1.2031                 1.0668                 1.0635
 Frc consts  --      1.4640                 1.3858                 1.4013
 IR Inten    --     54.6586                 0.1916                 1.0774

                     46                     47                     48
                      A                      A                      A
 Frequencies --   1498.1082              1499.5412              1505.2939
 Red. masses --      1.0499                 1.0424                 1.0552
 Frc consts  --      1.3883                 1.3810                 1.4087
 IR Inten    --      4.0163                 3.8616                 1.6139

                     49                     50                     51
                      A                      A                      A
 Frequencies --   1513.9148              2990.0081              3005.7783
 Red. masses --      1.0801                 1.0797                 1.0677
 Frc consts  --      1.4585                 5.6874                 5.6833
 IR Inten    --      6.8418                 6.4467                 3.9473

                     52                     53                     54
                      A                      A                      A
 Frequencies --   3018.9568              3029.3460              3033.3930
 Red. masses --      1.0633                 1.0357                 1.0466
 Frc consts  --      5.7100                 5.6001                 5.6743
 IR Inten    --     40.3239                35.5129                 8.6135

                     55                     56                     57
                      A                      A                      A
 Frequencies --   3044.1268              3049.2914              3079.6320
 Red. masses --      1.0822                 1.0934                 1.0955
 Frc consts  --      5.9086                 5.9900                 6.1216
 IR Inten    --     44.3111                16.7537                14.6157

                     58                     59                     60
                      A                      A                      A
 Frequencies --   3097.2348              3101.5125              3104.6755
 Red. masses --      1.1019                 1.1008                 1.0944
 Frc consts  --      6.2279                 6.2389                 6.2151
 IR Inten    --     62.8683                23.0122                41.7996

                     61                     62                     63
                      A                      A                      A
 Frequencies --   3132.6550              3754.9277              3785.4092
 Red. masses --      1.1005                 1.0686                 1.0651
 Frc consts  --      6.3630                 8.8767                 8.9920
 IR Inten    --     21.4191                32.9893                22.6892

 - Thermochemistry -
 -------------------
 Temperature   298.150 Kelvin.  Pressure   1.00000 Atm.
 Atom     1 has atomic number  6 and mass  12.00000

 Molecular mass:   134.09429 amu.
 Principal axes and moments of inertia in atomic units:
                           1         2         3
     Eigenvalues --   524.179672537.730322918.91402
           X            0.99994   0.01072   0.00229
           Y           -0.01075   0.99984   0.01444
           Z           -0.00213  -0.01446   0.99989
 This molecule is an asymmetric top.
 Rotational symmetry number  1.
 Warning -- assumption of classical behavior for rotation
           may cause significant error
 Rotational temperatures (Kelvin)      0.16524     0.03413     0.02967
 Rotational constants (GHZ):           3.44298     0.71116     0.61829
 Zero-point vibrational energy     527365.8 (Joules/Mol)
                                  126.04345 (Kcal/Mol)
 Warning -- explicit consideration of  17 degrees of freedom as
           vibrations may cause significant error
 Vibrational temperatures:     71.95    86.11   127.10   180.31   206.90
          (Kelvin)            285.37   307.46   353.85   373.94   408.19
                              444.71   465.46   485.56   612.47   668.84
                              817.71   883.16  1071.26  1225.47  1262.49
                             1293.09  1355.92  1358.45  1443.22  1456.63
                             1492.87  1544.93  1578.54  1633.92  1670.52
                             1708.85  1784.67  1832.54  1890.32  1907.40
                             1916.50  1949.73  1984.65  2000.36  2007.02
                             2027.12  2034.26  2067.70  2136.31  2151.64
                             2155.44  2157.51  2165.78  2178.19  4301.95
                             4324.64  4343.61  4358.55  4364.38  4379.82
                             4387.25  4430.90  4456.23  4462.38  4466.94
                             4507.19  5402.50  5446.36

 Zero-point correction=                           0.200863 (Hartree/Particle)
 Thermal correction to Energy=                    0.212716
 Thermal correction to Enthalpy=                  0.213660
 Thermal correction to Gibbs Free Energy=         0.163083
 Sum of electronic and zero-point Energies=           -462.486207
 Sum of electronic and thermal Energies=              -462.474354
 Sum of electronic and thermal Enthalpies=            -462.473410
 Sum of electronic and thermal Free Energies=         -462.523987

                     E (Thermal)             CV                S
                      KCal/Mol        Cal/Mol-Kelvin    Cal/Mol-Kelvin
 Total                  133.481             41.866            106.448
 Electronic               0.000              0.000              0.000
 Translational            0.889              2.981             40.592
 Rotational               0.889              2.981             29.741
 Vibrational            131.704             35.905             36.114
 Vibration     1          0.595              1.978              4.817
 Vibration     2          0.597              1.973              4.462
 Vibration     3          0.601              1.957              3.697
 Vibration     4          0.610              1.928              3.017
 Vibration     5          0.616              1.909              2.753
 Vibration     6          0.637              1.842              2.148
 Vibration     7          0.644              1.820              2.012
 Vibration     8          0.660              1.770              1.760
 Vibration     9          0.668              1.746              1.662
 Vibration    10          0.682              1.704              1.511
 Vibration    11          0.698              1.656              1.367
 Vibration    12          0.708              1.628              1.292
 Vibration    13          0.718              1.601              1.224
 Vibration    14          0.788              1.414              0.873
 Vibration    15          0.822              1.328              0.752
 Vibration    16          0.924              1.100              0.507
 Vibration    17          0.973              1.003              0.426

 Optimization completed.
    -- Stationary point found.
 Normal termination of Gaussian 16 at Fri Aug  5 11:04:49 2022.
