 Gaussian 16, Revision A.03,
 Gaussian 16:  ES64L-G16RevA.03 25-Dec-2016

 -----------------------------
 # opt freq b3lyp/6-31g(2df,p)
 -----------------------------

 -------------------
 Title Card Required
 -------------------
 Symbolic Z-matrix:
 Charge =  0 Multiplicity = 1

 SCF Done:  E(RB3LYP) =  -367.407887235     A.U. after   13 cycles
 SCF Done:  E(RB3LYP) =  -367.414749802     A.U. after   11 cycles
 SCF Done:  E(RB3LYP) =  -367.416237620     A.U. after   10 cycles
 SCF Done:  E(RB3LYP) =  -367.418132939     A.U. after   11 cycles
 SCF Done:  E(RB3LYP) =  -367.419787601     A.U. after   13 cycles
 SCF Done:  E(RB3LYP) =  -367.420852838     A.U. after   10 cycles
 SCF Done:  E(RB3LYP) =  -367.421419338     A.U. after   11 cycles
 SCF Done:  E(RB3LYP) =  -367.421530349     A.U. after   10 cycles
 SCF Done:  E(RB3LYP) =  -367.421553099     A.U. after    9 cycles
 SCF Done:  E(RB3LYP) =  -367.421567923     A.U. after    9 cycles
 SCF Done:  E(RB3LYP) =  -367.421571861     A.U. after    8 cycles
 SCF Done:  E(RB3LYP) =  -367.421572185     A.U. after    7 cycles
 SCF Done:  E(RB3LYP) =  -367.421572234     A.U. after    6 cycles
 Optimization completed.
    -- Stationary point found.
 Normal termination of Gaussian 16 at Thu Aug  4 03:31:29 2022.

 ----------------------------------------------------------------------
 #N Geom=AllCheck Guess=TCheck SCRF=Check GenChk RB3LYP/6-31G(2df,p) Fr
 eq
 ----------------------------------------------------------------------

 Structure from the checkpoint file:  "CCCC1CC1CCtN.chk"
 -------------------
 Title Card Required
 -------------------
 Charge =  0 Multiplicity = 1

                         Standard orientation:
 ---------------------------------------------------------------------
 Center     Atomic      Atomic             Coordinates (Angstroms)
 Number     Number       Type             X           Y           Z
 ---------------------------------------------------------------------
      1          6           0       -3.410007    0.995606   -0.216393
      2          6           0       -1.973947    0.715616    0.233212
      3          6           0       -1.562975   -0.751583    0.050007
      4          6           0       -0.137023   -1.026667    0.478532
      5          6           0        0.632804   -2.208319   -0.060772
      6          6           0        1.006033   -0.807471   -0.479376
      7          6           0        2.315221   -0.199876   -0.000682
      8          6           0        2.276204    1.264402    0.014076
      9          7           0        2.226426    2.418969    0.013291
     10          1           0       -3.675407    2.046783   -0.068661
     11          1           0       -4.128228    0.388199    0.345962
     12          1           0       -3.544944    0.764974   -1.279203
     13          1           0       -1.859571    0.990720    1.289859
     14          1           0       -1.277655    1.357368   -0.320605
     15          1           0       -1.684784   -1.038463   -1.003668
     16          1           0       -2.246228   -1.396996    0.619073
     17          1           0        0.074045   -0.770741    1.515433
     18          1           0        0.150083   -2.842887   -0.796663
     19          1           0        1.300978   -2.738398    0.610582
     20          1           0        0.732720   -0.516952   -1.489996
     21          1           0        3.149134   -0.516870   -0.638803
     22          1           0        2.547013   -0.549770    1.012030
 ---------------------------------------------------------------------

 SCF Done:  E(RB3LYP) =  -367.421572234     A.U. after    1 cycles

 The electronic state is 1-A.
 Alpha  occ. eigenvalues --  -14.32331 -10.23681 -10.21677 -10.21072 -10.20033
 Alpha  occ. eigenvalues --  -10.19624 -10.18605 -10.17909 -10.17241  -0.89949
 Alpha  occ. eigenvalues --   -0.87869  -0.78861  -0.76535  -0.69290  -0.60212
 Alpha  occ. eigenvalues --   -0.59795  -0.57636  -0.52292  -0.48835  -0.47987
 Alpha  occ. eigenvalues --   -0.45447  -0.44352  -0.41436  -0.39398  -0.38549
 Alpha  occ. eigenvalues --   -0.37785  -0.35480  -0.34865  -0.33833  -0.32934
 Alpha  occ. eigenvalues --   -0.32211  -0.32146  -0.29424  -0.28537
 Alpha virt. eigenvalues --    0.03538   0.04276   0.08621   0.09270   0.09357
 Alpha virt. eigenvalues --    0.11227   0.12613   0.13617   0.14214   0.15381
 Alpha virt. eigenvalues --    0.16505   0.16993   0.17529   0.18330   0.18740

 Mulliken charges:
               1
     1  C   -0.381545
     2  C   -0.160410
     3  C   -0.199578
     4  C    0.017165
     5  C   -0.331058
     6  C    0.014310
     7  C   -0.366460
     8  C    0.266616
     9  N   -0.311020
    10  H    0.115875
    11  H    0.112359
    12  H    0.112654
    13  H    0.097170
    14  H    0.112379
    15  H    0.090210
    16  H    0.096506
    17  H    0.085928
    18  H    0.116958
    19  H    0.111482
    20  H    0.101382
    21  H    0.151666
    22  H    0.147414
 Sum of Mulliken charges =  -0.00000

 Dipole moment (field-independent basis, Debye):
    X=             -0.4364    Y=             -3.7719    Z=              0.0146  Tot=              3.7971
 Quadrupole moment (field-independent basis, Debye-Ang):
   XX=            -55.3757   YY=            -65.7799   ZZ=            -53.9438
   XY=             -8.4283   XZ=              0.3085   YZ=             -0.0720

  Exact polarizability:  93.433  -1.313  96.966  -0.180   0.245  70.226
 Approx polarizability: 114.899  -0.557 145.460  -1.673  -0.062 110.393

                      1                      2                      3
                      A                      A                      A
 Frequencies --     50.4693                70.1699                89.8540
 Red. masses --      4.8103                 2.3950                 2.2330
 Frc consts  --      0.0072                 0.0069                 0.0106
 IR Inten    --      3.6564                 3.1789                 1.0467

                      4                      5                      6
                      A                      A                      A
 Frequencies --    104.4622               175.3639               244.6115
 Red. masses --      2.6411                 3.3615                 1.1334
 Frc consts  --      0.0170                 0.0609                 0.0400
 IR Inten    --      1.5127                 2.7563                 0.0463

                      7                      8                      9
                      A                      A                      A
 Frequencies --    276.7512               288.3273               346.3736
 Red. masses --      2.1323                 3.3142                 3.2059
 Frc consts  --      0.0962                 0.1623                 0.2266
 IR Inten    --      0.6558                 2.2544                 0.3054

                     10                     11                     12
                      A                      A                      A
 Frequencies --    393.8263               423.3214               442.9455
 Red. masses --      3.4574                 2.4138                 3.0610
 Frc consts  --      0.3159                 0.2549                 0.3539
 IR Inten    --      0.8515                 0.4449                 0.9130

                     13                     14                     15
                      A                      A                      A
 Frequencies --    561.9307               741.2846               783.7596
 Red. masses --      4.7006                 1.1566                 2.0660
 Frc consts  --      0.8745                 0.3745                 0.7477
 IR Inten    --      0.2951                 2.3062                 2.3588

                     16                     17                     18
                      A                      A                      A
 Frequencies --    817.1179               856.3386               892.6277
 Red. masses --      1.4468                 1.3847                 1.4944
 Frc consts  --      0.5692                 0.5983                 0.7015
 IR Inten    --      3.3518                 2.3615                 1.2867

                     19                     20                     21
                      A                      A                      A
 Frequencies --    902.9089               937.7634               959.3286
 Red. masses --      2.1853                 2.3847                 2.4860
 Frc consts  --      1.0497                 1.2356                 1.3480
 IR Inten    --      0.8811                 3.1980                 6.2471

                     22                     23                     24
                      A                      A                      A
 Frequencies --    984.6413              1043.6676              1047.6107
 Red. masses --      2.3868                 2.3747                 1.5349
 Frc consts  --      1.3634                 1.5240                 0.9925
 IR Inten    --      2.0979                 2.5624                 3.3028

                     25                     26                     27
                      A                      A                      A
 Frequencies --   1062.2388              1091.4526              1120.8499
 Red. masses --      1.4339                 2.0785                 1.1849
 Frc consts  --      0.9533                 1.4588                 0.8771
 IR Inten    --      2.0479                 0.7129                 1.2575

                     28                     29                     30
                      A                      A                      A
 Frequencies --   1134.1628              1150.7503              1202.0249
 Red. masses --      1.8527                 1.6257                 1.9150
 Frc consts  --      1.4041                 1.2684                 1.6302
 IR Inten    --      0.9074                 0.7243                 0.2694

                     31                     32                     33
                      A                      A                      A
 Frequencies --   1225.9331              1248.2653              1274.8784
 Red. masses --      1.4748                 1.3960                 1.3581
 Frc consts  --      1.3059                 1.2816                 1.3005
 IR Inten    --      0.2990                 1.0744                 3.4444

                     34                     35                     36
                      A                      A                      A
 Frequencies --   1302.3221              1319.3447              1331.7025
 Red. masses --      1.2982                 1.3353                 1.1163
 Frc consts  --      1.2973                 1.3694                 1.1664
 IR Inten    --     10.4577                 4.2302                 0.7765

                     37                     38                     39
                      A                      A                      A
 Frequencies --   1364.8207              1393.2821              1412.7401
 Red. masses --      1.3193                 1.5141                 1.2389
 Frc consts  --      1.4479                 1.7317                 1.4569
 IR Inten    --      1.3728                 1.0575                 0.4716

                     40                     41                     42
                      A                      A                      A
 Frequencies --   1441.5166              1464.5578              1482.2504
 Red. masses --      1.5523                 1.0894                 1.0753
 Frc consts  --      1.9005                 1.3767                 1.3920
 IR Inten    --      0.6699                 5.6035                 1.0257

                     43                     44                     45
                      A                      A                      A
 Frequencies --   1493.2143              1499.1937              1500.9864
 Red. masses --      1.0749                 1.2424                 1.2233
 Frc consts  --      1.4121                 1.6453                 1.6238
 IR Inten    --      1.1499                 3.5998                 3.7707

                     46                     47                     48
                      A                      A                      A
 Frequencies --   1510.2261              2361.0205              3004.8597
 Red. masses --      1.0842                12.6075                 1.0585
 Frc consts  --      1.4569                41.4074                 5.6309
 IR Inten    --      3.7797                 7.7710                16.8899

                     49                     50                     51
                      A                      A                      A
 Frequencies --   3022.1051              3028.6020              3033.6385
 Red. masses --      1.0620                 1.0379                 1.0937
 Frc consts  --      5.7148                 5.6093                 5.9305
 IR Inten    --     22.3248                43.6970                 9.7611

                     52                     53                     54
                      A                      A                      A
 Frequencies --   3034.7171              3059.5354              3071.5615
 Red. masses --      1.0616                 1.1023                 1.1008
 Frc consts  --      5.7601                 6.0794                 6.1188
 IR Inten    --      9.6359                19.3081                 4.1675

                     55                     56                     57
                      A                      A                      A
 Frequencies --   3094.2013              3103.6667              3121.3757
 Red. masses --      1.1022                 1.1006                 1.0828
 Frc consts  --      6.2176                 6.2465                 6.2154
 IR Inten    --     52.3942                30.9039                16.8933

                     58                     59                     60
                      A                      A                      A
 Frequencies --   3127.5667              3147.8381              3210.9202
 Red. masses --      1.0595                 1.0882                 1.1159
 Frc consts  --      6.1063                 6.3530                 6.7785
 IR Inten    --     13.1876                 9.6666                10.2376

 - Thermochemistry -
 -------------------
 Temperature   298.150 Kelvin.  Pressure   1.00000 Atm.
 Atom     1 has atomic number  6 and mass  12.00000

 Molecular mass:   123.10480 amu.
 Principal axes and moments of inertia in atomic units:
                           1         2         3
     Eigenvalues --   895.871181867.833872629.73014
           X            0.99793  -0.06425   0.00400
           Y            0.06425   0.99793  -0.00027
           Z           -0.00398   0.00053   0.99999
 This molecule is an asymmetric top.
 Rotational symmetry number  1.
 Warning -- assumption of classical behavior for rotation
           may cause significant error
 Rotational temperatures (Kelvin)      0.09668     0.04637     0.03294
 Rotational constants (GHZ):           2.01451     0.96622     0.68628
 Zero-point vibrational energy     507717.7 (Joules/Mol)
                                  121.34745 (Kcal/Mol)
 Warning -- explicit consideration of  13 degrees of freedom as
           vibrations may cause significant error
 Vibrational temperatures:     72.61   100.96   129.28   150.30   252.31
          (Kelvin)            351.94   398.18   414.84   498.35   566.63
                              609.07   637.30   808.49  1066.54  1127.66
                             1175.65  1232.08  1284.29  1299.08  1349.23
                             1380.26  1416.68  1501.60  1507.28  1528.32
                             1570.36  1612.65  1631.81  1655.67  1729.45
                             1763.84  1795.98  1834.27  1873.75  1898.24
                             1916.02  1963.67  2004.62  2032.62  2074.02
                             2107.17  2132.63  2148.40  2157.01  2159.58
                             2172.88  3396.98  4323.32  4348.14  4357.48
                             4364.73  4366.28  4401.99  4419.29  4451.87
                             4465.48  4490.96  4499.87  4529.04  4619.80

 Zero-point correction=                           0.193379 (Hartree/Particle)
 Thermal correction to Energy=                    0.203606
 Thermal correction to Enthalpy=                  0.204550
 Thermal correction to Gibbs Free Energy=         0.157025
 Sum of electronic and zero-point Energies=           -367.228193
 Sum of electronic and thermal Energies=              -367.217967
 Sum of electronic and thermal Enthalpies=            -367.217022
 Sum of electronic and thermal Free Energies=         -367.264548

                     E (Thermal)             CV                S
                      KCal/Mol        Cal/Mol-Kelvin    Cal/Mol-Kelvin
 Total                  127.764             36.783            100.025
 Electronic               0.000              0.000              0.000
 Translational            0.889              2.981             40.338
 Rotational               0.889              2.981             29.866
 Vibrational            125.987             30.821             29.822
 Vibration     1          0.595              1.977              4.799
 Vibration     2          0.598              1.968              4.149
 Vibration     3          0.602              1.956              3.663
 Vibration     4          0.605              1.946              3.369
 Vibration     5          0.627              1.873              2.377
 Vibration     6          0.660              1.772              1.769
 Vibration     7          0.678              1.716              1.554
 Vibration     8          0.685              1.695              1.484
 Vibration     9          0.724              1.583              1.183
 Vibration    10          0.761              1.483              0.986
 Vibration    11          0.785              1.420              0.881
 Vibration    12          0.803              1.376              0.817
 Vibration    13          0.918              1.114              0.520

 Optimization completed.
    -- Stationary point found.
 Normal termination of Gaussian 16 at Thu Aug  4 04:01:26 2022.
