 Gaussian 16, Revision A.03,
 Gaussian 16:  ES64L-G16RevA.03 25-Dec-2016

 -----------------------------
 # opt freq b3lyp/6-31g(2df,p)
 -----------------------------

 -------------------
 Title Card Required
 -------------------
 Symbolic Z-matrix:
 Charge =  0 Multiplicity = 1

 SCF Done:  E(RB3LYP) =  -405.797586964     A.U. after   13 cycles
 SCF Done:  E(RB3LYP) =  -405.800603355     A.U. after   11 cycles
 SCF Done:  E(RB3LYP) =  -405.801112064     A.U. after   11 cycles
 SCF Done:  E(RB3LYP) =  -405.801218140     A.U. after   10 cycles
 SCF Done:  E(RB3LYP) =  -405.801283374     A.U. after   12 cycles
 SCF Done:  E(RB3LYP) =  -405.801455181     A.U. after   10 cycles
 SCF Done:  E(RB3LYP) =  -405.802007508     A.U. after   13 cycles
 SCF Done:  E(RB3LYP) =  -405.802603210     A.U. after   12 cycles
 SCF Done:  E(RB3LYP) =  -405.803621161     A.U. after   12 cycles
 SCF Done:  E(RB3LYP) =  -405.803987911     A.U. after   13 cycles
 SCF Done:  E(RB3LYP) =  -405.804207854     A.U. after   12 cycles
 SCF Done:  E(RB3LYP) =  -405.804328068     A.U. after   10 cycles
 SCF Done:  E(RB3LYP) =  -405.804476382     A.U. after   12 cycles
 SCF Done:  E(RB3LYP) =  -405.804499721     A.U. after   10 cycles
 SCF Done:  E(RB3LYP) =  -405.804504409     A.U. after    9 cycles
 SCF Done:  E(RB3LYP) =  -405.804505028     A.U. after    7 cycles
 SCF Done:  E(RB3LYP) =  -405.804505098     A.U. after    7 cycles
 Optimization completed.
    -- Stationary point found.
 Normal termination of Gaussian 16 at Thu Aug  4 02:05:45 2022.

 ----------------------------------------------------------------------
 #N Geom=AllCheck Guess=TCheck SCRF=Check GenChk RB3LYP/6-31G(2df,p) Fr
 eq
 ----------------------------------------------------------------------

 Structure from the checkpoint file:  "CCCCpCpCNCdO.chk"
 -------------------
 Title Card Required
 -------------------
 Charge =  0 Multiplicity = 1

                         Standard orientation:
 ---------------------------------------------------------------------
 Center     Atomic      Atomic             Coordinates (Angstroms)
 Number     Number       Type             X           Y           Z
 ---------------------------------------------------------------------
      1          6           0       -4.243083   -0.355676    0.118745
      2          6           0       -2.931499    0.291431   -0.335642
      3          6           0       -1.694785   -0.428390    0.215858
      4          6           0       -0.345144    0.123420   -0.277217
      5          6           0       -0.088437    1.564949    0.178013
      6          6           0        0.789784   -0.816893    0.177634
      7          7           0        2.088560   -0.489986   -0.377903
      8          6           0        3.186909   -0.120195    0.335472
      9          8           0        4.272930    0.131842   -0.137729
     10          1           0       -5.110473    0.173737   -0.287331
     11          1           0       -4.330460   -0.348451    1.210952
     12          1           0       -4.305552   -1.399155   -0.209688
     13          1           0       -2.922254    1.342679   -0.025394
     14          1           0       -2.885980    0.296527   -1.432959
     15          1           0       -1.762010   -1.491815   -0.053743
     16          1           0       -1.716271   -0.394764    1.315139
     17          1           0       -0.357851    0.106171   -1.378026
     18          1           0       -0.133448    1.641256    1.271530
     19          1           0       -0.827913    2.256099   -0.234373
     20          1           0        0.899400    1.908143   -0.141474
     21          1           0        0.528084   -1.851820   -0.080407
     22          1           0        0.884275   -0.779768    1.269845
     23          1           0        2.223454   -0.561002   -1.377203
     24          1           0        2.971171   -0.074555    1.423112
 ---------------------------------------------------------------------

 SCF Done:  E(RB3LYP) =  -405.804505098     A.U. after    1 cycles

 The electronic state is 1-A.
 Alpha  occ. eigenvalues --  -19.10011 -14.35511 -10.27290 -10.22886 -10.19839
 Alpha  occ. eigenvalues --  -10.18720 -10.18629 -10.17879 -10.17825  -1.02677
 Alpha  occ. eigenvalues --   -0.92534  -0.81869  -0.76597  -0.69709  -0.68251
 Alpha  occ. eigenvalues --   -0.62237  -0.60465  -0.57081  -0.50201  -0.48345
 Alpha  occ. eigenvalues --   -0.47178  -0.46133  -0.44034  -0.42073  -0.40229
 Alpha  occ. eigenvalues --   -0.39954  -0.39415  -0.38448  -0.37392  -0.35974
 Alpha  occ. eigenvalues --   -0.34433  -0.33090  -0.32879  -0.32824  -0.25038
 Alpha  occ. eigenvalues --   -0.24808
 Alpha virt. eigenvalues --    0.03347   0.07518   0.08515   0.09895   0.11496
 Alpha virt. eigenvalues --    0.11833   0.12935   0.14273   0.14576   0.15987
 Alpha virt. eigenvalues --    0.16377   0.16879   0.17741   0.18670   0.19399

 Mulliken charges:
               1
     1  C   -0.379327
     2  C   -0.177869
     3  C   -0.159433
     4  C    0.017071
     5  C   -0.395197
     6  C   -0.172994
     7  N   -0.245891
     8  C    0.152873
     9  O   -0.331846
    10  H    0.113735
    11  H    0.115229
    12  H    0.114214
    13  H    0.102487
    14  H    0.095400
    15  H    0.089541
    16  H    0.092938
    17  H    0.070298
    18  H    0.111651
    19  H    0.121147
    20  H    0.127551
    21  H    0.107254
    22  H    0.118148
    23  H    0.247036
    24  H    0.065983
 Sum of Mulliken charges =  -0.00000

 Dipole moment (field-independent basis, Debye):
    X=             -4.0407    Y=             -0.8342    Z=              0.0507  Tot=              4.1263
 Quadrupole moment (field-independent basis, Debye-Ang):
   XX=            -79.9359   YY=            -56.8583   ZZ=            -54.0288
   XY=             -2.5374   XZ=              1.3968   YZ=              0.7036

  Exact polarizability: 115.762   4.809  74.284   0.319   0.528  76.090
 Approx polarizability: 141.264   8.796 108.396  -1.401   1.194 119.063

                      1                      2                      3
                      A                      A                      A
 Frequencies --     45.0493                49.4489                72.2775
 Red. masses --      5.1287                 4.0505                 1.6270
 Frc consts  --      0.0061                 0.0058                 0.0050
 IR Inten    --      2.1677                 2.1281                 0.0323

                      4                      5                      6
                      A                      A                      A
 Frequencies --    107.2206               136.0153               172.5808
 Red. masses --      2.3856                 2.0947                 2.7253
 Frc consts  --      0.0162                 0.0228                 0.0478
 IR Inten    --      0.2741                 0.3555                 0.8092

                      7                      8                      9
                      A                      A                      A
 Frequencies --    230.1482               249.8566               278.8230
 Red. masses --      1.1702                 1.1253                 2.8241
 Frc consts  --      0.0365                 0.0414                 0.1294
 IR Inten    --      0.6875                 0.2056                 1.5377

                     10                     11                     12
                      A                      A                      A
 Frequencies --    298.0512               335.9356               362.4131
 Red. masses --      4.7737                 2.4599                 2.6083
 Frc consts  --      0.2499                 0.1636                 0.2018
 IR Inten    --      0.3592                 1.4338                 4.7409

                     13                     14                     15
                      A                      A                      A
 Frequencies --    430.0579               517.1747               619.5198
 Red. masses --      2.0044                 2.7541                 1.3645
 Frc consts  --      0.2184                 0.4340                 0.3086
 IR Inten    --      1.1540                 0.2926               100.8400

                     16                     17                     18
                      A                      A                      A
 Frequencies --    646.8547               744.5045               835.8612
 Red. masses --      3.3805                 1.1146                 2.3029
 Frc consts  --      0.8334                 0.3640                 0.9480
 IR Inten    --     20.4919                 2.5009                 0.8560

                     19                     20                     21
                      A                      A                      A
 Frequencies --    868.2250               890.5157               911.9753
 Red. masses --      1.3157                 1.8346                 1.4395
 Frc consts  --      0.5844                 0.8572                 0.7054
 IR Inten    --      1.0566                 2.2716                 0.9888

                     22                     23                     24
                      A                      A                      A
 Frequencies --    954.0490              1014.9722              1045.6914
 Red. masses --      1.8542                 1.3505                 2.5060
 Frc consts  --      0.9944                 0.8197                 1.6145
 IR Inten    --     12.9394                 2.4051                 0.7635

                     25                     26                     27
                      A                      A                      A
 Frequencies --   1049.5983              1075.2444              1081.7468
 Red. masses --      1.5467                 2.0057                 2.2185
 Frc consts  --      1.0039                 1.3662                 1.5295
 IR Inten    --      0.2123                12.7499                 1.5155

                     28                     29                     30
                      A                      A                      A
 Frequencies --   1144.9643              1164.7618              1190.3493
 Red. masses --      2.2559                 2.7000                 1.9503
 Frc consts  --      1.7424                 2.1582                 1.6282
 IR Inten    --     13.0321                25.4003                 5.3910

                     31                     32                     33
                      A                      A                      A
 Frequencies --   1242.4739              1273.2070              1291.3729
 Red. masses --      1.5545                 1.4895                 1.3690
 Frc consts  --      1.4139                 1.4226                 1.3451
 IR Inten    --     30.8223                57.1519                43.8297

                     34                     35                     36
                      A                      A                      A
 Frequencies --   1310.1426              1331.7001              1347.3358
 Red. masses --      1.4613                 1.1158                 1.2882
 Frc consts  --      1.4778                 1.1659                 1.3778
 IR Inten    --     32.6108                 1.0268                 1.6420

                     37                     38                     39
                      A                      A                      A
 Frequencies --   1374.9209              1392.5133              1397.6982
 Red. masses --      1.3473                 1.3114                 1.4591
 Frc consts  --      1.5006                 1.4982                 1.6794
 IR Inten    --      1.3429                 1.1822                 1.2659

                     40                     41                     42
                      A                      A                      A
 Frequencies --   1412.7298              1416.7460              1422.3041
 Red. masses --      1.2397                 1.2154                 1.2596
 Frc consts  --      1.4577                 1.4373                 1.5013
 IR Inten    --      1.5591                11.4819                12.3478

                     43                     44                     45
                      A                      A                      A
 Frequencies --   1478.5454              1489.0016              1491.5523
 Red. masses --      1.0810                 1.1665                 1.5947
 Frc consts  --      1.3923                 1.5237                 2.0903
 IR Inten    --      1.4114                15.9687                10.5278

                     46                     47                     48
                      A                      A                      A
 Frequencies --   1494.2496              1498.6160              1499.9898
 Red. masses --      1.0720                 1.0682                 1.0418
 Frc consts  --      1.4102                 1.4135                 1.3810
 IR Inten    --      0.2531                 3.5310                 6.1376

                     49                     50                     51
                      A                      A                      A
 Frequencies --   1506.6451              1511.9386              1818.9582
 Red. masses --      1.0531                 1.0766                 7.4032
 Frc consts  --      1.4085                 1.4501                14.4316
 IR Inten    --      3.2934                 7.9310               506.2669

                     52                     53                     54
                      A                      A                      A
 Frequencies --   2920.1959              2984.6129              2996.1045
 Red. masses --      1.0831                 1.0805                 1.0596
 Frc consts  --      5.4417                 5.6710                 5.6038
 IR Inten    --     73.6788                 9.9688                12.5636

                     55                     56                     57
                      A                      A                      A
 Frequencies --   3009.8639              3018.8339              3029.0837
 Red. masses --      1.0644                 1.0669                 1.0572
 Frc consts  --      5.6812                 5.7284                 5.7152
 IR Inten    --     38.9521                39.1465                26.9121

                     58                     59                     60
                      A                      A                      A
 Frequencies --   3029.6935              3030.9197              3060.2680
 Red. masses --      1.0699                 1.0424                 1.0996
 Frc consts  --      5.7860                 5.6422                 6.0674
 IR Inten    --     23.0317                17.8794                 6.8725

                     61                     62                     63
                      A                      A                      A
 Frequencies --   3064.8753              3096.4447              3101.2050
 Red. masses --      1.0990                 1.1023                 1.0956
 Frc consts  --      6.0822                 6.2267                 6.2080
 IR Inten    --     46.9833                59.2466                14.7118

                     64                     65                     66
                      A                      A                      A
 Frequencies --   3102.9839              3119.6121              3599.0067
 Red. masses --      1.1002                 1.1009                 1.0753
 Frc consts  --      6.2416                 6.3127                 8.2061
 IR Inten    --     43.1476                26.0981                17.5548

 - Thermochemistry -
 -------------------
 Temperature   298.150 Kelvin.  Pressure   1.00000 Atm.
 Atom     1 has atomic number  6 and mass  12.00000

 Molecular mass:   129.11536 amu.
 Principal axes and moments of inertia in atomic units:
                           1         2         3
     Eigenvalues --   323.170853432.193223598.06473
           X            1.00000   0.00174   0.00178
           Y           -0.00174   1.00000  -0.00212
           Z           -0.00178   0.00212   1.00000
 This molecule is an asymmetric top.
 Rotational symmetry number  1.
 Rotational temperatures (Kelvin)      0.26801     0.02524     0.02407
 Rotational constants (GHZ):           5.58448     0.52583     0.50159
 Zero-point vibrational energy     566373.4 (Joules/Mol)
                                  135.36648 (Kcal/Mol)
 Warning -- explicit consideration of  15 degrees of freedom as
           vibrations may cause significant error
 Vibrational temperatures:     64.82    71.15   103.99   154.27   195.70
          (Kelvin)            248.31   331.13   359.49   401.16   428.83
                              483.34   521.43   618.76   744.10   891.35
                              930.68  1071.18  1202.62  1249.18  1281.25
                             1312.13  1372.66  1460.32  1504.52  1510.14
                             1547.04  1556.39  1647.35  1675.83  1712.65
                             1787.64  1831.86  1858.00  1885.00  1916.02
                             1938.52  1978.20  2003.52  2010.98  2032.60
                             2038.38  2046.38  2127.30  2142.34  2146.01
                             2149.89  2156.17  2158.15  2167.73  2175.34
                             2617.08  4201.51  4294.19  4310.73  4330.52
                             4343.43  4358.18  4359.05  4360.82  4403.04
                             4409.67  4455.09  4461.94  4464.50  4488.43
                             5178.17

 Zero-point correction=                           0.215720 (Hartree/Particle)
 Thermal correction to Energy=                    0.227130
 Thermal correction to Enthalpy=                  0.228074
 Thermal correction to Gibbs Free Energy=         0.177779
 Sum of electronic and zero-point Energies=           -405.588785
 Sum of electronic and thermal Energies=              -405.577375
 Sum of electronic and thermal Enthalpies=            -405.576431
 Sum of electronic and thermal Free Energies=         -405.626726

                     E (Thermal)             CV                S
                      KCal/Mol        Cal/Mol-Kelvin    Cal/Mol-Kelvin
 Total                  142.526             40.036            105.855
 Electronic               0.000              0.000              0.000
 Translational            0.889              2.981             40.480
 Rotational               0.889              2.981             29.769
 Vibrational            140.749             34.074             35.607
 Vibration     1          0.595              1.979              5.024
 Vibration     2          0.595              1.978              4.839
 Vibration     3          0.598              1.967              4.090
 Vibration     4          0.606              1.943              3.319
 Vibration     5          0.614              1.917              2.859
 Vibration     6          0.626              1.876              2.407
 Vibration     7          0.652              1.795              1.878
 Vibration     8          0.663              1.763              1.732
 Vibration     9          0.679              1.713              1.541
 Vibration    10          0.691              1.677              1.428
 Vibration    11          0.717              1.604              1.231
 Vibration    12          0.736              1.550              1.112
 Vibration    13          0.791              1.405              0.858
 Vibration    14          0.872              1.212              0.617
 Vibration    15          0.979              0.991              0.417

 Optimization completed.
    -- Stationary point found.
 Normal termination of Gaussian 16 at Thu Aug  4 02:36:14 2022.
