 Gaussian 16, Revision A.03,
 Gaussian 16:  ES64L-G16RevA.03 25-Dec-2016

 -----------------------------
 # opt freq b3lyp/6-31g(2df,p)
 -----------------------------

 -------------------
 Title Card Required
 -------------------
 Symbolic Z-matrix:
 Charge =  0 Multiplicity = 1

 SCF Done:  E(RB3LYP) =  -409.183230340     A.U. after   12 cycles
 SCF Done:  E(RB3LYP) =  -409.186888294     A.U. after   10 cycles
 SCF Done:  E(RB3LYP) =  -409.187409844     A.U. after    9 cycles
 SCF Done:  E(RB3LYP) =  -409.187537350     A.U. after    9 cycles
 SCF Done:  E(RB3LYP) =  -409.187539034     A.U. after    8 cycles
 SCF Done:  E(RB3LYP) =  -409.187585948     A.U. after    8 cycles
 SCF Done:  E(RB3LYP) =  -409.187992052     A.U. after   11 cycles
 SCF Done:  E(RB3LYP) =  -409.184900657     A.U. after   11 cycles
 SCF Done:  E(RB3LYP) =  -409.188498697     A.U. after   10 cycles
 SCF Done:  E(RB3LYP) =  -409.188796804     A.U. after   11 cycles
 SCF Done:  E(RB3LYP) =  -409.189439553     A.U. after   10 cycles
 SCF Done:  E(RB3LYP) =  -409.189637673     A.U. after   10 cycles
 SCF Done:  E(RB3LYP) =  -409.189673745     A.U. after    9 cycles
 SCF Done:  E(RB3LYP) =  -409.189697200     A.U. after    9 cycles
 SCF Done:  E(RB3LYP) =  -409.189699328     A.U. after    8 cycles
 SCF Done:  E(RB3LYP) =  -409.189701654     A.U. after    9 cycles
 SCF Done:  E(RB3LYP) =  -409.189703760     A.U. after    8 cycles
 SCF Done:  E(RB3LYP) =  -409.189703884     A.U. after    8 cycles
 SCF Done:  E(RB3LYP) =  -409.189703879     A.U. after    6 cycles
 Optimization completed.
    -- Stationary point found.
 Normal termination of Gaussian 16 at Wed Aug  3 07:31:19 2022.

 ----------------------------------------------------------------------
 #N Geom=AllCheck Guess=TCheck SCRF=Check GenChk RB3LYP/6-31G(2df,p) Fr
 eq
 ----------------------------------------------------------------------

 Structure from the checkpoint file:  "CCCC1CCpCCpCN1.chk"
 -------------------
 Title Card Required
 -------------------
 Charge =  0 Multiplicity = 1

                         Standard orientation:
 ---------------------------------------------------------------------
 Center     Atomic      Atomic             Coordinates (Angstroms)
 Number     Number       Type             X           Y           Z
 ---------------------------------------------------------------------
      1          6           0       -4.417299   -0.587334    0.228228
      2          6           0       -3.150003    0.146438   -0.219613
      3          6           0       -1.868494   -0.648037    0.055497
      4          6           0       -0.590506    0.036035   -0.431746
      5          6           0        0.703921   -0.776663   -0.161543
      6          6           0        1.750270    0.250160    0.356596
      7          6           0        3.150031    0.111012   -0.247395
      8          6           0        3.866135   -1.183080    0.151357
      9          6           0        1.077515    1.602827    0.069039
     10          7           0       -0.339502    1.307308    0.264034
     11          1           0       -5.316226    0.003113    0.024385
     12          1           0       -4.392877   -0.796269    1.303487
     13          1           0       -4.523588   -1.546510   -0.290991
     14          1           0       -3.092748    1.113714    0.295178
     15          1           0       -3.216476    0.369274   -1.293606
     16          1           0       -1.942993   -1.632265   -0.427424
     17          1           0       -1.772665   -0.828300    1.134182
     18          1           0       -0.679793    0.191565   -1.524155
     19          1           0        1.046792   -1.267772   -1.078019
     20          1           0        0.521490   -1.565414    0.574008
     21          1           0        1.829681    0.145178    1.445305
     22          1           0        3.760465    0.970088    0.061707
     23          1           0        3.075621    0.169108   -1.342089
     24          1           0        3.984543   -1.248731    1.238800
     25          1           0        4.863457   -1.239830   -0.295906
     26          1           0        3.306654   -2.066929   -0.172990
     27          1           0        1.318648    1.923951   -0.963081
     28          1           0        1.409708    2.395962    0.747476
     29          1           0       -0.932593    2.050766   -0.087023
 ---------------------------------------------------------------------

 SCF Done:  E(RB3LYP) =  -409.189703879     A.U. after    1 cycles

 The electronic state is 1-A.
 Alpha  occ. eigenvalues --  -14.30172 -10.19923 -10.19349 -10.17686 -10.17548
 Alpha  occ. eigenvalues --  -10.17451 -10.17029 -10.16964 -10.16860 -10.16853
 Alpha  occ. eigenvalues --   -0.90765  -0.78989  -0.78055  -0.73095  -0.71220
 Alpha  occ. eigenvalues --   -0.65855  -0.61132  -0.58957  -0.55838  -0.54862
 Alpha  occ. eigenvalues --   -0.49354  -0.47186  -0.45869  -0.43046  -0.41970
 Alpha  occ. eigenvalues --   -0.41079  -0.40590  -0.38979  -0.38084  -0.36976
 Alpha  occ. eigenvalues --   -0.35736  -0.35222  -0.34182  -0.33151  -0.32369
 Alpha  occ. eigenvalues --   -0.32047  -0.31165  -0.30449  -0.29674  -0.21507
 Alpha virt. eigenvalues --    0.08289   0.09129   0.10684   0.11720   0.12426
 Alpha virt. eigenvalues --    0.12977   0.13913   0.15156   0.15564   0.16591
 Alpha virt. eigenvalues --    0.16884   0.17548   0.18020   0.18352   0.18930

 Mulliken charges:
               1
     1  C   -0.378847
     2  C   -0.175716
     3  C   -0.172168
     4  C    0.060281
     5  C   -0.242969
     6  C    0.073619
     7  C   -0.191154
     8  C   -0.382642
     9  C   -0.189788
    10  N   -0.310246
    11  H    0.108626
    12  H    0.115053
    13  H    0.111871
    14  H    0.098762
    15  H    0.088608
    16  H    0.085565
    17  H    0.094659
    18  H    0.043513
    19  H    0.093151
    20  H    0.098164
    21  H    0.072762
    22  H    0.091530
    23  H    0.090366
    24  H    0.113308
    25  H    0.109776
    26  H    0.117879
    27  H    0.068940
    28  H    0.093318
    29  H    0.213778
 Sum of Mulliken charges =  -0.00000

 Dipole moment (field-independent basis, Debye):
    X=              0.1469    Y=              0.2013    Z=             -0.7347  Tot=              0.7758
 Quadrupole moment (field-independent basis, Debye-Ang):
   XX=            -65.2959   YY=            -64.0615   ZZ=            -65.8574
   XY=             -0.2612   XZ=              0.9707   YZ=             -0.8260

  Exact polarizability: 128.935   0.769  98.026   0.447  -0.077  87.860
 Approx polarizability: 145.464   1.366 142.063   0.599   1.209 140.030

                      1                      2                      3
                      A                      A                      A
 Frequencies --     19.8303                82.6982                89.9870
 Red. masses --      2.7091                 2.6289                 1.8594
 Frc consts  --      0.0006                 0.0106                 0.0089
 IR Inten    --      0.0980                 0.0289                 0.0475

                      4                      5                      6
                      A                      A                      A
 Frequencies --    118.4408               140.6086               178.7123
 Red. masses --      2.2834                 2.0828                 2.7899
 Frc consts  --      0.0189                 0.0243                 0.0525
 IR Inten    --      0.1411                 0.0112                 0.9865

                      7                      8                      9
                      A                      A                      A
 Frequencies --    210.1605               249.5600               255.0790
 Red. masses --      1.5500                 1.1453                 1.4208
 Frc consts  --      0.0403                 0.0420                 0.0545
 IR Inten    --      0.6993                 0.0293                 0.5208

                     10                     11                     12
                      A                      A                      A
 Frequencies --    304.6783               345.7858               402.3567
 Red. masses --      2.8932                 2.7177                 3.0876
 Frc consts  --      0.1582                 0.1915                 0.2945
 IR Inten    --      0.3447                 1.3369                 0.3123

                     13                     14                     15
                      A                      A                      A
 Frequencies --    434.3746               478.3638               579.8090
 Red. masses --      1.8614                 2.1700                 2.5601
 Frc consts  --      0.2069                 0.2926                 0.5071
 IR Inten    --      0.1741                 8.4563                13.7217

                     16                     17                     18
                      A                      A                      A
 Frequencies --    624.5760               742.4713               782.3562
 Red. masses --      2.9603                 1.2089                 1.2524
 Frc consts  --      0.6804                 0.3926                 0.4517
 IR Inten    --     15.7586                 2.4838                10.8809

                     19                     20                     21
                      A                      A                      A
 Frequencies --    783.8590               848.1024               876.2615
 Red. masses --      1.6272                 2.1763                 1.4634
 Frc consts  --      0.5891                 0.9223                 0.6621
 IR Inten    --     28.7493                 1.6127                 0.3362

                     22                     23                     24
                      A                      A                      A
 Frequencies --    895.2220               909.9718               942.9471
 Red. masses --      1.8579                 2.1620                 1.4789
 Frc consts  --      0.8773                 1.0548                 0.7748
 IR Inten    --     15.9133                 3.1790                 3.0042

                     25                     26                     27
                      A                      A                      A
 Frequencies --    959.2032               988.4272              1015.4278
 Red. masses --      1.7109                 1.5209                 2.6395
 Frc consts  --      0.9275                 0.8754                 1.6035
 IR Inten    --      5.8344                 2.1655                 1.4113

                     28                     29                     30
                      A                      A                      A
 Frequencies --   1035.8195              1049.4489              1070.2767
 Red. masses --      2.1002                 1.8238                 2.2294
 Frc consts  --      1.3276                 1.1834                 1.5047
 IR Inten    --      1.3061                 1.1813                 4.7490

                     31                     32                     33
                      A                      A                      A
 Frequencies --   1087.5342              1088.3862              1122.6728
 Red. masses --      1.9883                 1.8404                 1.8188
 Frc consts  --      1.3855                 1.2845                 1.3506
 IR Inten    --      6.2580                 0.1429                 5.2521

                     34                     35                     36
                      A                      A                      A
 Frequencies --   1155.0360              1159.9100              1163.7395
 Red. masses --      1.7081                 2.2148                 3.1894
 Frc consts  --      1.3426                 1.7557                 2.5449
 IR Inten    --      0.8751                 1.6461                13.7120

                     37                     38                     39
                      A                      A                      A
 Frequencies --   1217.1700              1240.7413              1264.2658
 Red. masses --      1.4627                 1.3962                 1.2851
 Frc consts  --      1.2768                 1.2663                 1.2102
 IR Inten    --      3.0345                 2.4106                17.8606

                     40                     41                     42
                      A                      A                      A
 Frequencies --   1287.4381              1288.7544              1299.9553
 Red. masses --      1.2920                 1.2828                 1.1936
 Frc consts  --      1.2617                 1.2553                 1.1884
 IR Inten    --      5.0952                 7.8865                 0.7607

                     43                     44                     45
                      A                      A                      A
 Frequencies --   1312.1005              1327.9206              1335.8787
 Red. masses --      1.3172                 1.2075                 1.1881
 Frc consts  --      1.3361                 1.2546                 1.2492
 IR Inten    --      7.7900                 7.1834                 7.5822

                     46                     47                     48
                      A                      A                      A
 Frequencies --   1356.9044              1374.2160              1387.9341
 Red. masses --      1.2676                 1.4162                 1.5597
 Frc consts  --      1.3750                 1.5758                 1.7702
 IR Inten    --      8.6118                 2.0716                 3.5222

                     49                     50                     51
                      A                      A                      A
 Frequencies --   1401.2905              1404.5651              1412.5794
 Red. masses --      1.4420                 1.4464                 1.2385
 Frc consts  --      1.6683                 1.6812                 1.4561
 IR Inten    --      8.5074                 1.4069                 1.5339

                     52                     53                     54
                      A                      A                      A
 Frequencies --   1413.4768              1443.0012              1473.9338
 Red. masses --      1.2691                 1.4382                 1.0846
 Frc consts  --      1.4939                 1.7644                 1.3882
 IR Inten    --      0.2261                13.6579                 0.9777

                     55                     56                     57
                      A                      A                      A
 Frequencies --   1484.1904              1493.0267              1496.5000
 Red. masses --      1.0673                 1.0584                 1.0778
 Frc consts  --      1.3852                 1.3900                 1.4221
 IR Inten    --      0.7370                 0.4460                 1.3496

                     58                     59                     60
                      A                      A                      A
 Frequencies --   1499.8960              1500.9043              1507.3210
 Red. masses --      1.0404                 1.0472                 1.0693
 Frc consts  --      1.3791                 1.3899                 1.4314
 IR Inten    --      4.6092                 4.7296                 2.0517

                     61                     62                     63
                      A                      A                      A
 Frequencies --   1509.2324              1518.0527              2898.4208
 Red. masses --      1.0806                 1.0984                 1.0808
 Frc consts  --      1.4502                 1.4913                 5.3494
 IR Inten    --      2.2778                 2.5155                47.1133

                     64                     65                     66
                      A                      A                      A
 Frequencies --   2909.2491              3005.8624              3006.8907
 Red. masses --      1.0727                 1.0586                 1.0603
 Frc consts  --      5.3495                 5.6351                 5.6481
 IR Inten    --     96.6800                 2.4038                24.1216

                     67                     68                     69
                      A                      A                      A
 Frequencies --   3012.1605              3023.1008              3027.9581
 Red. masses --      1.0632                 1.0832                 1.0360
 Frc consts  --      5.6837                 5.8326                 5.5967
 IR Inten    --     45.2986                12.7807                36.0842

                     70                     71                     72
                      A                      A                      A
 Frequencies --   3030.0414              3039.1102              3042.0477
 Red. masses --      1.0371                 1.0952                 1.0983
 Frc consts  --      5.6102                 5.9596                 5.9884
 IR Inten    --     24.8939                 5.3627                16.9634

                     73                     74                     75
                      A                      A                      A
 Frequencies --   3045.8143              3060.2827              3060.6904
 Red. masses --      1.0610                 1.0927                 1.1000
 Frc consts  --      5.7992                 6.0292                 6.0715
 IR Inten    --     35.0833                79.5530                 6.7478

                     76                     77                     78
                      A                      A                      A
 Frequencies --   3087.5275              3095.1981              3096.5021
 Red. masses --      1.1038                 1.1021                 1.1014
 Frc consts  --      6.1998                 6.2207                 6.2220
 IR Inten    --     26.4373                48.2018                60.0330

                     79                     80                     81
                      A                      A                      A
 Frequencies --   3099.1995              3101.4791              3534.6870
 Red. masses --      1.1011                 1.1012                 1.0744
 Frc consts  --      6.2314                 6.2409                 7.9090
 IR Inten    --     39.2864                41.5401                 1.0362

 - Thermochemistry -
 -------------------
 Temperature   298.150 Kelvin.  Pressure   1.00000 Atm.
 Atom     1 has atomic number  6 and mass  12.00000

 Molecular mass:   141.15175 amu.
 Principal axes and moments of inertia in atomic units:
                           1         2         3
     Eigenvalues --   523.358163426.050443782.88050
           X            1.00000  -0.00145  -0.00076
           Y            0.00144   0.99984  -0.01797
           Z            0.00079   0.01797   0.99984
 This molecule is an asymmetric top.
 Rotational symmetry number  1.
 Warning -- assumption of classical behavior for rotation
           may cause significant error
 Rotational temperatures (Kelvin)      0.16550     0.02528     0.02290
 Rotational constants (GHZ):           3.44839     0.52677     0.47708
 Zero-point vibrational energy     709502.6 (Joules/Mol)
                                  169.57518 (Kcal/Mol)
 Warning -- explicit consideration of  15 degrees of freedom as
           vibrations may cause significant error
 Vibrational temperatures:     28.53   118.98   129.47   170.41   202.30
          (Kelvin)            257.13   302.37   359.06   367.00   438.36
                              497.51   578.90   624.97   688.26   834.22
                              898.63  1068.25  1125.64  1127.80  1220.23
                             1260.74  1288.02  1309.25  1356.69  1380.08
                             1422.13  1460.97  1490.31  1509.92  1539.89
                             1564.72  1565.95  1615.28  1661.84  1668.85
                             1674.36  1751.24  1785.15  1819.00  1852.34
                             1854.23  1870.35  1887.82  1910.58  1922.03
                             1952.28  1977.19  1996.93  2016.14  2020.86
                             2032.39  2033.68  2076.16  2120.66  2135.42
                             2148.13  2153.13  2158.02  2159.47  2168.70
                             2171.45  2184.14  4170.18  4185.76  4324.77
                             4326.25  4333.83  4349.57  4356.56  4359.55
                             4372.60  4376.83  4382.25  4403.06  4403.65
                             4442.26  4453.30  4455.18  4459.06  4462.34
                             5085.63

 Zero-point correction=                           0.270235 (Hartree/Particle)
 Thermal correction to Energy=                    0.281974
 Thermal correction to Enthalpy=                  0.282918
 Thermal correction to Gibbs Free Energy=         0.231750
 Sum of electronic and zero-point Energies=           -408.919469
 Sum of electronic and thermal Energies=              -408.907730
 Sum of electronic and thermal Enthalpies=            -408.906786
 Sum of electronic and thermal Free Energies=         -408.957954

                     E (Thermal)             CV                S
                      KCal/Mol        Cal/Mol-Kelvin    Cal/Mol-Kelvin
 Total                  176.941             43.664            107.693
 Electronic               0.000              0.000              0.000
 Translational            0.889              2.981             40.745
 Rotational               0.889              2.981             30.296
 Vibrational            175.164             37.703             36.652
 Vibration     1          0.593              1.986              6.651
 Vibration     2          0.600              1.961              3.826
 Vibration     3          0.602              1.956              3.660
 Vibration     4          0.609              1.934              3.126
 Vibration     5          0.615              1.913              2.796
 Vibration     6          0.629              1.868              2.342
 Vibration     7          0.642              1.825              2.042
 Vibration     8          0.662              1.763              1.734
 Vibration     9          0.665              1.754              1.695
 Vibration    10          0.696              1.665              1.391
 Vibration    11          0.724              1.584              1.185
 Vibration    12          0.768              1.465              0.954
 Vibration    13          0.795              1.395              0.844
 Vibration    14          0.835              1.298              0.714
 Vibration    15          0.936              1.075              0.486

 Optimization completed.
    -- Stationary point found.
 Normal termination of Gaussian 16 at Wed Aug  3 08:24:03 2022.
