 Gaussian 16, Revision A.03,
 Gaussian 16:  ES64L-G16RevA.03 25-Dec-2016

 -----------------------------
 # opt freq b3lyp/6-31g(2df,p)
 -----------------------------

 -------------------
 Title Card Required
 -------------------
 Symbolic Z-matrix:
 Charge =  0 Multiplicity = 1

 SCF Done:  E(RB3LYP) =  -313.294927032     A.U. after   13 cycles
 SCF Done:  E(RB3LYP) =  -313.298220309     A.U. after   11 cycles
 SCF Done:  E(RB3LYP) =  -313.298636523     A.U. after    9 cycles
 SCF Done:  E(RB3LYP) =  -313.299109256     A.U. after   11 cycles
 SCF Done:  E(RB3LYP) =  -313.299254665     A.U. after    9 cycles
 SCF Done:  E(RB3LYP) =  -313.299361766     A.U. after    9 cycles
 SCF Done:  E(RB3LYP) =  -313.299375351     A.U. after    9 cycles
 SCF Done:  E(RB3LYP) =  -313.299379329     A.U. after    8 cycles
 SCF Done:  E(RB3LYP) =  -313.299380037     A.U. after    7 cycles
 SCF Done:  E(RB3LYP) =  -313.299380634     A.U. after    7 cycles
 SCF Done:  E(RB3LYP) =  -313.299380709     A.U. after    7 cycles
 Optimization completed.
    -- Stationary point found.
 Normal termination of Gaussian 16 at Thu Aug  4 04:21:03 2022.

 ----------------------------------------------------------------------
 #N Geom=AllCheck Guess=TCheck SCRF=Check GenChk RB3LYP/6-31G(2df,p) Fr
 eq
 ----------------------------------------------------------------------

 Structure from the checkpoint file:  "CCCC1dCCCC1.chk"
 -------------------
 Title Card Required
 -------------------
 Charge =  0 Multiplicity = 1

                         Standard orientation:
 ---------------------------------------------------------------------
 Center     Atomic      Atomic             Coordinates (Angstroms)
 Number     Number       Type             X           Y           Z
 ---------------------------------------------------------------------
      1          6           0       -3.564385   -0.044148    0.151221
      2          6           0       -2.081640   -0.245807    0.473083
      3          6           0       -1.152339    0.419554   -0.561045
      4          6           0        0.308996    0.235803   -0.273990
      5          6           0        1.187962    1.187621    0.049320
      6          6           0        2.592147    0.661517    0.219076
      7          6           0        2.382800   -0.874520    0.260185
      8          6           0        0.994928   -1.115003   -0.383209
      9          1           0       -4.204082   -0.521155    0.900383
     10          1           0       -3.819510   -0.471128   -0.825282
     11          1           0       -3.822376    1.020466    0.122152
     12          1           0       -1.862300   -1.319009    0.527427
     13          1           0       -1.856394    0.162951    1.465701
     14          1           0       -1.383484    1.490717   -0.611045
     15          1           0       -1.385876    0.005574   -1.553660
     16          1           0        0.944604    2.241961    0.138081
     17          1           0        3.088408    1.039586    1.120560
     18          1           0        3.226390    0.965724   -0.626648
     19          1           0        2.361099   -1.208589    1.302473
     20          1           0        3.183789   -1.427187   -0.237564
     21          1           0        0.441883   -1.922149    0.110386
     22          1           0        1.077034   -1.407866   -1.440807
 ---------------------------------------------------------------------

 SCF Done:  E(RB3LYP) =  -313.299380709     A.U. after    1 cycles

 The electronic state is 1-A.
 Alpha  occ. eigenvalues --  -10.17784 -10.17764 -10.17489 -10.17448 -10.17403
 Alpha  occ. eigenvalues --  -10.17339 -10.17083 -10.16412  -0.83593  -0.78097
 Alpha  occ. eigenvalues --   -0.71703  -0.69602  -0.65374  -0.58623  -0.56490
 Alpha  occ. eigenvalues --   -0.50749  -0.47095  -0.45881  -0.45442  -0.40741
 Alpha  occ. eigenvalues --   -0.39394  -0.39278  -0.37800  -0.34978  -0.34181
 Alpha  occ. eigenvalues --   -0.33768  -0.33163  -0.32520  -0.31989  -0.31436
 Alpha  occ. eigenvalues --   -0.22323
 Alpha virt. eigenvalues --    0.03558   0.09155   0.10356   0.12293   0.13054
 Alpha virt. eigenvalues --    0.13597   0.14969   0.16101   0.16865   0.17447
 Alpha virt. eigenvalues --    0.18315   0.18793   0.19575   0.20280   0.20967

 Mulliken charges:
               1
     1  C   -0.377987
     2  C   -0.156983
     3  C   -0.298201
     4  C    0.354124
     5  C   -0.173581
     6  C   -0.241873
     7  C   -0.202089
     8  C   -0.297721
     9  H    0.110657
    10  H    0.112970
    11  H    0.113626
    12  H    0.098444
    13  H    0.099145
    14  H    0.095671
    15  H    0.095123
    16  H    0.077391
    17  H    0.097481
    18  H    0.100334
    19  H    0.102300
    20  H    0.093186
    21  H    0.098810
    22  H    0.099172
 Sum of Mulliken charges =  -0.00000

 Dipole moment (field-independent basis, Debye):
    X=             -0.1544    Y=             -0.1586    Z=             -0.0340  Tot=              0.2239
 Quadrupole moment (field-independent basis, Debye-Ang):
   XX=            -51.1500   YY=            -50.5340   ZZ=            -51.4090
   XY=             -0.0077   XZ=              0.0008   YZ=              0.3462

  Exact polarizability: 106.225   5.165  82.035   3.363   2.618  67.803
 Approx polarizability: 129.614  12.919 125.300   6.018   6.706 104.022

                      1                      2                      3
                      A                      A                      A
 Frequencies --     64.2066                81.2736               106.0115
 Red. masses --      1.9155                 2.3051                 2.3717
 Frc consts  --      0.0047                 0.0090                 0.0157
 IR Inten    --      0.0272                 0.0137                 0.0524

                      4                      5                      6
                      A                      A                      A
 Frequencies --    159.1648               243.9783               282.6606
 Red. masses --      1.8945                 1.1120                 2.3180
 Frc consts  --      0.0283                 0.0390                 0.1091
 IR Inten    --      0.2805                 0.0255                 0.7809

                      7                      8                      9
                      A                      A                      A
 Frequencies --    311.3492               342.8207               498.9066
 Red. masses --      2.7747                 2.5908                 2.4495
 Frc consts  --      0.1585                 0.1794                 0.3592
 IR Inten    --      0.4385                 0.4834                 3.8578

                     10                     11                     12
                      A                      A                      A
 Frequencies --    607.0734               694.6817               745.5202
 Red. masses --      2.2089                 2.8094                 1.1147
 Frc consts  --      0.4796                 0.7988                 0.3650
 IR Inten    --      1.5499                 0.1759                 1.6420

                     13                     14                     15
                      A                      A                      A
 Frequencies --    809.7958               838.1847               860.6865
 Red. masses --      1.8553                 1.4777                 1.5506
 Frc consts  --      0.7168                 0.6117                 0.6768
 IR Inten    --      4.2550                 7.7345                 1.1165

                     16                     17                     18
                      A                      A                      A
 Frequencies --    889.3963               901.4829               912.0918
 Red. masses --      1.9305                 2.1004                 1.5926
 Frc consts  --      0.8997                 1.0057                 0.7806
 IR Inten    --      0.1648                 0.3974                 1.9062

                     19                     20                     21
                      A                      A                      A
 Frequencies --    923.4980               961.7869              1035.6139
 Red. masses --      2.1221                 1.8312                 2.3986
 Frc consts  --      1.0663                 0.9980                 1.5157
 IR Inten    --      0.2524                 3.2771                 0.6506

                     22                     23                     24
                      A                      A                      A
 Frequencies --   1043.6212              1060.7755              1095.2487
 Red. masses --      2.4118                 1.6099                 1.6035
 Frc consts  --      1.5476                 1.0673                 1.1333
 IR Inten    --      0.7926                 4.5895                 3.7257

                     25                     26                     27
                      A                      A                      A
 Frequencies --   1113.6435              1151.9009              1172.6318
 Red. masses --      1.8177                 1.2534                 1.7012
 Frc consts  --      1.3282                 0.9799                 1.3783
 IR Inten    --      0.7672                 0.8072                 0.9678

                     28                     29                     30
                      A                      A                      A
 Frequencies --   1229.2998              1241.7781              1253.8420
 Red. masses --      1.2369                 1.6002                 1.3515
 Frc consts  --      1.1013                 1.4538                 1.2518
 IR Inten    --      2.5148                 2.5527                 1.3122

                     31                     32                     33
                      A                      A                      A
 Frequencies --   1291.0869              1308.5114              1321.9728
 Red. masses --      1.3361                 1.4201                 1.3808
 Frc consts  --      1.3122                 1.4326                 1.4218
 IR Inten    --      2.1380                 5.9502                 1.2096

                     34                     35                     36
                      A                      A                      A
 Frequencies --   1327.0885              1329.2899              1369.5523
 Red. masses --      1.1403                 1.5474                 1.7874
 Frc consts  --      1.1833                 1.6109                 1.9753
 IR Inten    --      0.1788                 0.3265                 1.7599

                     37                     38                     39
                      A                      A                      A
 Frequencies --   1382.8388              1411.5546              1477.6280
 Red. masses --      1.4968                 1.2333                 1.0889
 Frc consts  --      1.6864                 1.4479                 1.4008
 IR Inten    --      0.1726                 0.4509                 1.2516

                     40                     41                     42
                      A                      A                      A
 Frequencies --   1483.5160              1488.5872              1492.8817
 Red. masses --      1.0815                 1.0830                 1.0570
 Frc consts  --      1.4023                 1.4140                 1.3880
 IR Inten    --      0.4686                 0.4682                 0.3460

                     43                     44                     45
                      A                      A                      A
 Frequencies --   1499.0540              1507.0809              1509.8560
 Red. masses --      1.0406                 1.1031                 1.0834
 Frc consts  --      1.3777                 1.4762                 1.4551
 IR Inten    --      5.0866                 1.0286                 2.6613

                     46                     47                     48
                      A                      A                      A
 Frequencies --   1717.0080              2991.4116              2995.9869
 Red. masses --      7.0858                 1.0660                 1.0693
 Frc consts  --     12.3079                 5.6201                 5.6551
 IR Inten    --      2.2031                 8.2798                54.2753

                     49                     50                     51
                      A                      A                      A
 Frequencies --   2997.6029              3026.4005              3028.1735
 Red. masses --      1.0698                 1.0521                 1.0442
 Frc consts  --      5.6637                 5.6775                 5.6414
 IR Inten    --     56.1007                 8.3182                50.2476

                     52                     53                     54
                      A                      A                      A
 Frequencies --   3039.5145              3042.2063              3048.3465
 Red. masses --      1.0804                 1.0932                 1.0889
 Frc consts  --      5.8809                 5.9610                 5.9614
 IR Inten    --      7.7890                13.5882                31.8778

                     55                     56                     57
                      A                      A                      A
 Frequencies --   3059.6289              3065.0962              3095.7935
 Red. masses --      1.0746                 1.1004                 1.1025
 Frc consts  --      5.9272                 6.0910                 6.2258
 IR Inten    --     45.9018                29.5170                60.7920

                     58                     59                     60
                      A                      A                      A
 Frequencies --   3097.8575              3100.4579              3176.5300
 Red. masses --      1.1036                 1.1008                 1.0931
 Frc consts  --      6.2399                 6.2347                 6.4986
 IR Inten    --     39.8354                38.4028                18.5855

 - Thermochemistry -
 -------------------
 Temperature   298.150 Kelvin.  Pressure   1.00000 Atm.
 Atom     1 has atomic number  6 and mass  12.00000

 Molecular mass:   110.10955 amu.
 Principal axes and moments of inertia in atomic units:
                           1         2         3
     Eigenvalues --   338.642831851.207422024.58098
           X            1.00000  -0.00257   0.00119
           Y            0.00257   0.99999   0.00229
           Z           -0.00119  -0.00229   1.00000
 This molecule is an asymmetric top.
 Rotational symmetry number  1.
 Rotational temperatures (Kelvin)      0.25577     0.04679     0.04278
 Rotational constants (GHZ):           5.32934     0.97490     0.89141
 Zero-point vibrational energy     528243.6 (Joules/Mol)
                                  126.25326 (Kcal/Mol)
 Warning -- explicit consideration of  10 degrees of freedom as
           vibrations may cause significant error
 Vibrational temperatures:     92.38   116.93   152.53   229.00   351.03
          (Kelvin)            406.69   447.96   493.24   717.82   873.44
                              999.49  1072.64  1165.12  1205.96  1238.34
                             1279.64  1297.03  1312.30  1328.71  1383.80
                             1490.02  1501.54  1526.22  1575.82  1602.28
                             1657.33  1687.16  1768.69  1786.64  1804.00
                             1857.59  1882.66  1902.02  1909.38  1912.55
                             1970.48  1989.60  2030.91  2125.98  2134.45
                             2141.75  2147.92  2156.80  2168.35  2172.35
                             2470.39  4303.97  4310.56  4312.88  4354.32
                             4356.87  4373.18  4377.06  4385.89  4402.12
                             4409.99  4454.16  4457.13  4460.87  4570.32

 Zero-point correction=                           0.201197 (Hartree/Particle)
 Thermal correction to Energy=                    0.210058
 Thermal correction to Enthalpy=                  0.211002
 Thermal correction to Gibbs Free Energy=         0.167167
 Sum of electronic and zero-point Energies=           -313.098183
 Sum of electronic and thermal Energies=              -313.089323
 Sum of electronic and thermal Enthalpies=            -313.088379
 Sum of electronic and thermal Free Energies=         -313.132214

                     E (Thermal)             CV                S
                      KCal/Mol        Cal/Mol-Kelvin    Cal/Mol-Kelvin
 Total                  131.813             32.619             92.258
 Electronic               0.000              0.000              0.000
 Translational            0.889              2.981             40.005
 Rotational               0.889              2.981             28.630
 Vibrational            130.036             26.657             23.622
 Vibration     1          0.597              1.971              4.324
 Vibration     2          0.600              1.962              3.860
 Vibration     3          0.605              1.944              3.341
 Vibration     4          0.621              1.892              2.560
 Vibration     5          0.659              1.773              1.774
 Vibration     6          0.682              1.706              1.518
 Vibration     7          0.700              1.652              1.355
 Vibration     8          0.722              1.590              1.199
 Vibration     9          0.854              1.252              0.661
 Vibration    10          0.966              1.017              0.438

 Optimization completed.
    -- Stationary point found.
 Normal termination of Gaussian 16 at Thu Aug  4 04:46:59 2022.
