 Gaussian 16, Revision A.03,
 Gaussian 16:  ES64L-G16RevA.03 25-Dec-2016

 -----------------------------
 # opt freq b3lyp/6-31g(2df,p)
 -----------------------------

 -------------------
 Title Card Required
 -------------------
 Symbolic Z-matrix:
 Charge =  0 Multiplicity = 1

 SCF Done:  E(RB3LYP) =  -389.737326719     A.U. after   12 cycles
 SCF Done:  E(RB3LYP) =  -389.741370610     A.U. after   10 cycles
 SCF Done:  E(RB3LYP) =  -389.742803231     A.U. after   10 cycles
 SCF Done:  E(RB3LYP) =  -389.743064902     A.U. after   10 cycles
 SCF Done:  E(RB3LYP) =  -389.743105936     A.U. after    8 cycles
 SCF Done:  E(RB3LYP) =  -389.743197739     A.U. after    9 cycles
 SCF Done:  E(RB3LYP) =  -389.743256171     A.U. after    9 cycles
 SCF Done:  E(RB3LYP) =  -389.743362610     A.U. after   10 cycles
 SCF Done:  E(RB3LYP) =  -389.743467551     A.U. after   10 cycles
 SCF Done:  E(RB3LYP) =  -389.743549224     A.U. after    9 cycles
 SCF Done:  E(RB3LYP) =  -389.743680133     A.U. after   10 cycles
 SCF Done:  E(RB3LYP) =  -389.743682707     A.U. after    9 cycles
 SCF Done:  E(RB3LYP) =  -389.743653371     A.U. after    9 cycles
 SCF Done:  E(RB3LYP) =  -389.743686168     A.U. after   10 cycles
 SCF Done:  E(RB3LYP) =  -389.743685103     A.U. after    8 cycles
 SCF Done:  E(RB3LYP) =  -389.743686657     A.U. after    8 cycles
 SCF Done:  E(RB3LYP) =  -389.743686316     A.U. after    7 cycles
 SCF Done:  E(RB3LYP) =  -389.743686670     A.U. after    7 cycles
 Optimization completed.
    -- Stationary point found.
 Normal termination of Gaussian 16 at Thu Aug  4 08:38:31 2022.

 ----------------------------------------------------------------------
 #N Geom=AllCheck Guess=TCheck SCRF=Check GenChk RB3LYP/6-31G(2df,p) Fr
 eq
 ----------------------------------------------------------------------

 Structure from the checkpoint file:  "CCCC1pCpCCCO1.chk"
 -------------------
 Title Card Required
 -------------------
 Charge =  0 Multiplicity = 1

                         Standard orientation:
 ---------------------------------------------------------------------
 Center     Atomic      Atomic             Coordinates (Angstroms)
 Number     Number       Type             X           Y           Z
 ---------------------------------------------------------------------
      1          6           0       -3.520651   -0.624373   -0.098373
      2          6           0       -2.227119    0.011329    0.421283
      3          6           0       -1.062143   -0.142359   -0.564888
      4          6           0        0.299926    0.395223   -0.092422
      5          6           0        0.285856    1.914291    0.109648
      6          6           0        0.850916   -0.354034    1.149616
      7          6           0        2.333390   -0.569999    0.812281
      8          6           0        2.263857   -0.762069   -0.702713
      9          8           0        1.252506    0.127339   -1.151229
     10          1           0       -4.341773   -0.499598    0.614538
     11          1           0       -3.391287   -1.698077   -0.274281
     12          1           0       -3.830158   -0.171129   -1.046627
     13          1           0       -1.961873   -0.443544    1.384420
     14          1           0       -2.406521    1.073603    0.625529
     15          1           0       -1.313556    0.355303   -1.509984
     16          1           0       -0.930536   -1.205367   -0.806101
     17          1           0       -0.450013    2.216004    0.860986
     18          1           0        0.046039    2.416027   -0.832577
     19          1           0        1.269821    2.264725    0.435488
     20          1           0        0.348894   -1.321377    1.261777
     21          1           0        0.696610    0.206634    2.074508
     22          1           0        2.777027   -1.421146    1.335250
     23          1           0        2.922358    0.320908    1.054257
     24          1           0        2.006600   -1.805739   -0.949956
     25          1           0        3.194124   -0.513994   -1.223993
 ---------------------------------------------------------------------

 SCF Done:  E(RB3LYP) =  -389.743686670     A.U. after    1 cycles

 The electronic state is 1-A.
 Alpha  occ. eigenvalues --  -19.12101 -10.22846 -10.21855 -10.18114 -10.17942
 Alpha  occ. eigenvalues --  -10.17782 -10.17092 -10.16984 -10.16618  -1.01887
 Alpha  occ. eigenvalues --   -0.80029  -0.77325  -0.74959  -0.67756  -0.66196
 Alpha  occ. eigenvalues --   -0.59689  -0.58541  -0.53381  -0.48546  -0.47815
 Alpha  occ. eigenvalues --   -0.45683  -0.44254  -0.41725  -0.41190  -0.40136
 Alpha  occ. eigenvalues --   -0.38303  -0.37569  -0.36375  -0.35330  -0.34368
 Alpha  occ. eigenvalues --   -0.33135  -0.33044  -0.31842  -0.31116  -0.29987
 Alpha  occ. eigenvalues --   -0.23618
 Alpha virt. eigenvalues --    0.07891   0.10285   0.10869   0.12168   0.12976
 Alpha virt. eigenvalues --    0.13628   0.14433   0.15063   0.15972   0.16878
 Alpha virt. eigenvalues --    0.17735   0.17990   0.18719   0.19364   0.20000

 Mulliken charges:
               1
     1  C   -0.377365
     2  C   -0.178525
     3  C   -0.209141
     4  C    0.394178
     5  C   -0.418434
     6  C   -0.261408
     7  C   -0.226224
     8  C   -0.069463
     9  O   -0.302652
    10  H    0.109218
    11  H    0.113332
    12  H    0.115402
    13  H    0.095872
    14  H    0.099036
    15  H    0.097215
    16  H    0.089138
    17  H    0.110875
    18  H    0.120013
    19  H    0.110157
    20  H    0.098041
    21  H    0.101510
    22  H    0.097730
    23  H    0.106278
    24  H    0.083535
    25  H    0.101682
 Sum of Mulliken charges =  -0.00000

 Dipole moment (field-independent basis, Debye):
    X=              0.0477    Y=             -0.4225    Z=              1.3482  Tot=              1.4137
 Quadrupole moment (field-independent basis, Debye-Ang):
   XX=            -56.0678   YY=            -56.8845   ZZ=            -59.8147
   XY=             -1.4419   XZ=              1.3984   YZ=              0.3842

  Exact polarizability: 103.187  -2.186  83.910  -0.376   0.741  79.323
 Approx polarizability: 125.170  -2.773 122.069  -1.587  -0.097 119.851

                      1                      2                      3
                      A                      A                      A
 Frequencies --     48.5541                83.5759               103.1561
 Red. masses --      2.6665                 1.8035                 2.2142
 Frc consts  --      0.0037                 0.0074                 0.0139
 IR Inten    --      1.0765                 0.0426                 0.1263

                      4                      5                      6
                      A                      A                      A
 Frequencies --    164.2103               228.7199               235.6850
 Red. masses --      3.0950                 1.8833                 1.0527
 Frc consts  --      0.0492                 0.0580                 0.0345
 IR Inten    --      0.6593                 0.3839                 0.2141

                      7                      8                      9
                      A                      A                      A
 Frequencies --    250.5123               309.1214               342.9364
 Red. masses --      1.1412                 2.6581                 2.3666
 Frc consts  --      0.0422                 0.1497                 0.1640
 IR Inten    --      0.0542                 0.0278                 0.0346

                     10                     11                     12
                      A                      A                      A
 Frequencies --    350.2968               419.5568               462.7459
 Red. masses --      2.4349                 3.0493                 2.5415
 Frc consts  --      0.1760                 0.3162                 0.3206
 IR Inten    --      2.2875                 3.3111                 3.0323

                     13                     14                     15
                      A                      A                      A
 Frequencies --    591.3635               656.2069               746.0578
 Red. masses --      1.9215                 3.4310                 1.1579
 Frc consts  --      0.3959                 0.8705                 0.3797
 IR Inten    --      0.8881                 3.0880                 2.1415

                     16                     17                     18
                      A                      A                      A
 Frequencies --    752.5903               854.4607               879.5652
 Red. masses --      2.9100                 1.8421                 1.5535
 Frc consts  --      0.9711                 0.7924                 0.7081
 IR Inten    --      2.3320                11.2837                 3.0605

                     19                     20                     21
                      A                      A                      A
 Frequencies --    883.2874               895.1393               922.5766
 Red. masses --      1.4860                 1.9868                 1.7457
 Frc consts  --      0.6831                 0.9380                 0.8754
 IR Inten    --      5.1846                 4.8923                 4.8472

                     22                     23                     24
                      A                      A                      A
 Frequencies --    935.1281               960.7827               998.7056
 Red. masses --      2.4219                 1.8616                 1.9646
 Frc consts  --      1.2478                 1.0125                 1.1545
 IR Inten    --      4.5366                 0.2603                 3.0445

                     25                     26                     27
                      A                      A                      A
 Frequencies --   1013.7364              1047.5228              1069.4703
 Red. masses --      1.5316                 2.1664                 1.5482
 Frc consts  --      0.9274                 1.4006                 1.0433
 IR Inten    --      2.0340                 2.9004                 1.3826

                     28                     29                     30
                      A                      A                      A
 Frequencies --   1090.7223              1102.6822              1138.6805
 Red. masses --      2.9696                 2.4238                 2.2115
 Frc consts  --      2.0815                 1.7364                 1.6894
 IR Inten    --     75.7466                50.1336                37.5470

                     31                     32                     33
                      A                      A                      A
 Frequencies --   1189.4599              1208.5905              1232.9830
 Red. masses --      1.5315                 1.5399                 1.8457
 Frc consts  --      1.2766                 1.3253                 1.6532
 IR Inten    --      0.2367                 1.7565                 9.0532

                     34                     35                     36
                      A                      A                      A
 Frequencies --   1235.8644              1271.6389              1300.4425
 Red. masses --      1.7470                 1.3870                 1.4855
 Frc consts  --      1.5721                 1.3215                 1.4801
 IR Inten    --     12.8701                 3.1294                 7.3391

                     37                     38                     39
                      A                      A                      A
 Frequencies --   1311.8350              1329.4245              1337.9361
 Red. masses --      1.3770                 1.3055                 1.4523
 Frc consts  --      1.3962                 1.3594                 1.5317
 IR Inten    --      0.6575                 0.7140                11.6589

                     40                     41                     42
                      A                      A                      A
 Frequencies --   1346.5766              1386.4291              1392.4213
 Red. masses --      1.2755                 1.3760                 1.4872
 Frc consts  --      1.3626                 1.5584                 1.6989
 IR Inten    --      1.2480                 4.6244                 1.1149

                     43                     44                     45
                      A                      A                      A
 Frequencies --   1406.2660              1412.5996              1476.9406
 Red. masses --      1.2825                 1.2329                 1.0714
 Frc consts  --      1.4943                 1.4495                 1.3770
 IR Inten    --      9.7360                 2.6435                 0.3449

                     46                     47                     48
                      A                      A                      A
 Frequencies --   1483.7428              1490.8955              1493.6345
 Red. masses --      1.0708                 1.0663                 1.0665
 Frc consts  --      1.3889                 1.3965                 1.4019
 IR Inten    --      0.6793                 3.2519                 3.5486

                     49                     50                     51
                      A                      A                      A
 Frequencies --   1494.7158              1499.4862              1501.5966
 Red. masses --      1.0639                 1.0426                 1.0862
 Frc consts  --      1.4005                 1.3811                 1.4430
 IR Inten    --      2.5691                 4.7526                 1.4246

                     52                     53                     54
                      A                      A                      A
 Frequencies --   1511.5078              1527.0608              2959.9948
 Red. masses --      1.0849                 1.0961                 1.0723
 Frc consts  --      1.4604                 1.5059                 5.5355
 IR Inten    --      2.9053                 1.4311                74.5841

                     55                     56                     57
                      A                      A                      A
 Frequencies --   3014.3083              3023.5307              3029.1717
 Red. masses --      1.0586                 1.0598                 1.0372
 Frc consts  --      5.6670                 5.7083                 5.6074
 IR Inten    --      5.7718                27.3005                45.6636

                     58                     59                     60
                      A                      A                      A
 Frequencies --   3036.9940              3043.4225              3044.6041
 Red. masses --      1.0409                 1.0708                 1.0875
 Frc consts  --      5.6564                 5.8436                 5.9396
 IR Inten    --     14.0698                12.9507                 5.1191

                     61                     62                     63
                      A                      A                      A
 Frequencies --   3048.4618              3065.8715              3069.4076
 Red. masses --      1.0635                 1.1024                 1.0884
 Frc consts  --      5.8231                 6.1051                 6.0418
 IR Inten    --     17.9999                30.9760                56.7547

                     64                     65                     66
                      A                      A                      A
 Frequencies --   3097.0617              3097.8412              3100.4700
 Red. masses --      1.1023                 1.0977                 1.1011
 Frc consts  --      6.2293                 6.2064                 6.2364
 IR Inten    --     45.4557                19.3414                34.8459

                     67                     68                     69
                      A                      A                      A
 Frequencies --   3107.1123              3110.4882              3114.7062
 Red. masses --      1.1043                 1.1019                 1.1014
 Frc consts  --      6.2814                 6.2813                 6.2956
 IR Inten    --     47.2186                32.6996                26.9735

 - Thermochemistry -
 -------------------
 Temperature   298.150 Kelvin.  Pressure   1.00000 Atm.
 Atom     1 has atomic number  6 and mass  12.00000

 Molecular mass:   128.12012 amu.
 Principal axes and moments of inertia in atomic units:
                           1         2         3
     Eigenvalues --   606.757891970.991462029.38389
           X            0.99996   0.00169   0.00921
           Y           -0.00239   0.99704   0.07681
           Z           -0.00905  -0.07683   0.99700
 This molecule is an asymmetric top.
 Rotational symmetry number  1.
 Warning -- assumption of classical behavior for rotation
           may cause significant error
 Rotational temperatures (Kelvin)      0.14275     0.04394     0.04268
 Rotational constants (GHZ):           2.97440     0.91565     0.88930
 Zero-point vibrational energy     600185.9 (Joules/Mol)
                                  143.44787 (Kcal/Mol)
 Warning -- explicit consideration of  13 degrees of freedom as
           vibrations may cause significant error
 Vibrational temperatures:     69.86   120.25   148.42   236.26   329.08
          (Kelvin)            339.10   360.43   444.76   493.41   504.00
                              603.65   665.79   850.84   944.14  1073.41
                             1082.81  1229.38  1265.50  1270.85  1287.91
                             1327.38  1345.44  1382.35  1436.91  1458.54
                             1507.15  1538.73  1569.31  1586.51  1638.31
                             1711.37  1738.89  1773.99  1778.13  1829.60
                             1871.05  1887.44  1912.75  1924.99  1937.42
                             1994.76  2003.38  2023.30  2032.42  2124.99
                             2134.77  2145.07  2149.01  2150.56  2157.43
                             2160.46  2174.72  2197.10  4258.77  4336.92
                             4350.19  4358.30  4369.56  4378.81  4380.51
                             4386.06  4411.11  4416.19  4455.98  4457.10
                             4460.88  4470.44  4475.30  4481.37

 Zero-point correction=                           0.228599 (Hartree/Particle)
 Thermal correction to Energy=                    0.238839
 Thermal correction to Enthalpy=                  0.239783
 Thermal correction to Gibbs Free Energy=         0.193012
 Sum of electronic and zero-point Energies=           -389.515088
 Sum of electronic and thermal Energies=              -389.504848
 Sum of electronic and thermal Enthalpies=            -389.503904
 Sum of electronic and thermal Free Energies=         -389.550675

                     E (Thermal)             CV                S
                      KCal/Mol        Cal/Mol-Kelvin    Cal/Mol-Kelvin
 Total                  149.874             38.490             98.439
 Electronic               0.000              0.000              0.000
 Translational            0.889              2.981             40.457
 Rotational               0.889              2.981             29.275
 Vibrational            148.096             32.529             28.708
 Vibration     1          0.595              1.978              4.875
 Vibration     2          0.600              1.960              3.805
 Vibration     3          0.605              1.947              3.394
 Vibration     4          0.623              1.886              2.501
 Vibration     5          0.651              1.797              1.889
 Vibration     6          0.655              1.786              1.835
 Vibration     7          0.663              1.762              1.727
 Vibration     8          0.698              1.656              1.367
 Vibration     9          0.722              1.590              1.198
 Vibration    10          0.727              1.575              1.165
 Vibration    11          0.782              1.428              0.893
 Vibration    12          0.820              1.333              0.758
 Vibration    13          0.949              1.050              0.465

 Optimization completed.
    -- Stationary point found.
 Normal termination of Gaussian 16 at Thu Aug  4 09:19:46 2022.
