 Gaussian 16, Revision A.03,
 Gaussian 16:  ES64L-G16RevA.03 25-Dec-2016

 -----------------------------
 # opt freq b3lyp/6-31g(2df,p)
 -----------------------------

 -------------------
 Title Card Required
 -------------------
 Symbolic Z-matrix:
 Charge =  0 Multiplicity = 1

 SCF Done:  E(RB3LYP) =  -389.736604247     A.U. after   12 cycles
 SCF Done:  E(RB3LYP) =  -389.739468234     A.U. after   10 cycles
 SCF Done:  E(RB3LYP) =  -389.740380064     A.U. after   10 cycles
 SCF Done:  E(RB3LYP) =  -389.742051928     A.U. after   11 cycles
 SCF Done:  E(RB3LYP) =  -389.742425030     A.U. after   11 cycles
 SCF Done:  E(RB3LYP) =  -389.743500652     A.U. after   11 cycles
 SCF Done:  E(RB3LYP) =  -389.743687506     A.U. after    9 cycles
 SCF Done:  E(RB3LYP) =  -389.743718810     A.U. after    9 cycles
 SCF Done:  E(RB3LYP) =  -389.743721401     A.U. after    7 cycles
 SCF Done:  E(RB3LYP) =  -389.743721662     A.U. after    6 cycles
 Optimization completed.
    -- Stationary point found.
 Normal termination of Gaussian 16 at Wed Aug  3 23:55:12 2022.

 ----------------------------------------------------------------------
 #N Geom=AllCheck Guess=TCheck SCRF=Check GenChk RB3LYP/6-31G(2df,p) Fr
 eq
 ----------------------------------------------------------------------

 Structure from the checkpoint file:  "CCCC1CCCCO1.chk"
 -------------------
 Title Card Required
 -------------------
 Charge =  0 Multiplicity = 1

                         Standard orientation:
 ---------------------------------------------------------------------
 Center     Atomic      Atomic             Coordinates (Angstroms)
 Number     Number       Type             X           Y           Z
 ---------------------------------------------------------------------
      1          6           0       -3.532973   -0.104557   -0.645402
      2          6           0       -2.333804   -0.226706    0.297984
      3          6           0       -1.133333    0.616775   -0.144131
      4          6           0        0.072926    0.495279    0.802142
      5          6           0        1.267198    1.380938    0.403025
      6          6           0        2.039205    0.805416   -0.793490
      7          6           0        2.409617   -0.656598   -0.512973
      8          6           0        1.159015   -1.443596   -0.119048
      9          8           0        0.487607   -0.862439    0.989212
     10          1           0       -4.374083   -0.715736   -0.303055
     11          1           0       -3.275839   -0.432630   -1.659100
     12          1           0       -3.882145    0.932045   -0.715134
     13          1           0       -2.023419   -1.274009    0.377682
     14          1           0       -2.630419    0.075901    1.311235
     15          1           0       -1.420691    1.676116   -0.184332
     16          1           0       -0.852343    0.345123   -1.169432
     17          1           0       -0.264626    0.798358    1.801068
     18          1           0        1.945361    1.444717    1.262746
     19          1           0        0.918063    2.398522    0.194362
     20          1           0        2.935598    1.403964   -0.987886
     21          1           0        1.426638    0.860408   -1.702681
     22          1           0        3.132120   -0.703022    0.311575
     23          1           0        2.879700   -1.122897   -1.386554
     24          1           0        1.412911   -2.460861    0.194643
     25          1           0        0.485219   -1.528197   -0.987488
 ---------------------------------------------------------------------

 SCF Done:  E(RB3LYP) =  -389.743721662     A.U. after    1 cycles

 The electronic state is 1-A.
 Alpha  occ. eigenvalues --  -19.12750 -10.22265 -10.21911 -10.17981 -10.17672
 Alpha  occ. eigenvalues --  -10.17582 -10.17295 -10.17211 -10.16852  -1.01917
 Alpha  occ. eigenvalues --   -0.79672  -0.78653  -0.74968  -0.68359  -0.63313
 Alpha  occ. eigenvalues --   -0.61805  -0.58121  -0.53481  -0.49386  -0.46551
 Alpha  occ. eigenvalues --   -0.44896  -0.44312  -0.43072  -0.41514  -0.40018
 Alpha  occ. eigenvalues --   -0.39026  -0.37594  -0.36761  -0.35934  -0.33775
 Alpha  occ. eigenvalues --   -0.33251  -0.31985  -0.31746  -0.31600  -0.27968
 Alpha  occ. eigenvalues --   -0.24052
 Alpha virt. eigenvalues --    0.08011   0.09883   0.10918   0.12376   0.13494
 Alpha virt. eigenvalues --    0.13914   0.14854   0.15339   0.16038   0.17170
 Alpha virt. eigenvalues --    0.17634   0.18372   0.18673   0.19076   0.19771

 Mulliken charges:
               1
     1  C   -0.383181
     2  C   -0.160030
     3  C   -0.188477
     4  C    0.123486
     5  C   -0.215441
     6  C   -0.201033
     7  C   -0.191872
     8  C   -0.066079
     9  O   -0.265938
    10  H    0.110694
    11  H    0.110526
    12  H    0.110284
    13  H    0.111299
    14  H    0.091990
    15  H    0.090301
    16  H    0.092398
    17  H    0.075167
    18  H    0.097531
    19  H    0.090478
    20  H    0.093296
    21  H    0.097470
    22  H    0.100610
    23  H    0.089974
    24  H    0.102674
    25  H    0.083871
 Sum of Mulliken charges =  -0.00000

 Dipole moment (field-independent basis, Debye):
    X=              0.3848    Y=              0.6519    Z=             -0.9489  Tot=              1.2139
 Quadrupole moment (field-independent basis, Debye-Ang):
   XX=            -57.0416   YY=            -56.9699   ZZ=            -58.9608
   XY=             -0.5867   XZ=             -0.9904   YZ=              2.1410

  Exact polarizability: 101.251  -0.835  85.852  -1.064   1.934  78.841
 Approx polarizability: 122.197  -2.522 123.418  -0.766   1.691 121.874

                      1                      2                      3
                      A                      A                      A
 Frequencies --     72.1667                77.1710               122.3342
 Red. masses --      2.7200                 1.7617                 2.8368
 Frc consts  --      0.0083                 0.0062                 0.0250
 IR Inten    --      0.0222                 0.1266                 0.6295

                      4                      5                      6
                      A                      A                      A
 Frequencies --    179.8834               237.9322               252.1153
 Red. masses --      2.3517                 1.5810                 1.4691
 Frc consts  --      0.0448                 0.0527                 0.0550
 IR Inten    --      0.6250                 1.4098                 1.4959

                      7                      8                      9
                      A                      A                      A
 Frequencies --    293.2059               358.6620               377.4801
 Red. masses --      2.5298                 2.1735                 2.1096
 Frc consts  --      0.1281                 0.1647                 0.1771
 IR Inten    --      0.3537                 3.1679                 0.0459

                     10                     11                     12
                      A                      A                      A
 Frequencies --    435.5073               497.9417               517.1839
 Red. masses --      3.7052                 2.9416                 2.1203
 Frc consts  --      0.4140                 0.4297                 0.3341
 IR Inten    --      3.3962                 1.7111                 4.7436

                     13                     14                     15
                      A                      A                      A
 Frequencies --    632.6526               744.3128               794.5210
 Red. masses --      1.9302                 1.2056                 2.6439
 Frc consts  --      0.4552                 0.3935                 0.9833
 IR Inten    --      1.5033                 2.1927                 4.5930

                     16                     17                     18
                      A                      A                      A
 Frequencies --    826.0193               851.0882               882.8603
 Red. masses --      1.5639                 2.1953                 2.1781
 Frc consts  --      0.6287                 0.9369                 1.0002
 IR Inten    --      1.4815                 4.3009                 1.5572

                     19                     20                     21
                      A                      A                      A
 Frequencies --    887.0158               898.1105               929.9652
 Red. masses --      1.7885                 1.8658                 1.4322
 Frc consts  --      0.8291                 0.8867                 0.7298
 IR Inten    --      8.8017                 4.0998                 0.4481

                     22                     23                     24
                      A                      A                      A
 Frequencies --    976.1563              1023.3253              1033.4699
 Red. masses --      2.0577                 1.7832                 1.7984
 Frc consts  --      1.1552                 1.1002                 1.1317
 IR Inten    --      3.7889                 7.7647                14.0888

                     25                     26                     27
                      A                      A                      A
 Frequencies --   1056.1032              1064.2375              1088.9395
 Red. masses --      2.0794                 1.8701                 3.0020
 Frc consts  --      1.3664                 1.2479                 2.0973
 IR Inten    --      5.5736                17.0875                44.0307

                     28                     29                     30
                      A                      A                      A
 Frequencies --   1094.1981              1149.5146              1179.4269
 Red. masses --      1.6446                 2.3867                 2.3559
 Frc consts  --      1.1601                 1.8581                 1.9309
 IR Inten    --     12.2668                18.7462                 5.9643

                     31                     32                     33
                      A                      A                      A
 Frequencies --   1211.3472              1224.2227              1260.5153
 Red. masses --      1.4042                 1.7140                 1.3676
 Frc consts  --      1.2140                 1.5135                 1.2803
 IR Inten    --      0.8846                32.4945                 5.1177

                     34                     35                     36
                      A                      A                      A
 Frequencies --   1288.2976              1290.5062              1309.4881
 Red. masses --      1.2821                 1.2578                 1.1655
 Frc consts  --      1.2537                 1.2342                 1.1775
 IR Inten    --      1.2474                10.5985                 4.3682

                     37                     38                     39
                      A                      A                      A
 Frequencies --   1327.1225              1349.9197              1365.3390
 Red. masses --      1.1013                 1.3656                 1.4104
 Frc consts  --      1.1428                 1.4662                 1.5491
 IR Inten    --      2.1169                 2.3072                 1.3115

                     40                     41                     42
                      A                      A                      A
 Frequencies --   1377.9968              1383.8270              1391.1464
 Red. masses --      1.4749                 1.3780                 1.3194
 Frc consts  --      1.6501                 1.5547                 1.5044
 IR Inten    --      0.7199                 2.0883                 4.0641

                     43                     44                     45
                      A                      A                      A
 Frequencies --   1401.4619              1413.2479              1419.1123
 Red. masses --      1.4681                 1.2424                 1.3188
 Frc consts  --      1.6989                 1.4620                 1.5648
 IR Inten    --     13.1486                 1.6137                 5.4817

                     46                     47                     48
                      A                      A                      A
 Frequencies --   1474.2724              1477.9597              1484.3278
 Red. masses --      1.0940                 1.0823                 1.0856
 Frc consts  --      1.4010                 1.3929                 1.4092
 IR Inten    --      1.1859                 1.0041                 4.8749

                     49                     50                     51
                      A                      A                      A
 Frequencies --   1492.5562              1497.3747              1499.9984
 Red. masses --      1.0564                 1.0951                 1.0412
 Frc consts  --      1.3866                 1.4466                 1.3803
 IR Inten    --      0.4744                 4.5394                 4.9515

                     52                     53                     54
                      A                      A                      A
 Frequencies --   1508.0700              1513.3376              2969.3655
 Red. masses --      1.0846                 1.0877                 1.0706
 Frc consts  --      1.4533                 1.4677                 5.5616
 IR Inten    --      0.6070                 4.4817                45.6892

                     55                     56                     57
                      A                      A                      A
 Frequencies --   3014.3725              3018.3319              3021.5025
 Red. masses --      1.0612                 1.0716                 1.0702
 Frc consts  --      5.6814                 5.7520                 5.7563
 IR Inten    --      0.3764                 3.4620                36.2611

                     58                     59                     60
                      A                      A                      A
 Frequencies --   3023.1764              3024.6138              3026.1914
 Red. masses --      1.0642                 1.0598                 1.0403
 Frc consts  --      5.7307                 5.7121                 5.6133
 IR Inten    --      7.2074                26.6577                42.3288

                     61                     62                     63
                      A                      A                      A
 Frequencies --   3032.4787              3052.0869              3064.1407
 Red. masses --      1.0714                 1.0909                 1.0949
 Frc consts  --      5.8050                 5.9870                 6.0566
 IR Inten    --     26.2738                45.0996                34.5576

                     64                     65                     66
                      A                      A                      A
 Frequencies --   3068.3168              3070.7569              3073.9976
 Red. masses --      1.1013                 1.0976                 1.0963
 Frc consts  --      6.1089                 6.0980                 6.1034
 IR Inten    --     19.4053                42.9490                20.0861

                     67                     68                     69
                      A                      A                      A
 Frequencies --   3078.4036              3094.5411              3098.7740
 Red. masses --      1.1021                 1.1020                 1.1003
 Frc consts  --      6.1534                 6.2177                 6.2252
 IR Inten    --     79.5827                68.8230                40.4124

 - Thermochemistry -
 -------------------
 Temperature   298.150 Kelvin.  Pressure   1.00000 Atm.
 Atom     1 has atomic number  6 and mass  12.00000

 Molecular mass:   128.12012 amu.
 Principal axes and moments of inertia in atomic units:
                           1         2         3
     Eigenvalues --   605.714681947.147082118.27291
           X            1.00000   0.00281   0.00081
           Y           -0.00285   0.99879   0.04907
           Z           -0.00067  -0.04907   0.99880
 This molecule is an asymmetric top.
 Rotational symmetry number  1.
 Warning -- assumption of classical behavior for rotation
           may cause significant error
 Rotational temperatures (Kelvin)      0.14299     0.04448     0.04089
 Rotational constants (GHZ):           2.97952     0.92686     0.85199
 Zero-point vibrational energy     605465.9 (Joules/Mol)
                                  144.70983 (Kcal/Mol)
 Warning -- explicit consideration of  12 degrees of freedom as
           vibrations may cause significant error
 Vibrational temperatures:    103.83   111.03   176.01   258.81   342.33
          (Kelvin)            362.74   421.86   516.03   543.11   626.60
                              716.43   744.11   910.25  1070.90  1143.14
                             1188.46  1224.53  1270.24  1276.22  1292.18
                             1338.01  1404.47  1472.34  1486.93  1519.50
                             1531.20  1566.74  1574.31  1653.90  1696.93
                             1742.86  1761.38  1813.60  1853.57  1856.75
                             1884.06  1909.43  1942.23  1964.42  1982.63
                             1991.02  2001.55  2016.39  2033.35  2041.79
                             2121.15  2126.45  2135.62  2147.46  2154.39
                             2158.16  2169.78  2177.36  4272.25  4337.01
                             4342.71  4347.27  4349.68  4351.74  4354.01
                             4363.06  4391.27  4408.62  4414.62  4418.13
                             4422.80  4429.14  4452.35  4458.44

 Zero-point correction=                           0.230610 (Hartree/Particle)
 Thermal correction to Energy=                    0.240229
 Thermal correction to Enthalpy=                  0.241173
 Thermal correction to Gibbs Free Energy=         0.195852
 Sum of electronic and zero-point Energies=           -389.513112
 Sum of electronic and thermal Energies=              -389.503493
 Sum of electronic and thermal Enthalpies=            -389.502549
 Sum of electronic and thermal Free Energies=         -389.547870

                     E (Thermal)             CV                S
                      KCal/Mol        Cal/Mol-Kelvin    Cal/Mol-Kelvin
 Total                  150.746             36.814             95.386
 Electronic               0.000              0.000              0.000
 Translational            0.889              2.981             40.457
 Rotational               0.889              2.981             29.303
 Vibrational            148.968             30.852             25.626
 Vibration     1          0.598              1.967              4.093
 Vibration     2          0.599              1.964              3.962
 Vibration     3          0.610              1.930              3.063
 Vibration     4          0.629              1.867              2.330
 Vibration     5          0.656              1.783              1.818
 Vibration     6          0.664              1.759              1.716
 Vibration     7          0.688              1.686              1.455
 Vibration     8          0.733              1.557              1.128
 Vibration     9          0.748              1.518              1.049
 Vibration    10          0.796              1.393              0.841
 Vibration    11          0.853              1.255              0.663
 Vibration    12          0.872              1.212              0.617

                           ! Non-Optimized Parameters !
 Normal termination of Gaussian 16 at Thu Aug  4 00:41:27 2022.
