 Gaussian 16, Revision A.03,
 Gaussian 16:  ES64L-G16RevA.03 25-Dec-2016

 -----------------------------
 # opt freq b3lyp/6-31g(2df,p)
 -----------------------------

 -------------------
 Title Card Required
 -------------------
 Symbolic Z-matrix:
 Charge =  0 Multiplicity = 1

 SCF Done:  E(RB3LYP) =  -406.938994254     A.U. after   12 cycles
 SCF Done:  E(RB3LYP) =  -406.942545907     A.U. after   11 cycles
 SCF Done:  E(RB3LYP) =  -406.943388050     A.U. after   10 cycles
 SCF Done:  E(RB3LYP) =  -406.943456021     A.U. after    9 cycles
 SCF Done:  E(RB3LYP) =  -406.943464473     A.U. after    8 cycles
 SCF Done:  E(RB3LYP) =  -406.943465872     A.U. after    7 cycles
 SCF Done:  E(RB3LYP) =  -406.943466011     A.U. after    7 cycles
 Optimization completed.
    -- Stationary point found.
 Normal termination of Gaussian 16 at Thu Aug  4 12:11:56 2022.

 ----------------------------------------------------------------------
 #N Geom=AllCheck Guess=TCheck SCRF=Check GenChk RB3LYP/6-31G(2df,p) Fr
 eq
 ----------------------------------------------------------------------

 Structure from the checkpoint file:  "CCCCNpOpCCC.chk"
 -------------------
 Title Card Required
 -------------------
 Charge =  0 Multiplicity = 1

                         Standard orientation:
 ---------------------------------------------------------------------
 Center     Atomic      Atomic             Coordinates (Angstroms)
 Number     Number       Type             X           Y           Z
 ---------------------------------------------------------------------
      1          6           0       -4.482223    0.034848   -0.258201
      2          6           0       -3.181403   -0.615863    0.219995
      3          6           0       -1.930798    0.143023   -0.235368
      4          6           0       -0.636114   -0.502490    0.253646
      5          7           0        0.551930    0.210672   -0.219447
      6          8           0        0.559858    1.481613    0.477727
      7          6           0        1.788261   -0.470056    0.169156
      8          6           0        3.028349    0.207333   -0.410637
      9          6           0        4.321143   -0.521294   -0.035312
     10          1           0       -5.358905   -0.525787    0.081105
     11          1           0       -4.521157    0.084248   -1.352128
     12          1           0       -4.573915    1.058709    0.120999
     13          1           0       -3.134955   -1.650778   -0.145139
     14          1           0       -3.187444   -0.682224    1.316010
     15          1           0       -1.969770    1.173846    0.134351
     16          1           0       -1.905595    0.199963   -1.331326
     17          1           0       -0.561183   -1.524656   -0.136564
     18          1           0       -0.638343   -0.569054    1.355860
     19          1           0        0.522682    2.118848   -0.243055
     20          1           0        1.713479   -1.495129   -0.213567
     21          1           0        1.870969   -0.533468    1.268573
     22          1           0        3.062573    1.239582   -0.047443
     23          1           0        2.924069    0.257041   -1.501265
     24          1           0        4.452674   -0.563827    1.051602
     25          1           0        5.196105   -0.016028   -0.455146
     26          1           0        4.323043   -1.551896   -0.408230
 ---------------------------------------------------------------------

 SCF Done:  E(RB3LYP) =  -406.943466011     A.U. after    1 cycles

 The electronic state is 1-A.
 Alpha  occ. eigenvalues --  -19.15395 -14.36066 -10.19814 -10.19813 -10.17699
 Alpha  occ. eigenvalues --  -10.17341 -10.17140 -10.17099 -10.16998  -1.04688
 Alpha  occ. eigenvalues --   -0.85279  -0.78987  -0.76349  -0.71005  -0.65469
 Alpha  occ. eigenvalues --   -0.60250  -0.57916  -0.57055  -0.51090  -0.46853
 Alpha  occ. eigenvalues --   -0.46063  -0.44733  -0.43928  -0.41296  -0.40760
 Alpha  occ. eigenvalues --   -0.39330  -0.38278  -0.37070  -0.35966  -0.35010
 Alpha  occ. eigenvalues --   -0.33948  -0.32901  -0.32621  -0.31976  -0.31780
 Alpha  occ. eigenvalues --   -0.27790  -0.22359
 Alpha virt. eigenvalues --    0.07552   0.09823   0.10348   0.10923   0.11745
 Alpha virt. eigenvalues --    0.13771   0.14098   0.14764   0.15530   0.16814
 Alpha virt. eigenvalues --    0.17686   0.18193   0.18999   0.19298   0.19529

 Mulliken charges:
               1
     1  C   -0.379023
     2  C   -0.162087
     3  C   -0.178319
     4  C   -0.087487
     5  N   -0.072252
     6  O   -0.416528
     7  C   -0.065197
     8  C   -0.182587
     9  C   -0.379691
    10  H    0.109914
    11  H    0.112975
    12  H    0.114026
    13  H    0.092093
    14  H    0.096731
    15  H    0.100454
    16  H    0.093750
    17  H    0.096929
    18  H    0.085840
    19  H    0.297512
    20  H    0.096486
    21  H    0.085229
    22  H    0.103541
    23  H    0.096624
    24  H    0.116409
    25  H    0.112812
    26  H    0.111848
 Sum of Mulliken charges =  -0.00000

 Dipole moment (field-independent basis, Debye):
    X=             -0.0329    Y=             -0.2364    Z=             -0.5830  Tot=              0.6300
 Quadrupole moment (field-independent basis, Debye-Ang):
   XX=            -58.0970   YY=            -55.6633   ZZ=            -59.7278
   XY=              0.1386   XZ=             -0.6527   YZ=             -1.7888

  Exact polarizability: 114.754  -0.710  84.021  -0.074  -1.246  77.017
 Approx polarizability: 122.374   0.209 127.285  -0.277   0.894 119.117

                      1                      2                      3
                      A                      A                      A
 Frequencies --     49.7925                71.4813                78.9020
 Red. masses --      2.9751                 1.6625                 2.4810
 Frc consts  --      0.0043                 0.0050                 0.0091
 IR Inten    --      0.0144                 0.2796                 0.0826

                      4                      5                      6
                      A                      A                      A
 Frequencies --     98.5148               124.2586               163.9484
 Red. masses --      2.5053                 2.4446                 2.1519
 Frc consts  --      0.0143                 0.0222                 0.0341
 IR Inten    --      0.2147                 0.0569                 0.0272

                      7                      8                      9
                      A                      A                      A
 Frequencies --    197.0353               241.2641               247.6548
 Red. masses --      2.7825                 1.1228                 1.1207
 Frc consts  --      0.0636                 0.0385                 0.0405
 IR Inten    --      0.0244                 0.2210                 0.1264

                     10                     11                     12
                      A                      A                      A
 Frequencies --    287.3567               325.8519               333.9151
 Red. masses --      3.8208                 1.3365                 3.1246
 Frc consts  --      0.1859                 0.0836                 0.2053
 IR Inten    --      1.1640                77.2190                32.9606

                     13                     14                     15
                      A                      A                      A
 Frequencies --    355.9368               435.3552               480.3460
 Red. masses --      2.1683                 2.5855                 2.8500
 Frc consts  --      0.1619                 0.2887                 0.3874
 IR Inten    --      4.8644                 7.4101                 3.4778

                     16                     17                     18
                      A                      A                      A
 Frequencies --    583.4215               744.3984               762.1492
 Red. masses --      3.7907                 1.0767                 1.1044
 Frc consts  --      0.7602                 0.3515                 0.3780
 IR Inten    --      0.0820                 2.5517                 2.0029

                     19                     20                     21
                      A                      A                      A
 Frequencies --    804.9825               835.6985               892.7073
 Red. masses --      1.2765                 3.4597                 1.2832
 Frc consts  --      0.4874                 1.4236                 0.6025
 IR Inten    --      2.4302                20.5110                 3.7592

                     22                     23                     24
                      A                      A                      A
 Frequencies --    904.8495               914.2326               951.5913
 Red. masses --      1.7616                 1.8201                 1.2298
 Frc consts  --      0.8498                 0.8963                 0.6561
 IR Inten    --      1.5352                 0.0789                 1.0188

                     25                     26                     27
                      A                      A                      A
 Frequencies --   1014.8334              1027.0402              1059.3680
 Red. masses --      3.3827                 3.6870                 2.6758
 Frc consts  --      2.0526                 2.2914                 1.7693
 IR Inten    --     13.0123                 4.1956                 3.7256

                     28                     29                     30
                      A                      A                      A
 Frequencies --   1071.8851              1082.5064              1124.1584
 Red. masses --      2.3294                 1.9455                 2.0524
 Frc consts  --      1.5769                 1.3432                 1.5281
 IR Inten    --      5.3061                23.2735                 0.8538

                     31                     32                     33
                      A                      A                      A
 Frequencies --   1156.1148              1195.6184              1201.6408
 Red. masses --      2.5043                 1.9534                 2.1654
 Frc consts  --      1.9721                 1.6453                 1.8422
 IR Inten    --      4.7556                 1.1598                 0.9758

                     34                     35                     36
                      A                      A                      A
 Frequencies --   1255.4332              1275.8806              1287.6010
 Red. masses --      1.3620                 1.2559                 1.3461
 Frc consts  --      1.2648                 1.2045                 1.3149
 IR Inten    --      1.8043                 2.7251                 8.5976

                     37                     38                     39
                      A                      A                      A
 Frequencies --   1317.2684              1323.8635              1324.9498
 Red. masses --      1.0999                 1.3529                 1.0982
 Frc consts  --      1.1245                 1.3970                 1.1358
 IR Inten    --      0.0684                12.4385                 0.8264

                     40                     41                     42
                      A                      A                      A
 Frequencies --   1334.0294              1365.0916              1381.1479
 Red. masses --      1.1586                 1.1812                 1.4674
 Frc consts  --      1.2148                 1.2969                 1.6493
 IR Inten    --      8.9305                29.8256                 1.2296

                     43                     44                     45
                      A                      A                      A
 Frequencies --   1398.1267              1411.7291              1413.2004
 Red. masses --      1.5983                 1.2519                 1.2376
 Frc consts  --      1.8408                 1.4701                 1.4562
 IR Inten    --     21.5358                 1.9232                 1.2408

                     46                     47                     48
                      A                      A                      A
 Frequencies --   1435.9297              1470.2924              1482.7120
 Red. masses --      1.4787                 1.0886                 1.0863
 Frc consts  --      1.7964                 1.3866                 1.4071
 IR Inten    --      1.0668                 0.2943                 1.0787

                     49                     50                     51
                      A                      A                      A
 Frequencies --   1488.1909              1496.2471              1499.7032
 Red. masses --      1.0590                 1.0484                 1.0403
 Frc consts  --      1.3818                 1.3829                 1.3786
 IR Inten    --      0.2677                 0.5922                 4.9051

                     52                     53                     54
                      A                      A                      A
 Frequencies --   1500.6852              1501.0173              1512.8190
 Red. masses --      1.0411                 1.0698                 1.0889
 Frc consts  --      1.3814                 1.4201                 1.4683
 IR Inten    --      5.0523                 0.9281                 2.2356

                     55                     56                     57
                      A                      A                      A
 Frequencies --   1514.5093              2948.8025              2956.6159
 Red. masses --      1.0907                 1.0688                 1.0688
 Frc consts  --      1.4741                 5.4757                 5.5046
 IR Inten    --      2.9867                 6.6746                77.0741

                     58                     59                     60
                      A                      A                      A
 Frequencies --   3010.8606              3024.9717              3028.6926
 Red. masses --      1.0589                 1.0582                 1.0372
 Frc consts  --      5.6559                 5.7053                 5.6055
 IR Inten    --     17.2412                18.0553                34.8278

                     61                     62                     63
                      A                      A                      A
 Frequencies --   3029.4862              3035.6755              3039.1342
 Red. masses --      1.0427                 1.0614                 1.0941
 Frc consts  --      5.6383                 5.7627                 5.9541
 IR Inten    --     34.9610                32.4308                16.2289

                     64                     65                     66
                      A                      A                      A
 Frequencies --   3044.4287              3055.4257              3075.4799
 Red. masses --      1.0896                 1.0898                 1.0996
 Frc consts  --      5.9503                 5.9941                 6.1281
 IR Inten    --      1.8541                13.6745                 0.5791

                     67                     68                     69
                      A                      A                      A
 Frequencies --   3079.2990              3096.1315              3099.8802
 Red. masses --      1.1012                 1.1022                 1.1027
 Frc consts  --      6.1522                 6.2250                 6.2430
 IR Inten    --     27.8528                58.8773                70.7088

                     70                     71                     72
                      A                      A                      A
 Frequencies --   3100.4796              3103.5040              3814.2862
 Red. masses --      1.1011                 1.1003                 1.0681
 Frc consts  --      6.2362                 6.2441                 9.1557
 IR Inten    --     40.8596                35.8237                38.9164

 - Thermochemistry -
 -------------------
 Temperature   298.150 Kelvin.  Pressure   1.00000 Atm.
 Atom     1 has atomic number  6 and mass  12.00000

 Molecular mass:   131.13101 amu.
 Principal axes and moments of inertia in atomic units:
                           1         2         3
     Eigenvalues --   329.962073592.504403764.05406
           X            0.99999  -0.00396   0.00101
           Y            0.00401   0.99853  -0.05410
           Z           -0.00079   0.05410   0.99853
 This molecule is an asymmetric top.
 Rotational symmetry number  1.
 Rotational temperatures (Kelvin)      0.26250     0.02411     0.02301
 Rotational constants (GHZ):           5.46954     0.50236     0.47947
 Zero-point vibrational energy     624165.9 (Joules/Mol)
                                  149.17923 (Kcal/Mol)
 Warning -- explicit consideration of  16 degrees of freedom as
           vibrations may cause significant error
 Vibrational temperatures:     71.64   102.85   113.52   141.74   178.78
          (Kelvin)            235.89   283.49   347.13   356.32   413.44
                              468.83   480.43   512.11   626.38   691.11
                              839.41  1071.02  1096.56  1158.19  1202.38
                             1284.41  1301.88  1315.38  1369.13  1460.12
                             1477.68  1524.19  1542.20  1557.49  1617.41
                             1663.39  1720.23  1728.89  1806.29  1835.71
                             1852.57  1895.26  1904.74  1906.31  1919.37
                             1964.06  1987.16  2011.59  2031.16  2033.28
                             2065.98  2115.42  2133.29  2141.17  2152.77
                             2157.74  2159.15  2159.63  2176.61  2179.04
                             4242.67  4253.91  4331.96  4352.26  4357.61
                             4358.75  4367.66  4372.64  4380.25  4396.08
                             4424.93  4430.42  4454.64  4460.04  4460.90
                             4465.25  5487.91

 Zero-point correction=                           0.237732 (Hartree/Particle)
 Thermal correction to Energy=                    0.249742
 Thermal correction to Enthalpy=                  0.250687
 Thermal correction to Gibbs Free Energy=         0.199587
 Sum of electronic and zero-point Energies=           -406.705734
 Sum of electronic and thermal Energies=              -406.693724
 Sum of electronic and thermal Enthalpies=            -406.692779
 Sum of electronic and thermal Free Energies=         -406.743879

                     E (Thermal)             CV                S
                      KCal/Mol        Cal/Mol-Kelvin    Cal/Mol-Kelvin
 Total                  156.716             42.771            107.549
 Electronic               0.000              0.000              0.000
 Translational            0.889              2.981             40.526
 Rotational               0.889              2.981             29.880
 Vibrational            154.938             36.810             37.143
 Vibration     1          0.595              1.978              4.826
 Vibration     2          0.598              1.968              4.112
 Vibration     3          0.600              1.963              3.918
 Vibration     4          0.604              1.950              3.483
 Vibration     5          0.610              1.929              3.033
 Vibration     6          0.623              1.887              2.504
 Vibration     7          0.636              1.844              2.161
 Vibration     8          0.658              1.777              1.794
 Vibration     9          0.661              1.767              1.747
 Vibration    10          0.685              1.697              1.489
 Vibration    11          0.710              1.624              1.281
 Vibration    12          0.715              1.608              1.241
 Vibration    13          0.731              1.563              1.140
 Vibration    14          0.796              1.393              0.841
 Vibration    15          0.837              1.294              0.709
 Vibration    16          0.940              1.067              0.479

                           ! Non-Optimized Parameters !
 Normal termination of Gaussian 16 at Thu Aug  4 12:45:31 2022.
