 Gaussian 16, Revision A.03,
 Gaussian 16:  ES64L-G16RevA.03 25-Dec-2016

 -----------------------------
 # opt freq b3lyp/6-31g(2df,p)
 -----------------------------

 -------------------
 Title Card Required
 -------------------
 Symbolic Z-matrix:
 Charge =  0 Multiplicity = 1

 SCF Done:  E(RB3LYP) =  -405.771386395     A.U. after   13 cycles
 SCF Done:  E(RB3LYP) =  -405.776794328     A.U. after   12 cycles
 SCF Done:  E(RB3LYP) =  -405.777700191     A.U. after   12 cycles
 SCF Done:  E(RB3LYP) =  -405.777521005     A.U. after   12 cycles
 SCF Done:  E(RB3LYP) =  -405.778775809     A.U. after   12 cycles
 SCF Done:  E(RB3LYP) =  -405.779298959     A.U. after   12 cycles
 SCF Done:  E(RB3LYP) =  -405.779568313     A.U. after   12 cycles
 SCF Done:  E(RB3LYP) =  -405.779641692     A.U. after   12 cycles
 SCF Done:  E(RB3LYP) =  -405.779715695     A.U. after   10 cycles
 SCF Done:  E(RB3LYP) =  -405.779761754     A.U. after   10 cycles
 SCF Done:  E(RB3LYP) =  -405.780449092     A.U. after   10 cycles
 SCF Done:  E(RB3LYP) =  -405.780485102     A.U. after   10 cycles
 SCF Done:  E(RB3LYP) =  -405.780516542     A.U. after   10 cycles
 SCF Done:  E(RB3LYP) =  -405.780523294     A.U. after    9 cycles
 SCF Done:  E(RB3LYP) =  -405.780526040     A.U. after    9 cycles
 SCF Done:  E(RB3LYP) =  -405.780528633     A.U. after    8 cycles
 SCF Done:  E(RB3LYP) =  -405.780529509     A.U. after    8 cycles
 SCF Done:  E(RB3LYP) =  -405.780529962     A.U. after    9 cycles
 SCF Done:  E(RB3LYP) =  -405.780529964     A.U. after    6 cycles
 Optimization completed.
    -- Stationary point found.
 Normal termination of Gaussian 16 at Sun Jul  3 17:50:18 2022.

 ----------------------------------------------------------------------
 #N Geom=AllCheck Guess=TCheck SCRF=Check GenChk RB3LYP/6-31G(2df,p) Fr
 eq
 ----------------------------------------------------------------------

 Structure from the checkpoint file:  "CCCCNCCpCpdO.chk"
 -------------------
 Title Card Required
 -------------------
 Charge =  0 Multiplicity = 1

                         Standard orientation:
 ---------------------------------------------------------------------
 Center     Atomic      Atomic             Coordinates (Angstroms)
 Number     Number       Type             X           Y           Z
 ---------------------------------------------------------------------
      1          6           0       -4.561314    0.485405    0.201419
      2          6           0       -3.364760   -0.358821   -0.245255
      3          6           0       -2.019510    0.231269    0.190067
      4          6           0       -0.823197   -0.613648   -0.245222
      5          7           0        0.437587    0.009017    0.153970
      6          6           0        1.614374   -0.774731   -0.192490
      7          6           0        2.929774   -0.024253    0.033100
      8          6           0        2.933841    1.463106   -0.258375
      9          8           0        3.919269   -0.617732    0.395061
     10          1           0       -5.506930    0.041709   -0.124998
     11          1           0       -4.507708    1.498252   -0.212810
     12          1           0       -4.595803    0.577147    1.292740
     13          1           0       -3.377364   -0.462263   -1.338294
     14          1           0       -3.463543   -1.375875    0.156338
     15          1           0       -2.008366    0.336088    1.284964
     16          1           0       -1.902296    1.243440   -0.216250
     17          1           0       -0.816160   -0.705962   -1.339864
     18          1           0       -0.933148   -1.641397    0.150129
     19          1           0        0.421873    0.161926    1.158596
     20          1           0        1.566917   -0.989954   -1.271042
     21          1           0        1.695226   -1.748285    0.317995
     22          1           0        2.535835    1.657188   -1.260027
     23          1           0        3.949953    1.849204   -0.169824
     24          1           0        2.269005    1.987559    0.434591
 ---------------------------------------------------------------------

 SCF Done:  E(RB3LYP) =  -405.780529964     A.U. after    1 cycles

 The electronic state is 1-A.
 Alpha  occ. eigenvalues --  -19.12357 -14.32311 -10.26506 -10.21181 -10.20928
 Alpha  occ. eigenvalues --  -10.18437 -10.18287 -10.18089 -10.17602  -1.03460
 Alpha  occ. eigenvalues --   -0.91158  -0.79547  -0.75064  -0.71850  -0.67548
 Alpha  occ. eigenvalues --   -0.61999  -0.58594  -0.52985  -0.49600  -0.47043
 Alpha  occ. eigenvalues --   -0.46364  -0.45374  -0.43315  -0.42425  -0.41442
 Alpha  occ. eigenvalues --   -0.40274  -0.39488  -0.37746  -0.37649  -0.35594
 Alpha  occ. eigenvalues --   -0.34328  -0.33742  -0.33244  -0.32831  -0.24257
 Alpha  occ. eigenvalues --   -0.23040
 Alpha virt. eigenvalues --   -0.00934   0.07856   0.09023   0.10508   0.11756
 Alpha virt. eigenvalues --    0.13040   0.14055   0.14641   0.15413   0.16268
 Alpha virt. eigenvalues --    0.17196   0.17825   0.18500   0.18841   0.19488

 Mulliken charges:
               1
     1  C   -0.379918
     2  C   -0.162450
     3  C   -0.180372
     4  C   -0.117328
     5  N   -0.309576
     6  C   -0.229405
     7  C    0.357099
     8  C   -0.455997
     9  O   -0.294219
    10  H    0.112919
    11  H    0.115484
    12  H    0.114155
    13  H    0.097270
    14  H    0.097019
    15  H    0.088585
    16  H    0.105196
    17  H    0.102259
    18  H    0.079686
    19  H    0.216729
    20  H    0.124615
    21  H    0.104904
    22  H    0.137417
    23  H    0.133052
    24  H    0.142878
 Sum of Mulliken charges =  -0.00000

 Dipole moment (field-independent basis, Debye):
    X=             -2.7814    Y=              0.6961    Z=             -0.3269  Tot=              2.8858
 Quadrupole moment (field-independent basis, Debye-Ang):
   XX=            -70.6715   YY=            -57.4271   ZZ=            -54.5420
   XY=              5.3085   XZ=             -2.9033   YZ=              0.8350

  Exact polarizability: 110.927  -0.981  81.560   1.842  -0.486  72.025
 Approx polarizability: 129.013  -5.426 118.542   5.517  -2.044 112.322

                      1                      2                      3
                      A                      A                      A
 Frequencies --     34.5032                50.1544                71.1650
 Red. masses --      2.9269                 2.3400                 2.4387
 Frc consts  --      0.0021                 0.0035                 0.0073
 IR Inten    --      3.7958                 1.1109                 1.1905

                      4                      5                      6
                      A                      A                      A
 Frequencies --     84.9952               112.9247               136.6038
 Red. masses --      2.0499                 1.3961                 2.0870
 Frc consts  --      0.0087                 0.0105                 0.0229
 IR Inten    --      0.7394                 0.5182                 2.1470

                      7                      8                      9
                      A                      A                      A
 Frequencies --    148.2170               201.0802               248.8621
 Red. masses --      2.1932                 3.0684                 1.1215
 Frc consts  --      0.0284                 0.0731                 0.0409
 IR Inten    --      1.6303                 1.0364                 0.0521

                     10                     11                     12
                      A                      A                      A
 Frequencies --    265.3123               350.9732               429.6839
 Red. masses --      4.0907                 3.2447                 2.6337
 Frc consts  --      0.1697                 0.2355                 0.2865
 IR Inten    --      0.0389                 3.6137                 0.8620

                     13                     14                     15
                      A                      A                      A
 Frequencies --    464.2778               539.9590               560.1278
 Red. masses --      2.8157                 3.3202                 2.8439
 Frc consts  --      0.3576                 0.5703                 0.5257
 IR Inten    --      0.9180                19.2373                 0.9357

                     16                     17                     18
                      A                      A                      A
 Frequencies --    742.1821               777.3560               795.4382
 Red. masses --      1.0751                 1.9100                 1.5885
 Frc consts  --      0.3489                 0.6800                 0.5922
 IR Inten    --      2.1223                35.3045                22.1541

                     19                     20                     21
                      A                      A                      A
 Frequencies --    809.6944               881.8289               906.2753
 Red. masses --      1.1760                 1.4490                 1.8737
 Frc consts  --      0.4542                 0.6639                 0.9067
 IR Inten    --      2.1269                22.5530                 3.0066

                     22                     23                     24
                      A                      A                      A
 Frequencies --    953.0208               994.0511              1025.6386
 Red. masses --      1.2135                 1.7733                 2.8899
 Frc consts  --      0.6494                 1.0324                 1.7911
 IR Inten    --      2.6839                 3.5080                 0.9107

                     25                     26                     27
                      A                      A                      A
 Frequencies --   1045.5159              1068.3425              1083.2935
 Red. masses --      2.5042                 2.2591                 1.7788
 Frc consts  --      1.6128                 1.5192                 1.2299
 IR Inten    --      3.8656                 0.4675                 5.6839

                     28                     29                     30
                      A                      A                      A
 Frequencies --   1146.0680              1151.2943              1170.7673
 Red. masses --      2.4029                 3.4260                 1.5949
 Frc consts  --      1.8595                 2.6755                 1.2881
 IR Inten    --     13.8317                41.5026                15.4062

                     31                     32                     33
                      A                      A                      A
 Frequencies --   1223.6901              1242.4851              1273.9322
 Red. masses --      2.0444                 1.8211                 1.3387
 Frc consts  --      1.8036                 1.6564                 1.2800
 IR Inten    --     23.9552                43.1173                 6.3454

                     34                     35                     36
                      A                      A                      A
 Frequencies --   1297.3079              1320.3223              1326.4322
 Red. masses --      1.3111                 1.1464                 1.0779
 Frc consts  --      1.3001                 1.1775                 1.1174
 IR Inten    --     26.7833                 0.9751                 1.3249

                     37                     38                     39
                      A                      A                      A
 Frequencies --   1341.9861              1383.1637              1385.9914
 Red. masses --      1.4136                 1.3293                 1.4685
 Frc consts  --      1.5000                 1.4984                 1.6621
 IR Inten    --      5.0324                34.5117                 0.5091

                     40                     41                     42
                      A                      A                      A
 Frequencies --   1411.7338              1419.4322              1451.2281
 Red. masses --      1.3134                 1.4308                 1.0538
 Frc consts  --      1.5422                 1.6985                 1.3076
 IR Inten    --      3.7078                 9.9763                13.0438

                     43                     44                     45
                      A                      A                      A
 Frequencies --   1466.1108              1480.9633              1486.2300
 Red. masses --      1.0611                 1.0837                 1.0655
 Frc consts  --      1.3439                 1.4004                 1.3867
 IR Inten    --      5.5278                 9.2650                 0.2307

                     46                     47                     48
                      A                      A                      A
 Frequencies --   1494.3955              1496.0823              1500.1758
 Red. masses --      1.0704                 1.1954                 1.0432
 Frc consts  --      1.4083                 1.5764                 1.3832
 IR Inten    --      0.6767                21.5201                 5.5091

                     49                     50                     51
                      A                      A                      A
 Frequencies --   1509.1053              1522.3717              1814.9236
 Red. masses --      1.0757                 1.0923                10.7809
 Frc consts  --      1.4434                 1.4916                20.9229
 IR Inten    --      3.0727                 2.3258               167.0172

                     52                     53                     54
                      A                      A                      A
 Frequencies --   2920.6910              2971.2577              3000.8209
 Red. masses --      1.0723                 1.0621                 1.0657
 Frc consts  --      5.3896                 5.5247                 5.6541
 IR Inten    --     65.2557                49.3925                 7.8176

                     55                     56                     57
                      A                      A                      A
 Frequencies --   3015.2157              3016.9812              3026.4934
 Red. masses --      1.0625                 1.0964                 1.0783
 Frc consts  --      5.6912                 5.8796                 5.8195
 IR Inten    --     20.9827                18.2748                37.0351

                     58                     59                     60
                      A                      A                      A
 Frequencies --   3029.9581              3039.2508              3046.1615
 Red. masses --      1.0382                 1.0968                 1.0358
 Frc consts  --      5.6157                 5.9690                 5.6626
 IR Inten    --     41.4754                 3.1884                 2.2091

                     61                     62                     63
                      A                      A                      A
 Frequencies --   3064.2074              3096.5492              3102.6830
 Red. masses --      1.1013                 1.1021                 1.1010
 Frc consts  --      6.0927                 6.2264                 6.2448
 IR Inten    --     42.6626                55.8966                36.7829

                     64                     65                     66
                      A                      A                      A
 Frequencies --   3107.6430              3154.6935              3496.3350
 Red. masses --      1.0966                 1.1043                 1.0734
 Frc consts  --      6.2399                 6.4750                 7.7308
 IR Inten    --      6.7192                15.4867                 0.1166

 - Thermochemistry -
 -------------------
 Temperature   298.150 Kelvin.  Pressure   1.00000 Atm.
 Atom     1 has atomic number  6 and mass  12.00000

 Molecular mass:   129.11536 amu.
 Principal axes and moments of inertia in atomic units:
                           1         2         3
     Eigenvalues --   324.181583869.304404061.93762
           X            0.99996   0.00713  -0.00485
           Y           -0.00704   0.99981   0.01807
           Z            0.00497  -0.01803   0.99983
 This molecule is an asymmetric top.
 Rotational symmetry number  1.
 Rotational temperatures (Kelvin)      0.26718     0.02238     0.02132
 Rotational constants (GHZ):           5.56707     0.46643     0.44431
 Zero-point vibrational energy     563361.0 (Joules/Mol)
                                  134.64652 (Kcal/Mol)
 Warning -- explicit consideration of  15 degrees of freedom as
           vibrations may cause significant error
 Vibrational temperatures:     49.64    72.16   102.39   122.29   162.47
          (Kelvin)            196.54   213.25   289.31   358.06   381.73
                              504.97   618.22   667.99   776.88   805.90
                             1067.83  1118.44  1144.46  1164.97  1268.76
                             1303.93  1371.18  1430.22  1475.67  1504.26
                             1537.11  1558.62  1648.94  1656.46  1684.47
                             1760.62  1787.66  1832.90  1866.54  1899.65
                             1908.44  1930.82  1990.06  1994.13  2031.17
                             2042.25  2087.99  2109.41  2130.78  2138.35
                             2150.10  2152.53  2158.42  2171.27  2190.35
                             2611.27  4202.22  4274.98  4317.51  4338.22
                             4340.76  4354.45  4359.43  4372.80  4382.75
                             4408.71  4455.24  4464.07  4471.21  4538.90
                             5030.45

 Zero-point correction=                           0.214573 (Hartree/Particle)
 Thermal correction to Energy=                    0.226341
 Thermal correction to Enthalpy=                  0.227285
 Thermal correction to Gibbs Free Energy=         0.175451
 Sum of electronic and zero-point Energies=           -405.565957
 Sum of electronic and thermal Energies=              -405.554189
 Sum of electronic and thermal Enthalpies=            -405.553245
 Sum of electronic and thermal Free Energies=         -405.605078

                     E (Thermal)             CV                S
                      KCal/Mol        Cal/Mol-Kelvin    Cal/Mol-Kelvin
 Total                  142.031             40.323            109.094
 Electronic               0.000              0.000              0.000
 Translational            0.889              2.981             40.480
 Rotational               0.889              2.981             30.011
 Vibrational            140.254             34.362             38.602
 Vibration     1          0.594              1.983              5.552
 Vibration     2          0.595              1.978              4.811
 Vibration     3          0.598              1.968              4.121
 Vibration     4          0.601              1.960              3.772
 Vibration     5          0.607              1.939              3.218
 Vibration     6          0.614              1.917              2.851
 Vibration     7          0.618              1.905              2.695
 Vibration     8          0.638              1.838              2.123
 Vibration     9          0.662              1.765              1.739
 Vibration    10          0.671              1.737              1.627
 Vibration    11          0.728              1.573              1.162
 Vibration    12          0.791              1.406              0.860
 Vibration    13          0.822              1.329              0.754
 Vibration    14          0.895              1.162              0.565
 Vibration    15          0.916              1.118              0.524

 Optimization completed.
    -- Stationary point found.
 Normal termination of Gaussian 16 at Sun Jul  3 18:17:56 2022.
