 Gaussian 16, Revision A.03,
 Gaussian 16:  ES64L-G16RevA.03 25-Dec-2016

 -----------------------------
 # opt freq b3lyp/6-31g(2df,p)
 -----------------------------

 -------------------
 Title Card Required
 -------------------
 Symbolic Z-matrix:
 Charge =  0 Multiplicity = 1

 SCF Done:  E(RB3LYP) =  -402.021201521     A.U. after   15 cycles
 SCF Done:  E(RB3LYP) =  -402.046708556     A.U. after   12 cycles
 SCF Done:  E(RB3LYP) =  -402.048686622     A.U. after   13 cycles
 SCF Done:  E(RB3LYP) =  -402.048013148     A.U. after   13 cycles
 SCF Done:  E(RB3LYP) =  -402.049091457     A.U. after   11 cycles
 SCF Done:  E(RB3LYP) =  -402.049176028     A.U. after   11 cycles
 SCF Done:  E(RB3LYP) =  -402.049598603     A.U. after   13 cycles
 SCF Done:  E(RB3LYP) =  -402.050112061     A.U. after   13 cycles
 SCF Done:  E(RB3LYP) =  -402.050854148     A.U. after   13 cycles
 SCF Done:  E(RB3LYP) =  -402.052627482     A.U. after   13 cycles
 SCF Done:  E(RB3LYP) =  -402.054944402     A.U. after   10 cycles
 SCF Done:  E(RB3LYP) =  -402.054946915     A.U. after   10 cycles
 SCF Done:  E(RB3LYP) =  -402.054949950     A.U. after   11 cycles
 SCF Done:  E(RB3LYP) =  -402.054954325     A.U. after   11 cycles
 SCF Done:  E(RB3LYP) =  -402.054959066     A.U. after   12 cycles
 SCF Done:  E(RB3LYP) =  -402.054961983     A.U. after   10 cycles
 SCF Done:  E(RB3LYP) =  -402.054963347     A.U. after    9 cycles
 SCF Done:  E(RB3LYP) =  -402.054963360     A.U. after    9 cycles
 SCF Done:  E(RB3LYP) =  -402.054963368     A.U. after    7 cycles
 Optimization completed.
    -- Stationary point found.
 Normal termination of Gaussian 16 at Thu Aug  4 13:47:00 2022.

 ----------------------------------------------------------------------
 #N Geom=AllCheck Guess=TCheck SCRF=Check GenChk RB3LYP/6-31G(2df,p) Fr
 eq
 ----------------------------------------------------------------------

 Structure from the checkpoint file:  "CCCCtCC1NC1dO.chk"
 -------------------
 Title Card Required
 -------------------
 Charge =  0 Multiplicity = 1

                         Standard orientation:
 ---------------------------------------------------------------------
 Center     Atomic      Atomic             Coordinates (Angstroms)
 Number     Number       Type             X           Y           Z
 ---------------------------------------------------------------------
      1          6           0        4.444929    0.049474    0.190303
      2          6           0        3.020202   -0.450187   -0.055400
      3          6           0        1.977016    0.680885    0.058922
      4          6           0        0.608564    0.237213   -0.173188
      5          6           0       -0.515841   -0.151293   -0.374023
      6          6           0       -1.855001   -0.599031   -0.605114
      7          7           0       -2.734759   -1.057395    0.571646
      8          6           0       -2.984918    0.156407    0.014961
      9          8           0       -3.635630    1.150565    0.108102
     10          1           0        5.168450   -0.766466    0.104657
     11          1           0        4.547746    0.482237    1.191645
     12          1           0        4.726082    0.821537   -0.534480
     13          1           0        2.767095   -1.238983    0.661708
     14          1           0        2.944109   -0.901731   -1.050689
     15          1           0        2.223028    1.478028   -0.655738
     16          1           0        2.043984    1.141552    1.053751
     17          1           0       -2.016728   -1.219706   -1.482520
     18          1           0       -2.345120   -1.140038    1.506558
 ---------------------------------------------------------------------

 SCF Done:  E(RB3LYP) =  -402.054963368     A.U. after    1 cycles

 The electronic state is 1-A.
 Alpha  occ. eigenvalues --  -19.14504 -14.36620 -10.30569 -10.25810 -10.21497
 Alpha  occ. eigenvalues --  -10.19608 -10.19246 -10.18588 -10.18434  -1.06496
 Alpha  occ. eigenvalues --   -0.98299  -0.81617  -0.76695  -0.72072  -0.67820
 Alpha  occ. eigenvalues --   -0.61633  -0.60157  -0.52290  -0.48355  -0.47918
 Alpha  occ. eigenvalues --   -0.47620  -0.45622  -0.42604  -0.40897  -0.39586
 Alpha  occ. eigenvalues --   -0.39061  -0.37239  -0.35774  -0.34589  -0.31294
 Alpha  occ. eigenvalues --   -0.28982  -0.26894  -0.23523
 Alpha virt. eigenvalues --   -0.01345   0.01535   0.05009   0.08717   0.10541
 Alpha virt. eigenvalues --    0.12709   0.12890   0.13143   0.14144   0.16003
 Alpha virt. eigenvalues --    0.16574   0.18100   0.19776   0.20928   0.22921

 Mulliken charges:
               1
     1  C   -0.382652
     2  C   -0.156551
     3  C   -0.339537
     4  C    0.049966
     5  C    0.136188
     6  C   -0.347018
     7  N   -0.359454
     8  C    0.457120
     9  O   -0.316868
    10  H    0.118197
    11  H    0.117854
    12  H    0.118759
    13  H    0.109556
    14  H    0.112068
    15  H    0.135378
    16  H    0.132431
    17  H    0.143699
    18  H    0.270865
 Sum of Mulliken charges =  -0.00000

 Dipole moment (field-independent basis, Debye):
    X=              3.4937    Y=             -1.5068    Z=              0.5617  Tot=              3.8460
 Quadrupole moment (field-independent basis, Debye-Ang):
   XX=            -60.3178   YY=            -55.3534   ZZ=            -48.9953
   XY=              6.5763   XZ=              0.0358   YZ=             -0.1807

  Exact polarizability: 127.004   3.274  68.452  -0.905  -0.057  62.702
 Approx polarizability: 167.433   6.821 112.806   0.115  -1.018  96.128

                      1                      2                      3
                      A                      A                      A
 Frequencies --      7.3529                61.9652                72.0552
 Red. masses --      2.6451                 5.6296                 2.3084
 Frc consts  --      0.0001                 0.0127                 0.0071
 IR Inten    --      0.8083                 1.1746                 0.2922

                      4                      5                      6
                      A                      A                      A
 Frequencies --    124.8304               146.5037               241.1133
 Red. masses --      4.9981                 3.8501                 1.0805
 Frc consts  --      0.0459                 0.0487                 0.0370
 IR Inten    --      0.5019                 1.3822                 0.0405

                      7                      8                      9
                      A                      A                      A
 Frequencies --    297.7258               323.9536               374.9781
 Red. masses --      3.1032                 3.9358                 5.2325
 Frc consts  --      0.1621                 0.2434                 0.4335
 IR Inten    --      1.7368                 3.6970                 3.6055

                     10                     11                     12
                      A                      A                      A
 Frequencies --    461.5255               488.1352               519.0540
 Red. masses --      5.1197                 4.0888                 5.2451
 Frc consts  --      0.6425                 0.5740                 0.8326
 IR Inten    --      2.1831                 3.0274                 8.0211

                     13                     14                     15
                      A                      A                      A
 Frequencies --    568.2460               700.9179               741.0677
 Red. masses --      1.7614                 8.9900                 1.1096
 Frc consts  --      0.3351                 2.6022                 0.3590
 IR Inten    --    186.8844                40.0201                 2.7946

                     16                     17                     18
                      A                      A                      A
 Frequencies --    771.9350               808.8686               869.7839
 Red. masses --      3.6840                 4.1051                 1.2351
 Frc consts  --      1.2934                 1.5824                 0.5505
 IR Inten    --      4.1629                44.2845                 0.2066

                     19                     20                     21
                      A                      A                      A
 Frequencies --    890.8219               964.0708              1039.5381
 Red. masses --      2.0097                 2.8688                 2.7431
 Frc consts  --      0.9397                 1.5710                 1.7465
 IR Inten    --      2.4604                 5.3547                 1.9910

                     22                     23                     24
                      A                      A                      A
 Frequencies --   1060.9947              1090.7727              1108.1895
 Red. masses --      1.6466                 1.6054                 2.0394
 Frc consts  --      1.0921                 1.1254                 1.4756
 IR Inten    --     42.1104                14.4010                 3.6992

                     25                     26                     27
                      A                      A                      A
 Frequencies --   1119.9495              1172.0462              1211.3385
 Red. masses --      1.4559                 3.4242                 2.1012
 Frc consts  --      1.0759                 2.7714                 1.8166
 IR Inten    --      1.2822                51.9128                 0.0867

                     28                     29                     30
                      A                      A                      A
 Frequencies --   1258.4228              1305.8413              1321.8628
 Red. masses --      1.3028                 1.3805                 1.0807
 Frc consts  --      1.2156                 1.3869                 1.1125
 IR Inten    --      0.0590                16.3415                 0.0637

                     31                     32                     33
                      A                      A                      A
 Frequencies --   1336.8172              1381.2326              1413.9415
 Red. masses --      1.5881                 1.5284                 1.2351
 Frc consts  --      1.6721                 1.7180                 1.4548
 IR Inten    --     21.7663                 1.7511                 0.6771

                     34                     35                     36
                      A                      A                      A
 Frequencies --   1467.3651              1491.5268              1499.1189
 Red. masses --      1.0846                 1.0533                 1.0398
 Frc consts  --      1.3760                 1.3806                 1.3768
 IR Inten    --      3.0003                 0.6733                 5.7397

                     37                     38                     39
                      A                      A                      A
 Frequencies --   1508.4454              1979.8943              2352.2529
 Red. masses --      1.0795                12.1619                11.8608
 Frc consts  --      1.4471                28.0890                38.6661
 IR Inten    --      3.5838               513.0824                12.8663

                     40                     41                     42
                      A                      A                      A
 Frequencies --   3012.0090              3030.8648              3039.5925
 Red. masses --      1.0581                 1.0368                 1.0999
 Frc consts  --      5.6558                 5.6115                 5.9871
 IR Inten    --     12.5994                24.2466                 4.1609

                     43                     44                     45
                      A                      A                      A
 Frequencies --   3042.0721              3074.6498              3101.4804
 Red. masses --      1.0591                 1.1028                 1.1033
 Frc consts  --      5.7744                 6.1422                 6.2531
 IR Inten    --     27.8997                 3.3532                53.0534

                     46                     47                     48
                      A                      A                      A
 Frequencies --   3108.0478              3139.0925              3528.3981
 Red. masses --      1.1005                 1.0869                 1.0776
 Frc consts  --      6.2636                 6.3104                 7.9042
 IR Inten    --     30.0340                 8.8989                28.2295

 - Thermochemistry -
 -------------------
 Temperature   298.150 Kelvin.  Pressure   1.00000 Atm.
 Atom     1 has atomic number  6 and mass  12.00000

 Molecular mass:   123.06841 amu.
 Principal axes and moments of inertia in atomic units:
                           1         2         3
     Eigenvalues --   291.329093531.334043672.44907
           X            0.99997   0.00711   0.00266
           Y           -0.00715   0.99989   0.01301
           Z           -0.00257  -0.01303   0.99991
 This molecule is an asymmetric top.
 Rotational symmetry number  1.
 Rotational temperatures (Kelvin)      0.29731     0.02453     0.02358
 Rotational constants (GHZ):           6.19485     0.51106     0.49143
 Zero-point vibrational energy     380595.9 (Joules/Mol)
                                   90.96460 (Kcal/Mol)
 Warning -- explicit consideration of  13 degrees of freedom as
           vibrations may cause significant error
 Vibrational temperatures:     10.58    89.15   103.67   179.60   210.79
          (Kelvin)            346.91   428.36   466.10   539.51   664.03
                              702.32   746.80   817.58  1008.46  1066.23
                             1110.64  1163.78  1251.43  1281.69  1387.08
                             1495.66  1526.53  1569.38  1594.44  1611.36
                             1686.31  1742.85  1810.59  1878.81  1901.87
                             1923.38  1987.29  2034.35  2111.21  2145.97
                             2156.90  2170.32  2848.63  3384.37  4333.61
                             4360.74  4373.30  4376.86  4423.74  4462.34
                             4471.79  4516.45  5076.58

 Zero-point correction=                           0.144961 (Hartree/Particle)
 Thermal correction to Energy=                    0.154962
 Thermal correction to Enthalpy=                  0.155906
 Thermal correction to Gibbs Free Energy=         0.106933
 Sum of electronic and zero-point Energies=           -401.910002
 Sum of electronic and thermal Energies=              -401.900002
 Sum of electronic and thermal Enthalpies=            -401.899057
 Sum of electronic and thermal Free Energies=         -401.948030

                     E (Thermal)             CV                S
                      KCal/Mol        Cal/Mol-Kelvin    Cal/Mol-Kelvin
 Total                   97.240             34.657            103.072
 Electronic               0.000              0.000              0.000
 Translational            0.889              2.981             40.337
 Rotational               0.889              2.981             29.714
 Vibrational             95.463             28.695             33.021
 Vibration     1          0.593              1.987              8.622
 Vibration     2          0.597              1.972              4.394
 Vibration     3          0.598              1.967              4.096
 Vibration     4          0.610              1.928              3.024
 Vibration     5          0.617              1.906              2.717
 Vibration     6          0.658              1.777              1.795
 Vibration     7          0.691              1.678              1.430
 Vibration     8          0.709              1.628              1.290
 Vibration     9          0.746              1.523              1.059
 Vibration    10          0.819              1.335              0.762
 Vibration    11          0.844              1.276              0.688
 Vibration    12          0.874              1.208              0.612
 Vibration    13          0.924              1.100              0.508

 Optimization completed.
    -- Stationary point found.
 Normal termination of Gaussian 16 at Thu Aug  4 14:07:53 2022.
