 Gaussian 16, Revision A.03,
 Gaussian 16:  ES64L-G16RevA.03 25-Dec-2016

 -----------------------------
 # opt freq b3lyp/6-31g(2df,p)
 -----------------------------

 -------------------
 Title Card Required
 -------------------
 Symbolic Z-matrix:
 Charge =  0 Multiplicity = 1

 SCF Done:  E(RB3LYP) =  -389.705544574     A.U. after   12 cycles
 SCF Done:  E(RB3LYP) =  -389.712851421     A.U. after   10 cycles
 SCF Done:  E(RB3LYP) =  -389.714207417     A.U. after   10 cycles
 SCF Done:  E(RB3LYP) =  -389.715497864     A.U. after   11 cycles
 SCF Done:  E(RB3LYP) =  -389.715916095     A.U. after   10 cycles
 SCF Done:  E(RB3LYP) =  -389.716044044     A.U. after    9 cycles
 SCF Done:  E(RB3LYP) =  -389.716068978     A.U. after    8 cycles
 SCF Done:  E(RB3LYP) =  -389.716077409     A.U. after    8 cycles
 SCF Done:  E(RB3LYP) =  -389.716081159     A.U. after    8 cycles
 SCF Done:  E(RB3LYP) =  -389.716082437     A.U. after    7 cycles
 SCF Done:  E(RB3LYP) =  -389.716082653     A.U. after    6 cycles
 SCF Done:  E(RB3LYP) =  -389.716082705     A.U. after    6 cycles
 Optimization completed.
    -- Stationary point found.
 Normal termination of Gaussian 16 at Thu Aug  4 10:23:11 2022.

 ----------------------------------------------------------------------
 #N Geom=AllCheck Guess=TCheck SCRF=Check GenChk RB3LYP/6-31G(2df,p) Fr
 eq
 ----------------------------------------------------------------------

 Structure from the checkpoint file:  "CCCCpOpC1CC1C.chk"
 -------------------
 Title Card Required
 -------------------
 Charge =  0 Multiplicity = 1

                         Standard orientation:
 ---------------------------------------------------------------------
 Center     Atomic      Atomic             Coordinates (Angstroms)
 Number     Number       Type             X           Y           Z
 ---------------------------------------------------------------------
      1          6           0        3.977108   -0.482594   -0.276594
      2          6           0        2.728112    0.143006    0.349081
      3          6           0        1.425125   -0.343764   -0.292368
      4          6           0        0.169004    0.326762    0.280374
      5          8           0        0.226478    1.749043    0.141376
      6          6           0       -1.102832   -0.240606   -0.313278
      7          6           0       -1.790989   -1.424395    0.329051
      8          6           0       -2.421977   -0.054650    0.387832
      9          6           0       -3.679717    0.250521   -0.393804
     10          1           0        4.889969   -0.118018    0.205007
     11          1           0        4.047749   -0.244741   -1.344208
     12          1           0        3.965904   -1.574665   -0.184318
     13          1           0        2.771663    1.234384    0.269761
     14          1           0        2.703930   -0.082037    1.423820
     15          1           0        1.327911   -1.430897   -0.173482
     16          1           0        1.455719   -0.159275   -1.377672
     17          1           0        0.147440    0.167300    1.366887
     18          1           0        0.173350    1.949195   -0.799817
     19          1           0       -1.133694   -0.211815   -1.402808
     20          1           0       -1.358042   -1.834285    1.236253
     21          1           0       -2.240217   -2.168059   -0.321353
     22          1           0       -2.357913    0.447210    1.350392
     23          1           0       -3.683978   -0.276802   -1.354176
     24          1           0       -3.768296    1.322572   -0.602441
     25          1           0       -4.576315   -0.058082    0.155385
 ---------------------------------------------------------------------

 SCF Done:  E(RB3LYP) =  -389.716082705     A.U. after    1 cycles

 The electronic state is 1-A.
 Alpha  occ. eigenvalues --  -19.12737 -10.22579 -10.18649 -10.18303 -10.18114
 Alpha  occ. eigenvalues --  -10.17513 -10.17361 -10.17198 -10.16865  -1.00873
 Alpha  occ. eigenvalues --   -0.85850  -0.78400  -0.72433  -0.69845  -0.63741
 Alpha  occ. eigenvalues --   -0.58267  -0.58041  -0.56197  -0.49554  -0.47141
 Alpha  occ. eigenvalues --   -0.45272  -0.44757  -0.41378  -0.40802  -0.40167
 Alpha  occ. eigenvalues --   -0.39772  -0.37753  -0.36258  -0.35276  -0.34212
 Alpha  occ. eigenvalues --   -0.33960  -0.32192  -0.31011  -0.28665  -0.27035
 Alpha  occ. eigenvalues --   -0.25550
 Alpha virt. eigenvalues --    0.07713   0.09612   0.10509   0.10977   0.12440
 Alpha virt. eigenvalues --    0.13671   0.14516   0.15014   0.16111   0.16858
 Alpha virt. eigenvalues --    0.17097   0.17456   0.18303   0.18667   0.19251

 Mulliken charges:
               1
     1  C   -0.382074
     2  C   -0.163660
     3  C   -0.178166
     4  C    0.099469
     5  O   -0.433110
     6  C   -0.012946
     7  C   -0.295521
     8  C    0.006992
     9  C   -0.410833
    10  H    0.110757
    11  H    0.110041
    12  H    0.110646
    13  H    0.108589
    14  H    0.091355
    15  H    0.096662
    16  H    0.077755
    17  H    0.077586
    18  H    0.272890
    19  H    0.067352
    20  H    0.107215
    21  H    0.105955
    22  H    0.088038
    23  H    0.110172
    24  H    0.118339
    25  H    0.116498
 Sum of Mulliken charges =   0.00000

 Dipole moment (field-independent basis, Debye):
    X=             -0.3263    Y=             -0.7936    Z=             -1.0426  Tot=              1.3503
 Quadrupole moment (field-independent basis, Debye-Ang):
   XX=            -58.2705   YY=            -59.8293   ZZ=            -55.4505
   XY=             -0.1000   XZ=              0.3313   YZ=             -3.0136

  Exact polarizability: 109.778  -0.557  83.322   0.208  -1.671  78.507
 Approx polarizability: 123.389   0.441 124.834  -0.914  -2.716 122.221

                      1                      2                      3
                      A                      A                      A
 Frequencies --     48.6261                83.8805                90.2012
 Red. masses --      3.0093                 2.1357                 2.2779
 Frc consts  --      0.0042                 0.0089                 0.0109
 IR Inten    --      0.0681                 0.0440                 0.1051

                      4                      5                      6
                      A                      A                      A
 Frequencies --    107.3194               179.3252               209.2747
 Red. masses --      2.5752                 3.0564                 1.1556
 Frc consts  --      0.0175                 0.0579                 0.0298
 IR Inten    --      0.4633                 0.7074                 3.0564

                      7                      8                      9
                      A                      A                      A
 Frequencies --    245.5401               248.2531               257.0280
 Red. masses --      1.6496                 1.4149                 1.1012
 Frc consts  --      0.0586                 0.0514                 0.0429
 IR Inten    --      0.3027                11.6916                93.3407

                     10                     11                     12
                      A                      A                      A
 Frequencies --    284.4274               340.4770               374.0721
 Red. masses --      3.0888                 3.2322                 2.3486
 Frc consts  --      0.1472                 0.2208                 0.1936
 IR Inten    --      3.0760                11.3218                 3.4227

                     13                     14                     15
                      A                      A                      A
 Frequencies --    437.8733               493.6211               546.2414
 Red. masses --      2.4312                 2.9886                 2.5745
 Frc consts  --      0.2746                 0.4290                 0.4526
 IR Inten    --      2.4315                 4.8159                12.0051

                     16                     17                     18
                      A                      A                      A
 Frequencies --    748.0474               802.7366               833.2538
 Red. masses --      1.1356                 1.9189                 1.8384
 Frc consts  --      0.3744                 0.7285                 0.7520
 IR Inten    --      1.4856                 4.0904                 5.9485

                     19                     20                     21
                      A                      A                      A
 Frequencies --    858.0774               878.2653               888.0409
 Red. masses --      1.5518                 1.8029                 1.5646
 Frc consts  --      0.6732                 0.8193                 0.7270
 IR Inten    --      2.2997                 0.7213                 1.8346

                     22                     23                     24
                      A                      A                      A
 Frequencies --    920.5029               956.0920              1006.7494
 Red. masses --      1.6701                 1.7964                 1.9789
 Frc consts  --      0.8337                 0.9675                 1.1817
 IR Inten    --      9.7239                14.8137                11.6088

                     25                     26                     27
                      A                      A                      A
 Frequencies --   1043.3643              1048.3420              1069.7262
 Red. masses --      2.5176                 1.5383                 1.7241
 Frc consts  --      1.6148                 0.9961                 1.1624
 IR Inten    --      7.7528                11.4101                 1.6729

                     28                     29                     30
                      A                      A                      A
 Frequencies --   1083.5678              1101.7247              1110.8036
 Red. masses --      2.5732                 1.4417                 1.3641
 Frc consts  --      1.7800                 1.0310                 0.9917
 IR Inten    --     41.2689                27.3539                 5.1124

                     31                     32                     33
                      A                      A                      A
 Frequencies --   1121.6228              1136.7199              1171.6003
 Red. masses --      1.6927                 1.5596                 2.0817
 Frc consts  --      1.2547                 1.1873                 1.6835
 IR Inten    --     20.0258                 2.3751                13.0944

                     34                     35                     36
                      A                      A                      A
 Frequencies --   1197.4996              1233.7926              1243.0475
 Red. masses --      1.7632                 1.6151                 1.4465
 Frc consts  --      1.4897                 1.4486                 1.3168
 IR Inten    --      0.3306                 1.2422                 6.6426

                     37                     38                     39
                      A                      A                      A
 Frequencies --   1270.0725              1292.5286              1323.8642
 Red. masses --      1.4020                 1.3419                 1.1630
 Frc consts  --      1.3324                 1.3208                 1.2009
 IR Inten    --      5.4732                 1.7416                 0.2994

                     40                     41                     42
                      A                      A                      A
 Frequencies --   1349.0525              1372.6043              1395.7188
 Red. masses --      1.2772                 1.3750                 1.5852
 Frc consts  --      1.3695                 1.5263                 1.8195
 IR Inten    --      2.5745                 0.1297                 5.7055

                     43                     44                     45
                      A                      A                      A
 Frequencies --   1412.5663              1413.7001              1417.3614
 Red. masses --      1.2299                 1.2233                 1.2519
 Frc consts  --      1.4459                 1.4405                 1.4818
 IR Inten    --      1.2049                19.9969                24.0430

                     46                     47                     48
                      A                      A                      A
 Frequencies --   1444.7419              1477.6285              1491.9957
 Red. masses --      1.5323                 1.0851                 1.0582
 Frc consts  --      1.8844                 1.3959                 1.3879
 IR Inten    --      9.9158                 1.9356                 1.8247

                     49                     50                     51
                      A                      A                      A
 Frequencies --   1494.2691              1495.0973              1499.8524
 Red. masses --      1.0587                 1.2225                 1.0407
 Frc consts  --      1.3928                 1.6100                 1.3794
 IR Inten    --      0.6276                 5.4248                 4.8043

                     52                     53                     54
                      A                      A                      A
 Frequencies --   1506.2845              1511.4347              2988.3947
 Red. masses --      1.2676                 1.0849                 1.0662
 Frc consts  --      1.6945                 1.4602                 5.6102
 IR Inten    --      3.9203                 2.2627                13.4659

                     55                     56                     57
                      A                      A                      A
 Frequencies --   3018.1958              3022.5948              3023.5371
 Red. masses --      1.0742                 1.0688                 1.0385
 Frc consts  --      5.7653                 5.7531                 5.5933
 IR Inten    --      1.5349                42.7438                27.8538

                     58                     59                     60
                      A                      A                      A
 Frequencies --   3026.3072              3043.1106              3070.2358
 Red. masses --      1.0391                 1.0917                 1.0964
 Frc consts  --      5.6073                 5.9563                 6.0892
 IR Inten    --     47.1800                22.2867                 3.7848

                     61                     62                     63
                      A                      A                      A
 Frequencies --   3087.0242              3089.4616              3094.6146
 Red. masses --      1.1011                 1.0999                 1.1018
 Frc consts  --      6.1825                 6.1852                 6.2168
 IR Inten    --     26.3059                19.1352                54.4291

                     64                     65                     66
                      A                      A                      A
 Frequencies --   3099.1138              3100.6052              3123.1500
 Red. masses --      1.1002                 1.0865                 1.0550
 Frc consts  --      6.2260                 6.1543                 6.0633
 IR Inten    --     42.9198                28.3772                15.2350

                     67                     68                     69
                      A                      A                      A
 Frequencies --   3137.0362              3205.9780              3797.4838
 Red. masses --      1.0885                 1.1159                 1.0659
 Frc consts  --      6.3113                 6.7577                 9.0562
 IR Inten    --     20.0732                13.9429                12.1772

 - Thermochemistry -
 -------------------
 Temperature   298.150 Kelvin.  Pressure   1.00000 Atm.
 Atom     1 has atomic number  6 and mass  12.00000

 Molecular mass:   128.12012 amu.
 Principal axes and moments of inertia in atomic units:
                           1         2         3
     Eigenvalues --   455.920822699.756552963.10157
           X            0.99998  -0.00566   0.00180
           Y            0.00568   0.99987  -0.01508
           Z           -0.00172   0.01509   0.99988
 This molecule is an asymmetric top.
 Rotational symmetry number  1.
 Warning -- assumption of classical behavior for rotation
           may cause significant error
 Rotational temperatures (Kelvin)      0.18998     0.03208     0.02923
 Rotational constants (GHZ):           3.95845     0.66848     0.60907
 Zero-point vibrational energy     595114.4 (Joules/Mol)
                                  142.23575 (Kcal/Mol)
 Warning -- explicit consideration of  15 degrees of freedom as
           vibrations may cause significant error
 Vibrational temperatures:     69.96   120.69   129.78   154.41   258.01
          (Kelvin)            301.10   353.28   357.18   369.81   409.23
                              489.87   538.21   630.00   710.21   785.92
                             1076.27  1154.96  1198.87  1234.58  1263.63
                             1277.69  1324.40  1375.60  1448.49  1501.17
                             1508.33  1539.10  1559.01  1585.14  1598.20
                             1613.76  1635.49  1685.67  1722.93  1775.15
                             1788.47  1827.35  1859.66  1904.75  1940.99
                             1974.87  2008.13  2032.37  2034.00  2039.27
                             2078.66  2125.98  2146.65  2149.92  2151.11
                             2157.95  2167.21  2174.62  4299.63  4342.51
                             4348.84  4350.20  4354.18  4378.36  4417.38
                             4441.54  4445.05  4452.46  4458.93  4461.08
                             4493.52  4513.50  4612.69  5463.73

 Zero-point correction=                           0.226667 (Hartree/Particle)
 Thermal correction to Energy=                    0.237964
 Thermal correction to Enthalpy=                  0.238908
 Thermal correction to Gibbs Free Energy=         0.189682
 Sum of electronic and zero-point Energies=           -389.489416
 Sum of electronic and thermal Energies=              -389.478119
 Sum of electronic and thermal Enthalpies=            -389.477175
 Sum of electronic and thermal Free Energies=         -389.526401

                     E (Thermal)             CV                S
                      KCal/Mol        Cal/Mol-Kelvin    Cal/Mol-Kelvin
 Total                  149.325             41.106            103.604
 Electronic               0.000              0.000              0.000
 Translational            0.889              2.981             40.457
 Rotational               0.889              2.981             29.679
 Vibrational            147.547             35.144             33.468
 Vibration     1          0.595              1.978              4.872
 Vibration     2          0.601              1.960              3.798
 Vibration     3          0.602              1.956              3.656
 Vibration     4          0.606              1.943              3.317
 Vibration     5          0.629              1.868              2.335
 Vibration     6          0.642              1.827              2.050
 Vibration     7          0.660              1.770              1.762
 Vibration     8          0.662              1.766              1.743
 Vibration     9          0.667              1.751              1.682
 Vibration    10          0.683              1.703              1.507
 Vibration    11          0.720              1.595              1.210
 Vibration    12          0.745              1.525              1.063
 Vibration    13          0.798              1.388              0.833
 Vibration    14          0.849              1.264              0.674
 Vibration    15          0.901              1.148              0.552

 Optimization completed.
    -- Stationary point found.
 Normal termination of Gaussian 16 at Thu Aug  4 10:59:42 2022.
