 Gaussian 16, Revision A.03,
 Gaussian 16:  ES64L-G16RevA.03 25-Dec-2016

 -----------------------------
 # opt freq b3lyp/6-31g(2df,p)
 -----------------------------

 -------------------
 Title Card Required
 -------------------
 Symbolic Z-matrix:
 Charge =  0 Multiplicity = 1

 SCF Done:  E(RB3LYP) =  -426.857750235     A.U. after   12 cycles
 SCF Done:  E(RB3LYP) =  -426.860725091     A.U. after   11 cycles
 SCF Done:  E(RB3LYP) =  -426.861118570     A.U. after   10 cycles
 SCF Done:  E(RB3LYP) =  -426.861146595     A.U. after   10 cycles
 SCF Done:  E(RB3LYP) =  -426.861173886     A.U. after    9 cycles
 SCF Done:  E(RB3LYP) =  -426.861180405     A.U. after    8 cycles
 SCF Done:  E(RB3LYP) =  -426.861182602     A.U. after    7 cycles
 SCF Done:  E(RB3LYP) =  -426.861183013     A.U. after    6 cycles
 SCF Done:  E(RB3LYP) =  -426.861183127     A.U. after    6 cycles
 SCF Done:  E(RB3LYP) =  -426.861183140     A.U. after    6 cycles
 Optimization completed.
    -- Stationary point found.
 Normal termination of Gaussian 16 at Thu Aug  4 07:00:41 2022.

 ----------------------------------------------------------------------
 #N Geom=AllCheck Guess=TCheck SCRF=Check GenChk RB3LYP/6-31G(2df,p) Fr
 eq
 ----------------------------------------------------------------------

 Structure from the checkpoint file:  "CCCCpCpCpOpOC.chk"
 -------------------
 Title Card Required
 -------------------
 Charge =  0 Multiplicity = 1

                         Standard orientation:
 ---------------------------------------------------------------------
 Center     Atomic      Atomic             Coordinates (Angstroms)
 Number     Number       Type             X           Y           Z
 ---------------------------------------------------------------------
      1          6           0       -3.896118   -0.545725    0.172635
      2          6           0       -2.677640    0.221363   -0.349635
      3          6           0       -1.365222   -0.256666    0.282998
      4          6           0       -0.100168    0.434412   -0.258085
      5          6           0       -0.031710    1.921818    0.114963
      6          6           0        1.160388   -0.303141    0.221464
      7          8           0        1.152344   -1.679513   -0.096438
      8          8           0        2.272712    0.341901   -0.344658
      9          6           0        3.515491   -0.085579    0.182340
     10          1           0       -4.821134   -0.194133   -0.295134
     11          1           0       -4.004507   -0.424920    1.256321
     12          1           0       -3.805467   -1.618596   -0.030578
     13          1           0       -2.820604    1.292388   -0.163625
     14          1           0       -2.614554    0.108447   -1.440568
     15          1           0       -1.266216   -1.336501    0.128315
     16          1           0       -1.413727   -0.110374    1.372133
     17          1           0       -0.099322    0.352885   -1.356796
     18          1           0       -0.034136    2.047677    1.204812
     19          1           0       -0.889417    2.470945   -0.282375
     20          1           0        0.879160    2.378054   -0.275711
     21          1           0        1.225612   -0.280724    1.321608
     22          1           0        1.082251   -1.744216   -1.057174
     23          1           0        4.294619    0.471878   -0.342336
     24          1           0        3.669825   -1.160033    0.030514
     25          1           0        3.587037    0.129221    1.259277
 ---------------------------------------------------------------------

 SCF Done:  E(RB3LYP) =  -426.861183140     A.U. after    1 cycles

 The electronic state is 1-A.
 Alpha  occ. eigenvalues --  -19.14065 -19.14015 -10.26964 -10.22044 -10.18380
 Alpha  occ. eigenvalues --  -10.17629 -10.17178 -10.16971 -10.16680  -1.06128
 Alpha  occ. eigenvalues --   -0.99490  -0.80664  -0.75696  -0.69960  -0.67278
 Alpha  occ. eigenvalues --   -0.63737  -0.59475  -0.56862  -0.50950  -0.48627
 Alpha  occ. eigenvalues --   -0.46702  -0.45826  -0.43449  -0.41766  -0.40999
 Alpha  occ. eigenvalues --   -0.40041  -0.39140  -0.37802  -0.36635  -0.35901
 Alpha  occ. eigenvalues --   -0.33647  -0.32685  -0.31852  -0.31698  -0.30019
 Alpha  occ. eigenvalues --   -0.28310  -0.26409
 Alpha virt. eigenvalues --    0.08123   0.09522   0.10473   0.11763   0.12949
 Alpha virt. eigenvalues --    0.13958   0.14401   0.16043   0.16426   0.16816
 Alpha virt. eigenvalues --    0.17430   0.18108   0.18496   0.18916   0.19172

 Mulliken charges:
               1
     1  C   -0.378910
     2  C   -0.175966
     3  C   -0.161471
     4  C   -0.027642
     5  C   -0.400233
     6  C    0.201107
     7  O   -0.414195
     8  O   -0.238169
     9  C   -0.241424
    10  H    0.109426
    11  H    0.113666
    12  H    0.113673
    13  H    0.098086
    14  H    0.090713
    15  H    0.102933
    16  H    0.087603
    17  H    0.065661
    18  H    0.108006
    19  H    0.113279
    20  H    0.131645
    21  H    0.073615
    22  H    0.276806
    23  H    0.123841
    24  H    0.121853
    25  H    0.106094
 Sum of Mulliken charges =  -0.00000

 Dipole moment (field-independent basis, Debye):
    X=              0.1277    Y=              0.1783    Z=             -0.3615  Tot=              0.4229
 Quadrupole moment (field-independent basis, Debye-Ang):
   XX=            -55.0954   YY=            -60.4520   ZZ=            -55.6563
   XY=             -0.5371   XZ=              0.7416   YZ=              2.8237

  Exact polarizability: 104.928   1.696  80.056   0.694   1.157  74.604
 Approx polarizability: 118.507   0.966 114.721   0.364   1.043 116.631

                      1                      2                      3
                      A                      A                      A
 Frequencies --     54.2676                61.0638                89.9230
 Red. masses --      2.9620                 1.8178                 2.6417
 Frc consts  --      0.0051                 0.0040                 0.0126
 IR Inten    --      0.0470                 0.0587                 0.1652

                      4                      5                      6
                      A                      A                      A
 Frequencies --    118.4554               139.2223               176.3543
 Red. masses --      1.9535                 2.5006                 1.3959
 Frc consts  --      0.0161                 0.0286                 0.0256
 IR Inten    --      2.0969                 0.2677                 0.5273

                      7                      8                      9
                      A                      A                      A
 Frequencies --    206.9311               246.2261               254.1091
 Red. masses --      1.1743                 1.1534                 2.6203
 Frc consts  --      0.0296                 0.0412                 0.0997
 IR Inten    --      1.1906                 0.0696                 1.1513

                     10                     11                     12
                      A                      A                      A
 Frequencies --    291.1961               324.4890               334.5546
 Red. masses --      2.8122                 3.2612                 2.3728
 Frc consts  --      0.1405                 0.2023                 0.1565
 IR Inten    --      0.7728                 0.6552                 5.3186

                     13                     14                     15
                      A                      A                      A
 Frequencies --    360.3151               424.5711               470.9973
 Red. masses --      1.2569                 2.5641                 3.4684
 Frc consts  --      0.0961                 0.2723                 0.4533
 IR Inten    --    106.4127                 7.4246                 7.9953

                     16                     17                     18
                      A                      A                      A
 Frequencies --    569.4326               602.5261               744.4383
 Red. masses --      2.6884                 3.9666                 1.1157
 Frc consts  --      0.5136                 0.8484                 0.3643
 IR Inten    --      4.7591                24.4486                 2.6538

                     19                     20                     21
                      A                      A                      A
 Frequencies --    851.3973               878.5332               891.6181
 Red. masses --      1.5189                 1.9149                 1.6258
 Frc consts  --      0.6487                 0.8708                 0.7615
 IR Inten    --      3.1024                 0.2771                11.4380

                     22                     23                     24
                      A                      A                      A
 Frequencies --    941.7760               989.7603              1006.5694
 Red. masses --      1.9672                 2.8742                 1.3028
 Frc consts  --      1.0280                 1.6589                 0.7777
 IR Inten    --     14.6284                35.8634                 0.6057

                     25                     26                     27
                      A                      A                      A
 Frequencies --   1033.4039              1062.1350              1081.4316
 Red. masses --      2.9681                 3.0020                 2.6059
 Frc consts  --      1.8675                 1.9954                 1.7956
 IR Inten    --     37.9090                76.5289                29.1056

                     28                     29                     30
                      A                      A                      A
 Frequencies --   1114.4161              1140.2445              1162.0573
 Red. masses --      2.3466                 2.2300                 3.0463
 Frc consts  --      1.7170                 1.7082                 2.4237
 IR Inten    --    103.7766                27.8630               111.0718

                     31                     32                     33
                      A                      A                      A
 Frequencies --   1181.3784              1189.2796              1217.9140
 Red. masses --      1.2894                 1.8157                 1.5204
 Frc consts  --      1.0603                 1.5131                 1.3288
 IR Inten    --      1.7811                 6.7596                13.8916

                     34                     35                     36
                      A                      A                      A
 Frequencies --   1242.4856              1273.6402              1311.6584
 Red. masses --      1.4388                 1.3478                 1.3436
 Frc consts  --      1.3087                 1.2882                 1.3619
 IR Inten    --      4.5255                 2.9768                 1.5650

                     37                     38                     39
                      A                      A                      A
 Frequencies --   1328.9776              1349.4823              1359.4741
 Red. masses --      1.1223                 1.3059                 1.3624
 Frc consts  --      1.1679                 1.4012                 1.4836
 IR Inten    --      1.1408                 1.9450                10.6857

                     40                     41                     42
                      A                      A                      A
 Frequencies --   1391.1011              1399.3853              1407.0345
 Red. masses --      1.4304                 1.5206                 1.2246
 Frc consts  --      1.6309                 1.7544                 1.4284
 IR Inten    --     15.8415                 4.4667                 5.8063

                     43                     44                     45
                      A                      A                      A
 Frequencies --   1413.3985              1429.5443              1476.2381
 Red. masses --      1.2459                 1.2320                 1.1557
 Frc consts  --      1.4664                 1.4834                 1.4838
 IR Inten    --      0.9533                54.1122                 2.2549

                     46                     47                     48
                      A                      A                      A
 Frequencies --   1484.3990              1484.7811              1495.6161
 Red. masses --      1.0557                 1.0676                 1.0639
 Frc consts  --      1.3705                 1.3867                 1.4021
 IR Inten    --      5.1869                 0.0383                 1.4743

                     49                     50                     51
                      A                      A                      A
 Frequencies --   1497.3338              1499.5143              1506.4355
 Red. masses --      1.0516                 1.0416                 1.0594
 Frc consts  --      1.3891                 1.3799                 1.4164
 IR Inten    --      3.1886                 4.3611                 2.1014

                     52                     53                     54
                      A                      A                      A
 Frequencies --   1513.8932              1514.6069              2973.8408
 Red. masses --      1.0734                 1.0614                 1.0793
 Frc consts  --      1.4494                 1.4346                 5.6240
 IR Inten    --      6.6882                 7.4604                 2.8608

                     55                     56                     57
                      A                      A                      A
 Frequencies --   2986.2938              2992.8834              3004.4060
 Red. masses --      1.0779                 1.0478                 1.0679
 Frc consts  --      5.6636                 5.5298                 5.6792
 IR Inten    --     25.0745                66.8917                16.4760

                     58                     59                     60
                      A                      A                      A
 Frequencies --   3017.9138              3028.4150              3033.2348
 Red. masses --      1.0635                 1.0357                 1.0439
 Frc consts  --      5.7070                 5.5966                 5.6589
 IR Inten    --     51.9010                37.0049                25.6327

                     61                     62                     63
                      A                      A                      A
 Frequencies --   3047.9616              3064.2578              3073.8941
 Red. masses --      1.0931                 1.0926                 1.0963
 Frc consts  --      5.9833                 6.0444                 6.1032
 IR Inten    --      7.4144                39.5508                21.7183

                     64                     65                     66
                      A                      A                      A
 Frequencies --   3095.9307              3100.0907              3102.7280
 Red. masses --      1.1020                 1.1006                 1.0946
 Frc consts  --      6.2230                 6.2317                 6.2088
 IR Inten    --     63.4808                18.5093                48.7403

                     67                     68                     69
                      A                      A                      A
 Frequencies --   3122.1247              3137.9601              3780.2911
 Red. masses --      1.1009                 1.0995                 1.0651
 Frc consts  --      6.3228                 6.3790                 8.9680
 IR Inten    --     25.4611                18.4577                16.2293

 - Thermochemistry -
 -------------------
 Temperature   298.150 Kelvin.  Pressure   1.00000 Atm.
 Atom     1 has atomic number  6 and mass  12.00000

 Molecular mass:   132.11503 amu.
 Principal axes and moments of inertia in atomic units:
                           1         2         3
     Eigenvalues --   526.834472504.505742884.63447
           X            0.99999   0.00422   0.00348
           Y           -0.00425   0.99995   0.00921
           Z           -0.00344  -0.00922   0.99995
 This molecule is an asymmetric top.
 Rotational symmetry number  1.
 Warning -- assumption of classical behavior for rotation
           may cause significant error
 Rotational temperatures (Kelvin)      0.16440     0.03458     0.03003
 Rotational constants (GHZ):           3.42563     0.72060     0.62564
 Zero-point vibrational energy     593061.9 (Joules/Mol)
                                  141.74521 (Kcal/Mol)
 Warning -- explicit consideration of  17 degrees of freedom as
           vibrations may cause significant error
 Vibrational temperatures:     78.08    87.86   129.38   170.43   200.31
          (Kelvin)            253.73   297.73   354.26   365.61   418.97
                              466.87   481.35   518.41   610.86   677.66
                              819.29   866.90  1071.08  1224.97  1264.01
                             1282.84  1355.01  1424.04  1448.23  1486.84
                             1528.18  1555.94  1603.40  1640.56  1671.94
                             1699.74  1711.11  1752.31  1787.66  1832.48
                             1887.18  1912.10  1941.60  1955.98  2001.48
                             2013.40  2024.41  2033.57  2056.80  2123.98
                             2135.72  2136.27  2151.86  2154.33  2157.47
                             2167.42  2178.15  2179.18  4278.69  4296.61
                             4306.09  4322.67  4342.10  4357.21  4364.15
                             4385.34  4408.78  4422.65  4454.35  4460.34
                             4464.13  4492.04  4514.82  5439.00

 Zero-point correction=                           0.225885 (Hartree/Particle)
 Thermal correction to Energy=                    0.237758
 Thermal correction to Enthalpy=                  0.238702
 Thermal correction to Gibbs Free Energy=         0.188142
 Sum of electronic and zero-point Energies=           -426.635298
 Sum of electronic and thermal Energies=              -426.623426
 Sum of electronic and thermal Enthalpies=            -426.622481
 Sum of electronic and thermal Free Energies=         -426.673042

                     E (Thermal)             CV                S
                      KCal/Mol        Cal/Mol-Kelvin    Cal/Mol-Kelvin
 Total                  149.195             42.220            106.413
 Electronic               0.000              0.000              0.000
 Translational            0.889              2.981             40.548
 Rotational               0.889              2.981             29.722
 Vibrational            147.418             36.259             36.143
 Vibration     1          0.596              1.976              4.655
 Vibration     2          0.597              1.973              4.423
 Vibration     3          0.602              1.956              3.662
 Vibration     4          0.609              1.934              3.125
 Vibration     5          0.615              1.914              2.815
 Vibration     6          0.628              1.871              2.367
 Vibration     7          0.641              1.830              2.071
 Vibration     8          0.661              1.769              1.757
 Vibration     9          0.665              1.756              1.702
 Vibration    10          0.687              1.690              1.467
 Vibration    11          0.709              1.626              1.287
 Vibration    12          0.716              1.606              1.238
 Vibration    13          0.735              1.554              1.121
 Vibration    14          0.787              1.417              0.877
 Vibration    15          0.828              1.314              0.735
 Vibration    16          0.925              1.097              0.505
 Vibration    17          0.961              1.026              0.445

                           ! Non-Optimized Parameters !
 Normal termination of Gaussian 16 at Thu Aug  4 07:38:09 2022.
