 Gaussian 16, Revision A.03,
 Gaussian 16:  ES64L-G16RevA.03 25-Dec-2016

 -----------------------------
 # opt freq b3lyp/6-31g(2df,p)
 -----------------------------

 -------------------
 Title Card Required
 -------------------
 Symbolic Z-matrix:
 Charge =  0 Multiplicity = 1

 SCF Done:  E(RB3LYP) =  -389.739999842     A.U. after   13 cycles
 SCF Done:  E(RB3LYP) =  -389.745792195     A.U. after   13 cycles
 SCF Done:  E(RB3LYP) =  -389.746290455     A.U. after   12 cycles
 SCF Done:  E(RB3LYP) =  -389.748377845     A.U. after   12 cycles
 SCF Done:  E(RB3LYP) =  -389.749113661     A.U. after   12 cycles
 SCF Done:  E(RB3LYP) =  -389.750493856     A.U. after   12 cycles
 SCF Done:  E(RB3LYP) =  -389.751935379     A.U. after   12 cycles
 SCF Done:  E(RB3LYP) =  -389.752705262     A.U. after   11 cycles
 SCF Done:  E(RB3LYP) =  -389.753125288     A.U. after   11 cycles
 SCF Done:  E(RB3LYP) =  -389.753219816     A.U. after   10 cycles
 SCF Done:  E(RB3LYP) =  -389.750506922     A.U. after   13 cycles
 SCF Done:  E(RB3LYP) =  -389.753673204     A.U. after   12 cycles
 SCF Done:  E(RB3LYP) =  -389.753727034     A.U. after   11 cycles
 SCF Done:  E(RB3LYP) =  -389.753759715     A.U. after   11 cycles
 SCF Done:  E(RB3LYP) =  -389.753774911     A.U. after   10 cycles
 SCF Done:  E(RB3LYP) =  -389.753782906     A.U. after    9 cycles
 SCF Done:  E(RB3LYP) =  -389.753783953     A.U. after    8 cycles
 SCF Done:  E(RB3LYP) =  -389.753784278     A.U. after    7 cycles
 SCF Done:  E(RB3LYP) =  -389.753784330     A.U. after    6 cycles
 Optimization completed.
    -- Stationary point found.
 Normal termination of Gaussian 16 at Thu Aug  4 11:19:47 2022.

 ----------------------------------------------------------------------
 #N Geom=AllCheck Guess=TCheck SCRF=Check GenChk RB3LYP/6-31G(2df,p) Fr
 eq
 ----------------------------------------------------------------------

 Structure from the checkpoint file:  "CCCCpCpCCpCpdO.chk"
 -------------------
 Title Card Required
 -------------------
 Charge =  0 Multiplicity = 1

                         Standard orientation:
 ---------------------------------------------------------------------
 Center     Atomic      Atomic             Coordinates (Angstroms)
 Number     Number       Type             X           Y           Z
 ---------------------------------------------------------------------
      1          6           0       -4.013619   -0.552452    0.077201
      2          6           0       -2.707089    0.023302   -0.477436
      3          6           0       -1.502277   -0.272033    0.424260
      4          6           0       -0.142163    0.190575   -0.131878
      5          6           0       -0.077934    1.710258   -0.341174
      6          6           0        0.998338   -0.290286    0.806733
      7          6           0        2.368640   -0.157306    0.155692
      8          6           0        2.873632   -1.368638   -0.610556
      9          8           0        3.015148    0.864070    0.227564
     10          1           0       -4.859280   -0.329392   -0.580740
     11          1           0       -4.241655   -0.135863    1.064675
     12          1           0       -3.953442   -1.641222    0.185418
     13          1           0       -2.818577    1.105316   -0.611249
     14          1           0       -2.520150   -0.390398   -1.477759
     15          1           0       -1.458497   -1.354859    0.605190
     16          1           0       -1.661318    0.192756    1.408153
     17          1           0       -0.003226   -0.298055   -1.108284
     18          1           0       -0.334735    2.235870    0.586540
     19          1           0       -0.776447    2.037212   -1.116201
     20          1           0        0.925635    2.030189   -0.630580
     21          1           0        0.820595   -1.336312    1.081499
     22          1           0        0.993066    0.313341    1.720348
     23          1           0        3.097411   -2.178601    0.094342
     24          1           0        3.777289   -1.113064   -1.165003
     25          1           0        2.106986   -1.750003   -1.293915
 ---------------------------------------------------------------------

 SCF Done:  E(RB3LYP) =  -389.753784330     A.U. after    1 cycles

 The electronic state is 1-A.
 Alpha  occ. eigenvalues --  -19.12322 -10.26558 -10.19673 -10.18687 -10.18525
 Alpha  occ. eigenvalues --  -10.18097 -10.18051 -10.17431 -10.16843  -1.03356
 Alpha  occ. eigenvalues --   -0.82015  -0.77163  -0.74261  -0.69096  -0.67733
 Alpha  occ. eigenvalues --   -0.60159  -0.56402  -0.52522  -0.47460  -0.46367
 Alpha  occ. eigenvalues --   -0.45216  -0.44650  -0.42508  -0.41984  -0.41197
 Alpha  occ. eigenvalues --   -0.39184  -0.38104  -0.37377  -0.36766  -0.35542
 Alpha  occ. eigenvalues --   -0.34379  -0.33590  -0.32302  -0.32245  -0.31590
 Alpha  occ. eigenvalues --   -0.23718
 Alpha virt. eigenvalues --   -0.00958   0.07813   0.09658   0.11282   0.12215
 Alpha virt. eigenvalues --    0.12727   0.13941   0.15087   0.15688   0.16817
 Alpha virt. eigenvalues --    0.16931   0.17020   0.17737   0.18691   0.18771

 Mulliken charges:
               1
     1  C   -0.378553
     2  C   -0.178733
     3  C   -0.163178
     4  C    0.023624
     5  C   -0.392421
     6  C   -0.292538
     7  C    0.378128
     8  C   -0.474602
     9  O   -0.302311
    10  H    0.111937
    11  H    0.114837
    12  H    0.112680
    13  H    0.102764
    14  H    0.093016
    15  H    0.086575
    16  H    0.093441
    17  H    0.071795
    18  H    0.112512
    19  H    0.113104
    20  H    0.139957
    21  H    0.094317
    22  H    0.117001
    23  H    0.140948
    24  H    0.140403
    25  H    0.135298
 Sum of Mulliken charges =  -0.00000

 Dipole moment (field-independent basis, Debye):
    X=             -1.6647    Y=             -2.0710    Z=             -0.2781  Tot=              2.6716
 Quadrupole moment (field-independent basis, Debye-Ang):
   XX=            -64.6410   YY=            -58.1923   ZZ=            -56.8356
   XY=             -6.9571   XZ=             -0.8950   YZ=             -0.0994

  Exact polarizability: 108.259   0.588  86.778  -1.353   0.895  76.504
 Approx polarizability: 129.105   6.279 131.414  -0.316   2.806 116.703

                      1                      2                      3
                      A                      A                      A
 Frequencies --     33.4989                58.4590                81.9985
 Red. masses --      3.5523                 3.1561                 1.7428
 Frc consts  --      0.0023                 0.0064                 0.0069
 IR Inten    --      3.0010                 2.1215                 0.3578

                      4                      5                      6
                      A                      A                      A
 Frequencies --    116.4584               122.5744               147.0766
 Red. masses --      2.2221                 2.4877                 1.1552
 Frc consts  --      0.0178                 0.0220                 0.0147
 IR Inten    --      0.5279                 0.9340                 0.0311

                      7                      8                      9
                      A                      A                      A
 Frequencies --    201.3721               229.8487               249.8522
 Red. masses --      3.7002                 1.1017                 1.1267
 Frc consts  --      0.0884                 0.0343                 0.0414
 IR Inten    --      0.7674                 0.4792                 0.0520

                     10                     11                     12
                      A                      A                      A
 Frequencies --    302.4070               342.1975               365.6520
 Red. masses --      3.0392                 2.5561                 2.5529
 Frc consts  --      0.1638                 0.1764                 0.2011
 IR Inten    --      0.1984                 0.1995                 0.9951

                     13                     14                     15
                      A                      A                      A
 Frequencies --    428.4001               460.9242               535.6654
 Red. masses --      1.9803                 2.3351                 3.1394
 Frc consts  --      0.2141                 0.2923                 0.5308
 IR Inten    --      0.5120                 0.0533                15.6909

                     16                     17                     18
                      A                      A                      A
 Frequencies --    601.3192               745.9013               796.0481
 Red. masses --      2.3266                 1.1171                 3.0667
 Frc consts  --      0.4957                 0.3662                 1.1450
 IR Inten    --      1.6239                 2.4210                 0.9546

                     19                     20                     21
                      A                      A                      A
 Frequencies --    829.3836               869.9416               881.5560
 Red. masses --      2.3198                 1.3779                 1.6531
 Frc consts  --      0.9402                 0.6144                 0.7569
 IR Inten    --      0.1114                 0.2750                 3.2596

                     22                     23                     24
                      A                      A                      A
 Frequencies --    919.7988               949.8431               967.7242
 Red. masses --      1.6710                 1.8231                 1.4821
 Frc consts  --      0.8330                 0.9691                 0.8178
 IR Inten    --      0.9555                 6.2979                 8.8934

                     25                     26                     27
                      A                      A                      A
 Frequencies --   1013.7489              1025.1387              1048.9714
 Red. masses --      2.1049                 1.3443                 2.3125
 Frc consts  --      1.2745                 0.8323                 1.4992
 IR Inten    --      0.5716                 2.5448                 1.0653

                     28                     29                     30
                      A                      A                      A
 Frequencies --   1077.8173              1122.1349              1141.1095
 Red. masses --      2.1995                 1.6178                 2.5146
 Frc consts  --      1.5054                 1.2002                 1.9292
 IR Inten    --      1.0284                13.5247                 7.4566

                     31                     32                     33
                      A                      A                      A
 Frequencies --   1181.3603              1209.3431              1239.2431
 Red. masses --      1.7807                 2.1904                 1.4832
 Frc consts  --      1.4642                 1.8875                 1.3420
 IR Inten    --      3.4548                34.5496                24.5469

                     34                     35                     36
                      A                      A                      A
 Frequencies --   1270.7444              1289.0484              1323.5271
 Red. masses --      1.3549                 1.3225                 1.3529
 Frc consts  --      1.2891                 1.2947                 1.3963
 IR Inten    --     11.7727                14.3168                25.5338

                     37                     38                     39
                      A                      A                      A
 Frequencies --   1330.2900              1359.7717              1374.8740
 Red. masses --      1.1358                 1.3245                 1.3497
 Frc consts  --      1.1842                 1.4429                 1.5032
 IR Inten    --      1.3736                 3.2541                 7.5401

                     40                     41                     42
                      A                      A                      A
 Frequencies --   1380.5375              1395.3122              1412.2108
 Red. masses --      1.3539                 1.4903                 1.2310
 Frc consts  --      1.5203                 1.7095                 1.4464
 IR Inten    --     38.4477                 0.6101                 0.7124

                     43                     44                     45
                      A                      A                      A
 Frequencies --   1419.8965              1461.1377              1473.1470
 Red. masses --      1.2573                 1.0545                 1.0747
 Frc consts  --      1.4935                 1.3264                 1.3741
 IR Inten    --      8.5826                 8.0272                 1.2501

                     46                     47                     48
                      A                      A                      A
 Frequencies --   1477.6906              1484.1711              1493.9587
 Red. masses --      1.0678                 1.0862                 1.0611
 Frc consts  --      1.3738                 1.4097                 1.3954
 IR Inten    --      5.7042                 2.4136                 0.7900

                     49                     50                     51
                      A                      A                      A
 Frequencies --   1499.6917              1500.3779              1504.3255
 Red. masses --      1.0428                 1.0527                 1.0472
 Frc consts  --      1.3818                 1.3962                 1.3962
 IR Inten    --      5.3628                 2.6109                 6.7329

                     52                     53                     54
                      A                      A                      A
 Frequencies --   1511.0975              1805.1752              2985.6953
 Red. masses --      1.0818                10.3214                 1.0805
 Frc consts  --      1.4555                19.8165                 5.6751
 IR Inten    --      4.7354               147.3295                11.3561

                     55                     56                     57
                      A                      A                      A
 Frequencies --   2999.3227              3016.7722              3028.4638
 Red. masses --      1.0592                 1.0671                 1.0363
 Frc consts  --      5.6140                 5.7221                 5.6000
 IR Inten    --     15.4746                27.3763                31.2195

                     58                     59                     60
                      A                      A                      A
 Frequencies --   3030.3963              3033.0571              3033.5717
 Red. masses --      1.0468                 1.0667                 1.0656
 Frc consts  --      5.6641                 5.7818                 5.7777
 IR Inten    --     14.3658                 6.5797                32.3712

                     61                     62                     63
                      A                      A                      A
 Frequencies --   3036.0380              3062.4970              3089.8890
 Red. masses --      1.0512                 1.0990                 1.1036
 Frc consts  --      5.7090                 6.0729                 6.2080
 IR Inten    --     10.7007                23.5023                15.0384

                     64                     65                     66
                      A                      A                      A
 Frequencies --   3092.3454              3096.0377              3101.0745
 Red. masses --      1.0975                 1.1022                 1.1003
 Frc consts  --      6.1835                 6.2248                 6.2344
 IR Inten    --      8.7843                68.5691                13.3617

                     67                     68                     69
                      A                      A                      A
 Frequencies --   3102.6602              3127.8095              3151.1748
 Red. masses --      1.0967                 1.1005                 1.1019
 Frc consts  --      6.2205                 6.3433                 6.4465
 IR Inten    --     49.9957                14.7743                12.0747

 - Thermochemistry -
 -------------------
 Temperature   298.150 Kelvin.  Pressure   1.00000 Atm.
 Atom     1 has atomic number  6 and mass  12.00000

 Molecular mass:   128.12012 amu.
 Principal axes and moments of inertia in atomic units:
                           1         2         3
     Eigenvalues --   511.180682775.776133023.66178
           X            0.99991  -0.01169  -0.00594
           Y            0.01166   0.99992  -0.00425
           Z            0.00599   0.00418   0.99997
 This molecule is an asymmetric top.
 Rotational symmetry number  1.
 Warning -- assumption of classical behavior for rotation
           may cause significant error
 Rotational temperatures (Kelvin)      0.16944     0.03120     0.02865
 Rotational constants (GHZ):           3.53053     0.65018     0.59687
 Zero-point vibrational energy     592453.9 (Joules/Mol)
                                  141.59988 (Kcal/Mol)
 Warning -- explicit consideration of  16 degrees of freedom as
           vibrations may cause significant error
 Vibrational temperatures:     48.20    84.11   117.98   167.56   176.36
          (Kelvin)            211.61   289.73   330.70   359.48   435.10
                              492.35   526.09   616.37   663.17   770.70
                              865.16  1073.19  1145.34  1193.30  1251.65
                             1268.36  1323.39  1366.61  1392.34  1458.56
                             1474.95  1509.24  1550.74  1614.50  1641.80
                             1699.71  1739.97  1782.99  1828.32  1854.65
                             1904.26  1913.99  1956.41  1978.14  1986.29
                             2007.54  2031.86  2042.91  2102.25  2119.53
                             2126.07  2135.39  2149.47  2157.72  2158.71
                             2164.39  2174.13  2597.24  4295.75  4315.36
                             4340.46  4357.28  4360.06  4363.89  4364.63
                             4368.18  4406.25  4445.66  4449.20  4454.51
                             4461.75  4464.04  4500.22  4533.84

 Zero-point correction=                           0.225654 (Hartree/Particle)
 Thermal correction to Energy=                    0.237433
 Thermal correction to Enthalpy=                  0.238377
 Thermal correction to Gibbs Free Energy=         0.187318
 Sum of electronic and zero-point Energies=           -389.528131
 Sum of electronic and thermal Energies=              -389.516352
 Sum of electronic and thermal Enthalpies=            -389.515407
 Sum of electronic and thermal Free Energies=         -389.566466

                     E (Thermal)             CV                S
                      KCal/Mol        Cal/Mol-Kelvin    Cal/Mol-Kelvin
 Total                  148.991             41.609            107.463
 Electronic               0.000              0.000              0.000
 Translational            0.889              2.981             40.457
 Rotational               0.889              2.981             29.841
 Vibrational            147.214             35.647             37.165
 Vibration     1          0.594              1.983              5.611
 Vibration     2          0.596              1.974              4.509
 Vibration     3          0.600              1.961              3.842
 Vibration     4          0.608              1.936              3.158
 Vibration     5          0.610              1.930              3.059
 Vibration     6          0.617              1.906              2.710
 Vibration     7          0.638              1.838              2.121
 Vibration     8          0.652              1.795              1.880
 Vibration     9          0.663              1.763              1.732
 Vibration    10          0.694              1.669              1.404
 Vibration    11          0.721              1.591              1.202
 Vibration    12          0.739              1.543              1.098
 Vibration    13          0.790              1.408              0.864
 Vibration    14          0.819              1.337              0.763
 Vibration    15          0.891              1.171              0.575
 Vibration    16          0.960              1.029              0.447

                           ! Non-Optimized Parameters !
 Normal termination of Gaussian 16 at Thu Aug  4 11:59:35 2022.
