 Gaussian 16, Revision A.03,
 Gaussian 16:  ES64L-G16RevA.03 25-Dec-2016

 -----------------------------
 # opt freq b3lyp/6-31g(2df,p)
 -----------------------------

 -------------------
 Title Card Required
 -------------------
 Symbolic Z-matrix:
 Charge =  0 Multiplicity = 1

 SCF Done:  E(RB3LYP) =  -367.359448389     A.U. after   14 cycles
 SCF Done:  E(RB3LYP) =  -367.381540929     A.U. after   12 cycles
 SCF Done:  E(RB3LYP) =  -367.382730766     A.U. after   10 cycles
 SCF Done:  E(RB3LYP) =  -367.379132564     A.U. after   13 cycles
 SCF Done:  E(RB3LYP) =  -367.382810546     A.U. after   11 cycles
 SCF Done:  E(RB3LYP) =  -367.382240016     A.U. after   12 cycles
 SCF Done:  E(RB3LYP) =  -367.382867089     A.U. after   12 cycles
 SCF Done:  E(RB3LYP) =  -367.382875517     A.U. after    8 cycles
 SCF Done:  E(RB3LYP) =  -367.382875817     A.U. after    7 cycles
 SCF Done:  E(RB3LYP) =  -367.382875961     A.U. after    7 cycles
 SCF Done:  E(RB3LYP) =  -367.384111615     A.U. after   12 cycles
 SCF Done:  E(RB3LYP) =  -367.384668514     A.U. after   12 cycles
 SCF Done:  E(RB3LYP) =  -367.384690977     A.U. after   12 cycles
 SCF Done:  E(RB3LYP) =  -367.384769138     A.U. after   11 cycles
 SCF Done:  E(RB3LYP) =  -367.384779343     A.U. after   10 cycles
 SCF Done:  E(RB3LYP) =  -367.384781079     A.U. after   10 cycles
 SCF Done:  E(RB3LYP) =  -367.384781630     A.U. after   10 cycles
 SCF Done:  E(RB3LYP) =  -367.384781699     A.U. after    8 cycles
 SCF Done:  E(RB3LYP) =  -367.384781709     A.U. after    7 cycles
 Optimization completed.
    -- Stationary point found.
 Normal termination of Gaussian 16 at Thu Aug  4 08:02:03 2022.

 ----------------------------------------------------------------------
 #N Geom=AllCheck Guess=TCheck SCRF=Check GenChk RB3LYP/6-31G(2df,p) Fr
 eq
 ----------------------------------------------------------------------

 Structure from the checkpoint file:  "CCCCtCCCCdN.chk"
 -------------------
 Title Card Required
 -------------------
 Charge =  0 Multiplicity = 1

                         Standard orientation:
 ---------------------------------------------------------------------
 Center     Atomic      Atomic             Coordinates (Angstroms)
 Number     Number       Type             X           Y           Z
 ---------------------------------------------------------------------
      1          6           0       -4.763601   -0.548192    0.025534
      2          6           0       -3.288720   -0.500586   -0.377750
      3          6           0       -2.477041    0.491252    0.480603
      4          6           0       -1.066563    0.553939    0.112925
      5          6           0        0.090540    0.592976   -0.220425
      6          6           0        1.501158    0.628402   -0.586791
      7          6           0        2.411583   -0.046474    0.469416
      8          6           0        3.869901    0.059253    0.105607
      9          7           0        4.707959   -0.877954   -0.065676
     10          1           0       -5.320316   -1.256753   -0.594956
     11          1           0       -5.237598    0.433725   -0.083630
     12          1           0       -4.880572   -0.857233    1.070335
     13          1           0       -3.194303   -0.215325   -1.431462
     14          1           0       -2.839959   -1.496107   -0.286873
     15          1           0       -2.568856    0.211678    1.539129
     16          1           0       -2.923784    1.491431    0.396555
     17          1           0        1.824026    1.668655   -0.726666
     18          1           0        1.649329    0.134080   -1.555390
     19          1           0        2.127419   -1.097191    0.591115
     20          1           0        2.245904    0.450182    1.434130
     21          1           0        4.239725    1.083781   -0.030037
     22          1           0        4.259733   -1.788662    0.082774
 ---------------------------------------------------------------------

 SCF Done:  E(RB3LYP) =  -367.384781709     A.U. after    1 cycles

 The electronic state is 1-A.
 Alpha  occ. eigenvalues --  -14.31571 -10.22909 -10.21453 -10.20425 -10.20029
 Alpha  occ. eigenvalues --  -10.18788 -10.17837 -10.17158 -10.16902  -0.90135
 Alpha  occ. eigenvalues --   -0.80978  -0.79668  -0.73707  -0.69495  -0.65028
 Alpha  occ. eigenvalues --   -0.59748  -0.58706  -0.49765  -0.47511  -0.46998
 Alpha  occ. eigenvalues --   -0.46846  -0.43261  -0.42228  -0.41721  -0.39932
 Alpha  occ. eigenvalues --   -0.39395  -0.36708  -0.36307  -0.34940  -0.33813
 Alpha  occ. eigenvalues --   -0.31090  -0.26491  -0.24895  -0.24490
 Alpha virt. eigenvalues --   -0.00108   0.05490   0.05897   0.09387   0.09895
 Alpha virt. eigenvalues --    0.11015   0.13494   0.13774   0.13848   0.14796
 Alpha virt. eigenvalues --    0.15523   0.16970   0.17065   0.18658   0.18988

 Mulliken charges:
               1
     1  C   -0.381613
     2  C   -0.153000
     3  C   -0.335825
     4  C    0.076451
     5  C    0.068310
     6  C   -0.354120
     7  C   -0.234067
     8  C    0.065362
     9  N   -0.387615
    10  H    0.115180
    11  H    0.116032
    12  H    0.115667
    13  H    0.108811
    14  H    0.107446
    15  H    0.123770
    16  H    0.124655
    17  H    0.131683
    18  H    0.135951
    19  H    0.110378
    20  H    0.126723
    21  H    0.104373
    22  H    0.215446
 Sum of Mulliken charges =  -0.00000

 Dipole moment (field-independent basis, Debye):
    X=             -2.5650    Y=              0.1735    Z=              0.4715  Tot=              2.6138
 Quadrupole moment (field-independent basis, Debye-Ang):
   XX=            -69.3264   YY=            -53.2104   ZZ=            -55.3407
   XY=              2.8798   XZ=              1.1003   YZ=             -0.4653

  Exact polarizability: 138.375  -2.789  78.991  -7.818   0.126  68.241
 Approx polarizability: 171.279  -7.564 119.693 -16.893   0.707 103.285

                      1                      2                      3
                      A                      A                      A
 Frequencies --      7.7950                49.4133                60.3003
 Red. masses --      2.4209                 2.6619                 2.4968
 Frc consts  --      0.0001                 0.0038                 0.0053
 IR Inten    --      0.0082                 1.0768                 0.6680

                      4                      5                      6
                      A                      A                      A
 Frequencies --     83.4577               103.9242               123.8559
 Red. masses --      2.7102                 3.0976                 3.1056
 Frc consts  --      0.0111                 0.0197                 0.0281
 IR Inten    --      0.7233                 1.2172                 0.9969

                      7                      8                      9
                      A                      A                      A
 Frequencies --    240.5006               261.2657               272.7756
 Red. masses --      1.0831                 2.8593                 3.0435
 Frc consts  --      0.0369                 0.1150                 0.1334
 IR Inten    --      0.1613                11.1683                 3.0184

                     10                     11                     12
                      A                      A                      A
 Frequencies --    298.3741               366.8867               451.2600
 Red. masses --      2.8997                 3.4854                 3.7953
 Frc consts  --      0.1521                 0.2764                 0.4554
 IR Inten    --      6.5791                 0.4267                 2.6423

                     13                     14                     15
                      A                      A                      A
 Frequencies --    498.1368               535.0604               733.2761
 Red. masses --      4.8879                 3.1910                 1.5793
 Frc consts  --      0.7146                 0.5382                 0.5003
 IR Inten    --      0.0102                 5.4648                 4.9812

                     16                     17                     18
                      A                      A                      A
 Frequencies --    742.8562               777.4216               813.8358
 Red. masses --      1.1034                 1.8175                 2.1051
 Frc consts  --      0.3588                 0.6472                 0.8215
 IR Inten    --      2.2623                 3.1016                 1.7137

                     19                     20                     21
                      A                      A                      A
 Frequencies --    872.2621               895.2254               981.8964
 Red. masses --      1.2259                 2.0296                 2.6235
 Frc consts  --      0.5495                 0.9584                 1.4903
 IR Inten    --      0.4251                 2.3831                 4.3968

                     22                     23                     24
                      A                      A                      A
 Frequencies --   1022.6271              1042.0522              1061.0178
 Red. masses --      4.1394                 2.8741                 1.8080
 Frc consts  --      2.5505                 1.8388                 1.1992
 IR Inten    --      5.4943                 1.4886                10.1551

                     25                     26                     27
                      A                      A                      A
 Frequencies --   1108.4047              1121.7190              1148.9333
 Red. masses --      2.0570                 1.4480                 1.0845
 Frc consts  --      1.4890                 1.0735                 0.8435
 IR Inten    --      2.4304                 0.1527                36.3269

                     28                     29                     30
                      A                      A                      A
 Frequencies --   1165.8301              1170.1223              1258.8180
 Red. masses --      2.8683                 1.1377                 1.3057
 Frc consts  --      2.2969                 0.9178                 1.2190
 IR Inten    --      0.6050                16.0018                 0.0402

                     31                     32                     33
                      A                      A                      A
 Frequencies --   1264.4031              1289.4699              1306.5843
 Red. masses --      1.3500                 1.2930                 1.3899
 Frc consts  --      1.2716                 1.2667                 1.3980
 IR Inten    --      8.9844                57.1274                12.3331

                     34                     35                     36
                      A                      A                      A
 Frequencies --   1312.0126              1321.4319              1365.2158
 Red. masses --      1.1511                 1.0808                 1.4736
 Frc consts  --      1.1675                 1.1119                 1.6182
 IR Inten    --     45.3655                 0.0291                13.8291

                     37                     38                     39
                      A                      A                      A
 Frequencies --   1381.6317              1412.9040              1425.2242
 Red. masses --      1.5276                 1.2366                 1.2242
 Frc consts  --      1.7181                 1.4545                 1.4651
 IR Inten    --      2.6696                 0.6394                28.7142

                     40                     41                     42
                      A                      A                      A
 Frequencies --   1469.3236              1473.4852              1484.3416
 Red. masses --      1.0867                 1.0835                 1.0965
 Frc consts  --      1.3823                 1.3860                 1.4234
 IR Inten    --      2.3671                 1.8958                 5.2009

                     43                     44                     45
                      A                      A                      A
 Frequencies --   1491.8615              1499.0568              1508.9213
 Red. masses --      1.0538                 1.0400                 1.0801
 Frc consts  --      1.3819                 1.3769                 1.4489
 IR Inten    --      0.4034                 5.4235                 3.2462

                     46                     47                     48
                      A                      A                      A
 Frequencies --   1731.8321              2367.4641              3007.0863
 Red. masses --      8.3563                11.8543                 1.0579
 Frc consts  --     14.7664                39.1464                 5.6363
 IR Inten    --     74.2738                 0.7122                22.4058

                     49                     50                     51
                      A                      A                      A
 Frequencies --   3014.5481              3028.8034              3029.2959
 Red. masses --      1.0585                 1.0631                 1.0366
 Frc consts  --      5.6674                 5.7458                 5.6048
 IR Inten    --     13.9622                18.9598                26.0906

                     52                     53                     54
                      A                      A                      A
 Frequencies --   3033.2568              3040.4650              3044.8731
 Red. masses --      1.1003                 1.0591                 1.0971
 Frc consts  --      5.9644                 5.7683                 5.9927
 IR Inten    --      6.8498                29.2518                 9.7273

                     55                     56                     57
                      A                      A                      A
 Frequencies --   3049.9178              3072.2855              3085.6183
 Red. masses --      1.0866                 1.1026                 1.1027
 Frc consts  --      5.9553                 6.1321                 6.1858
 IR Inten    --     24.9301                 3.7497                33.1865

                     58                     59                     60
                      A                      A                      A
 Frequencies --   3099.5172              3105.4165              3399.3116
 Red. masses --      1.1033                 1.1004                 1.0735
 Frc consts  --      6.2449                 6.2526                 7.3083
 IR Inten    --     57.2789                32.1090                 4.9560

 - Thermochemistry -
 -------------------
 Temperature   298.150 Kelvin.  Pressure   1.00000 Atm.
 Atom     1 has atomic number  6 and mass  12.00000

 Molecular mass:   123.10480 amu.
 Principal axes and moments of inertia in atomic units:
                           1         2         3
     Eigenvalues --   258.988224518.634084607.55967
           X            0.99998   0.00637  -0.00050
           Y           -0.00638   0.99996  -0.00653
           Z            0.00046   0.00653   0.99998
 This molecule is an asymmetric top.
 Rotational symmetry number  1.
 Rotational temperatures (Kelvin)      0.33443     0.01917     0.01880
 Rotational constants (GHZ):           6.96843     0.39940     0.39169
 Zero-point vibrational energy     504733.6 (Joules/Mol)
                                  120.63422 (Kcal/Mol)
 Warning -- explicit consideration of  14 degrees of freedom as
           vibrations may cause significant error
 Vibrational temperatures:     11.22    71.09    86.76   120.08   149.52
          (Kelvin)            178.20   346.03   375.90   392.46   429.29
                              527.87   649.26   716.71   769.83  1055.02
                             1068.80  1118.54  1170.93  1254.99  1288.03
                             1412.73  1471.33  1499.28  1526.57  1594.75
                             1613.90  1653.06  1677.37  1683.54  1811.16
                             1819.19  1855.26  1879.88  1887.69  1901.25
                             1964.24  1987.86  2032.85  2050.58  2114.03
                             2120.02  2135.64  2146.46  2156.81  2171.00
                             2491.72  3406.25  4326.53  4337.26  4357.77
                             4358.48  4364.18  4374.55  4380.89  4388.15
                             4420.33  4439.52  4459.51  4468.00  4890.85

 Zero-point correction=                           0.192243 (Hartree/Particle)
 Thermal correction to Energy=                    0.203558
 Thermal correction to Enthalpy=                  0.204502
 Thermal correction to Gibbs Free Energy=         0.152152
 Sum of electronic and zero-point Energies=           -367.192539
 Sum of electronic and thermal Energies=              -367.181224
 Sum of electronic and thermal Enthalpies=            -367.180280
 Sum of electronic and thermal Free Energies=         -367.232629

                     E (Thermal)             CV                S
                      KCal/Mol        Cal/Mol-Kelvin    Cal/Mol-Kelvin
 Total                  127.734             38.341            110.179
 Electronic               0.000              0.000              0.000
 Translational            0.889              2.981             40.338
 Rotational               0.889              2.981             30.068
 Vibrational            125.957             32.379             39.774
 Vibration     1          0.593              1.987              8.506
 Vibration     2          0.595              1.978              4.841
 Vibration     3          0.597              1.973              4.447
 Vibration     4          0.600              1.961              3.808
 Vibration     5          0.605              1.946              3.379
 Vibration     6          0.610              1.929              3.039
 Vibration     7          0.658              1.778              1.799
 Vibration     8          0.669              1.744              1.653
 Vibration     9          0.676              1.724              1.579
 Vibration    10          0.691              1.677              1.426
 Vibration    11          0.740              1.540              1.093
 Vibration    12          0.810              1.358              0.792
 Vibration    13          0.854              1.254              0.663
 Vibration    14          0.890              1.172              0.576

                           ! Non-Optimized Parameters !
 Normal termination of Gaussian 16 at Thu Aug  4 08:30:18 2022.
