 Gaussian 16, Revision A.03,
 Gaussian 16:  ES64L-G16RevA.03 25-Dec-2016

 -----------------------------
 # opt freq b3lyp/6-31g(2df,p)
 -----------------------------

 -------------------
 Title Card Required
 -------------------
 Symbolic Z-matrix:
 Charge =  0 Multiplicity = 1

 SCF Done:  E(RB3LYP) =  -441.702253264     A.U. after   13 cycles
 SCF Done:  E(RB3LYP) =  -441.705781368     A.U. after   12 cycles
 SCF Done:  E(RB3LYP) =  -441.706595152     A.U. after   12 cycles
 SCF Done:  E(RB3LYP) =  -441.707237204     A.U. after   12 cycles
 SCF Done:  E(RB3LYP) =  -441.707665854     A.U. after   12 cycles
 SCF Done:  E(RB3LYP) =  -441.707828341     A.U. after   13 cycles
 SCF Done:  E(RB3LYP) =  -441.708471739     A.U. after   11 cycles
 SCF Done:  E(RB3LYP) =  -441.708564932     A.U. after   10 cycles
 SCF Done:  E(RB3LYP) =  -441.708675270     A.U. after   12 cycles
 SCF Done:  E(RB3LYP) =  -441.708701999     A.U. after   10 cycles
 SCF Done:  E(RB3LYP) =  -441.708755153     A.U. after   11 cycles
 SCF Done:  E(RB3LYP) =  -441.708760342     A.U. after    9 cycles
 SCF Done:  E(RB3LYP) =  -441.708761170     A.U. after    8 cycles
 SCF Done:  E(RB3LYP) =  -441.708761232     A.U. after    7 cycles
 Optimization completed.
    -- Stationary point found.
 Normal termination of Gaussian 16 at Thu Aug  4 00:11:28 2022.

 ----------------------------------------------------------------------
 #N Geom=AllCheck Guess=TCheck SCRF=Check GenChk RB3LYP/6-31G(2df,p) Fr
 eq
 ----------------------------------------------------------------------

 Structure from the checkpoint file:  "CCCCpOpCNCdO.chk"
 -------------------
 Title Card Required
 -------------------
 Charge =  0 Multiplicity = 1

                         Standard orientation:
 ---------------------------------------------------------------------
 Center     Atomic      Atomic             Coordinates (Angstroms)
 Number     Number       Type             X           Y           Z
 ---------------------------------------------------------------------
      1          6           0       -4.201651   -0.453559   -0.107931
      2          6           0       -2.854765    0.148152   -0.515435
      3          6           0       -1.671036   -0.467871    0.238860
      4          6           0       -0.324325    0.165247   -0.116379
      5          8           0       -0.297429    1.568298    0.153842
      6          6           0        0.850581   -0.519251    0.596559
      7          7           0        2.105590    0.108715    0.250072
      8          6           0        3.225589   -0.537914   -0.167906
      9          8           0        4.263608   -0.002869   -0.488425
     10          1           0       -5.024872    0.003844   -0.664968
     11          1           0       -4.398368   -0.301979    0.959463
     12          1           0       -4.230508   -1.532401   -0.297683
     13          1           0       -2.858725    1.230383   -0.346567
     14          1           0       -2.700374    0.011483   -1.593551
     15          1           0       -1.620268   -1.545948    0.035402
     16          1           0       -1.832459   -0.373630    1.324318
     17          1           0       -0.156676    0.095197   -1.198141
     18          1           0       -0.577666    1.696871    1.068002
     19          1           0        0.900314   -1.577456    0.318678
     20          1           0        0.676205   -0.479890    1.684205
     21          1           0        2.126558    1.119510    0.251514
     22          1           0        3.081925   -1.639248   -0.181116
 ---------------------------------------------------------------------

 SCF Done:  E(RB3LYP) =  -441.708761232     A.U. after    1 cycles

 The electronic state is 1-A.
 Alpha  occ. eigenvalues --  -19.15472 -19.09794 -14.35152 -10.27133 -10.24710
 Alpha  occ. eigenvalues --  -10.23234 -10.19606 -10.18940 -10.18172  -1.03689
 Alpha  occ. eigenvalues --   -1.02391  -0.92256  -0.80651  -0.75517  -0.69390
 Alpha  occ. eigenvalues --   -0.62684  -0.62111  -0.59775  -0.51319  -0.49887
 Alpha  occ. eigenvalues --   -0.48254  -0.46981  -0.45618  -0.44121  -0.42064
 Alpha  occ. eigenvalues --   -0.40838  -0.40033  -0.38347  -0.37505  -0.36372
 Alpha  occ. eigenvalues --   -0.34871  -0.33890  -0.33116  -0.29182  -0.24772
 Alpha  occ. eigenvalues --   -0.24611
 Alpha virt. eigenvalues --    0.03452   0.05520   0.09095   0.09638   0.10390
 Alpha virt. eigenvalues --    0.11860   0.12933   0.13721   0.15200   0.15966
 Alpha virt. eigenvalues --    0.16420   0.17508   0.18467   0.18835   0.19352

 Mulliken charges:
               1
     1  C   -0.383332
     2  C   -0.165363
     3  C   -0.193461
     4  C    0.118453
     5  O   -0.432062
     6  C   -0.180006
     7  N   -0.247341
     8  C    0.157779
     9  O   -0.330914
    10  H    0.117312
    11  H    0.113120
    12  H    0.114938
    13  H    0.109174
    14  H    0.100601
    15  H    0.100926
    16  H    0.086746
    17  H    0.099556
    18  H    0.281411
    19  H    0.119165
    20  H    0.097298
    21  H    0.255809
    22  H    0.060191
 Sum of Mulliken charges =  -0.00000

 Dipole moment (field-independent basis, Debye):
    X=             -4.6324    Y=             -1.1763    Z=              1.9026  Tot=              5.1442
 Quadrupole moment (field-independent basis, Debye-Ang):
   XX=            -77.5348   YY=            -54.4123   ZZ=            -53.6125
   XY=             -1.9405   XZ=              3.1723   YZ=              2.8888

  Exact polarizability: 107.598   0.172  72.891  -5.333   0.704  65.702
 Approx polarizability: 128.570   2.283 110.477 -11.800   1.476 101.475

                      1                      2                      3
                      A                      A                      A
 Frequencies --     38.1744                64.2396                93.2730
 Red. masses --      5.2296                 3.1141                 2.2808
 Frc consts  --      0.0045                 0.0076                 0.0117
 IR Inten    --      2.2314                 1.1340                 0.1498

                      4                      5                      6
                      A                      A                      A
 Frequencies --    111.7358               127.0072               177.8342
 Red. masses --      2.8287                 2.5118                 2.4826
 Frc consts  --      0.0208                 0.0239                 0.0463
 IR Inten    --      0.8063                 2.6175                 0.9178

                      7                      8                      9
                      A                      A                      A
 Frequencies --    247.2703               279.9889               300.6804
 Red. masses --      1.1163                 3.3627                 3.7840
 Frc consts  --      0.0402                 0.1553                 0.2016
 IR Inten    --      0.0145                 2.2934                 2.1793

                     10                     11                     12
                      A                      A                      A
 Frequencies --    319.4304               345.5328               365.0098
 Red. masses --      2.9018                 1.6538                 2.0071
 Frc consts  --      0.1744                 0.1163                 0.1576
 IR Inten    --      4.8677                79.7449                41.1326

                     13                     14                     15
                      A                      A                      A
 Frequencies --    469.4969               569.0299               635.8693
 Red. masses --      2.0226                 3.0251                 2.5375
 Frc consts  --      0.2627                 0.5771                 0.6045
 IR Inten    --      6.8202                18.3216                42.5899

                     16                     17                     18
                      A                      A                      A
 Frequencies --    664.0773               747.0829               851.5670
 Red. masses --      1.5259                 1.1235                 1.7821
 Frc consts  --      0.3965                 0.3695                 0.7614
 IR Inten    --     84.3546                 1.6388                 6.4538

                     19                     20                     21
                      A                      A                      A
 Frequencies --    877.5058               903.9247               976.7192
 Red. masses --      1.7468                 2.0252                 1.6116
 Frc consts  --      0.7925                 0.9750                 0.9058
 IR Inten    --      2.6825                 1.1187                21.2419

                     22                     23                     24
                      A                      A                      A
 Frequencies --   1036.0121              1045.4555              1050.6390
 Red. masses --      2.1519                 3.0694                 1.5434
 Frc consts  --      1.3608                 1.9766                 1.0038
 IR Inten    --      0.1176                13.8213                 0.2806

                     25                     26                     27
                      A                      A                      A
 Frequencies --   1087.7613              1102.4159              1142.6061
 Red. masses --      2.7703                 1.4119                 2.5183
 Frc consts  --      1.9312                 1.0110                 1.9371
 IR Inten    --     43.8427                15.1520                33.0973

                     28                     29                     30
                      A                      A                      A
 Frequencies --   1160.2004              1212.6560              1243.4483
 Red. masses --      3.0378                 1.3941                 1.4435
 Frc consts  --      2.4092                 1.2079                 1.3150
 IR Inten    --      4.9997                89.1273                13.4544

                     31                     32                     33
                      A                      A                      A
 Frequencies --   1275.7414              1293.5744              1309.3312
 Red. masses --      1.2463                 1.8316                 1.2670
 Frc consts  --      1.1951                 1.8058                 1.2797
 IR Inten    --      1.5911                74.4429                 5.0232

                     34                     35                     36
                      A                      A                      A
 Frequencies --   1339.5439              1351.9418              1395.7056
 Red. masses --      1.2817                 1.3107                 1.3580
 Frc consts  --      1.3550                 1.4114                 1.5586
 IR Inten    --      4.7341                 8.4617                 2.1611

                     37                     38                     39
                      A                      A                      A
 Frequencies --   1401.8319              1415.0251              1420.9015
 Red. masses --      1.4787                 1.2344                 1.1974
 Frc consts  --      1.7121                 1.4562                 1.4244
 IR Inten    --      4.7501                 1.2789                35.2561

                     40                     41                     42
                      A                      A                      A
 Frequencies --   1424.1345              1477.1603              1486.8395
 Red. masses --      1.2632                 1.0831                 1.9273
 Frc consts  --      1.5094                 1.3924                 2.5103
 IR Inten    --     22.3698                 1.8463                43.3979

                     43                     44                     45
                      A                      A                      A
 Frequencies --   1492.3932              1495.2755              1500.2730
 Red. masses --      1.0712                 1.0771                 1.0405
 Frc consts  --      1.4057                 1.4188                 1.3798
 IR Inten    --      8.5990                 1.9512                 5.6030

                     46                     47                     48
                      A                      A                      A
 Frequencies --   1511.5456              1820.5017              2908.3733
 Red. masses --      1.0858                 7.6888                 1.0824
 Frc consts  --      1.4616                15.0138                 5.3946
 IR Inten    --      3.1411               537.6877                83.4996

                     49                     50                     51
                      A                      A                      A
 Frequencies --   2969.7860              2989.1788              3026.4625
 Red. masses --      1.0709                 1.0655                 1.0582
 Frc consts  --      5.5650                 5.6095                 5.7108
 IR Inten    --     41.2516                25.8207                10.4848

                     52                     53                     54
                      A                      A                      A
 Frequencies --   3029.7596              3034.3237              3048.7999
 Red. masses --      1.0437                 1.0886                 1.0860
 Frc consts  --      5.6446                 5.9051                 5.9478
 IR Inten    --     39.6903                 8.1444                34.2518

                     55                     56                     57
                      A                      A                      A
 Frequencies --   3069.7738              3077.5804              3097.0608
 Red. masses --      1.0974                 1.0918                 1.1022
 Frc consts  --      6.0929                 6.0929                 6.2290
 IR Inten    --      1.6684                25.7985                60.0560

                     58                     59                     60
                      A                      A                      A
 Frequencies --   3104.4745              3603.2022              3784.4683
 Red. masses --      1.1005                 1.0751                 1.0658
 Frc consts  --      6.2490                 8.2240                 8.9937
 IR Inten    --     34.6413                36.9959                14.2832

 - Thermochemistry -
 -------------------
 Temperature   298.150 Kelvin.  Pressure   1.00000 Atm.
 Atom     1 has atomic number  6 and mass  12.00000

 Molecular mass:   131.09463 amu.
 Principal axes and moments of inertia in atomic units:
                           1         2         3
     Eigenvalues --   333.385253413.637053565.69316
           X            0.99999   0.00278   0.00437
           Y           -0.00280   0.99999   0.00264
           Z           -0.00436  -0.00265   0.99999
 This molecule is an asymmetric top.
 Rotational symmetry number  1.
 Rotational temperatures (Kelvin)      0.25980     0.02537     0.02429
 Rotational constants (GHZ):           5.41338     0.52869     0.50614
 Zero-point vibrational energy     504833.7 (Joules/Mol)
                                  120.65816 (Kcal/Mol)
 Warning -- explicit consideration of  14 degrees of freedom as
           vibrations may cause significant error
 Vibrational temperatures:     54.92    92.43   134.20   160.76   182.74
          (Kelvin)            255.86   355.77   402.84   432.61   459.59
                              497.14   525.17   675.50   818.71   914.87
                              955.46  1074.89  1225.22  1262.54  1300.55
                             1405.28  1490.59  1504.18  1511.64  1565.05
                             1586.13  1643.96  1669.27  1744.74  1789.04
                             1835.51  1861.17  1883.84  1927.30  1945.14
                             2008.11  2016.92  2035.91  2044.36  2049.01
                             2125.30  2139.23  2147.22  2151.37  2158.56
                             2174.78  2619.30  4184.50  4272.86  4300.76
                             4354.40  4359.15  4365.71  4386.54  4416.72
                             4427.95  4455.98  4466.65  5184.20  5445.01

 Zero-point correction=                           0.192281 (Hartree/Particle)
 Thermal correction to Energy=                    0.203324
 Thermal correction to Enthalpy=                  0.204268
 Thermal correction to Gibbs Free Energy=         0.154814
 Sum of electronic and zero-point Energies=           -441.516480
 Sum of electronic and thermal Energies=              -441.505437
 Sum of electronic and thermal Enthalpies=            -441.504493
 Sum of electronic and thermal Free Energies=         -441.553947

                     E (Thermal)             CV                S
                      KCal/Mol        Cal/Mol-Kelvin    Cal/Mol-Kelvin
 Total                  127.588             38.652            104.086
 Electronic               0.000              0.000              0.000
 Translational            0.889              2.981             40.525
 Rotational               0.889              2.981             29.785
 Vibrational            125.810             32.690             33.775
 Vibration     1          0.594              1.982              5.352
 Vibration     2          0.597              1.971              4.323
 Vibration     3          0.602              1.954              3.590
 Vibration     4          0.607              1.940              3.239
 Vibration     5          0.611              1.926              2.991
 Vibration     6          0.628              1.870              2.351
 Vibration     7          0.661              1.767              1.750
 Vibration     8          0.680              1.711              1.534
 Vibration     9          0.693              1.672              1.413
 Vibration    10          0.705              1.636              1.313
 Vibration    11          0.724              1.584              1.186
 Vibration    12          0.738              1.544              1.101
 Vibration    13          0.827              1.318              0.739
 Vibration    14          0.925              1.098              0.506

 Optimization completed.
    -- Stationary point found.
 Normal termination of Gaussian 16 at Thu Aug  4 00:42:27 2022.
