 Gaussian 16, Revision A.03,
 Gaussian 16:  ES64L-G16RevA.03 25-Dec-2016

 -----------------------------
 # opt freq b3lyp/6-31g(2df,p)
 -----------------------------

 -------------------
 Title Card Required
 -------------------
 Symbolic Z-matrix:
 Charge =  0 Multiplicity = 1

 SCF Done:  E(RB3LYP) =  -384.663675343     A.U. after   14 cycles
 SCF Done:  E(RB3LYP) =  -384.690365051     A.U. after   12 cycles
 SCF Done:  E(RB3LYP) =  -384.692502090     A.U. after   12 cycles
 SCF Done:  E(RB3LYP) =  -384.692963744     A.U. after   11 cycles
 SCF Done:  E(RB3LYP) =  -384.693381252     A.U. after   11 cycles
 SCF Done:  E(RB3LYP) =  -384.693448614     A.U. after    9 cycles
 SCF Done:  E(RB3LYP) =  -384.693469443     A.U. after    9 cycles
 SCF Done:  E(RB3LYP) =  -384.693484846     A.U. after    9 cycles
 SCF Done:  E(RB3LYP) =  -384.693492700     A.U. after    9 cycles
 SCF Done:  E(RB3LYP) =  -384.693494745     A.U. after    9 cycles
 SCF Done:  E(RB3LYP) =  -384.693495062     A.U. after    8 cycles
 SCF Done:  E(RB3LYP) =  -384.693495296     A.U. after    7 cycles
 SCF Done:  E(RB3LYP) =  -384.693495308     A.U. after    6 cycles
 SCF Done:  E(RB3LYP) =  -384.693495302     A.U. after    6 cycles
 SCF Done:  E(RB3LYP) =  -384.693495294     A.U. after    6 cycles
 Optimization completed.
    -- Stationary point found.
 Normal termination of Gaussian 16 at Thu Aug  4 02:27:47 2022.

 ----------------------------------------------------------------------
 #N Geom=AllCheck Guess=TCheck SCRF=Check GenChk RB3LYP/6-31G(2df,p) Fr
 eq
 ----------------------------------------------------------------------

 Structure from the checkpoint file:  "CCCCpCNpCCtN.chk"
 -------------------
 Title Card Required
 -------------------
 Charge =  0 Multiplicity = 1

                         Standard orientation:
 ---------------------------------------------------------------------
 Center     Atomic      Atomic             Coordinates (Angstroms)
 Number     Number       Type             X           Y           Z
 ---------------------------------------------------------------------
      1          6           0       -3.589717   -0.788413   -0.044345
      2          6           0       -2.271959   -0.135538   -0.470516
      3          6           0       -1.069742   -0.688703    0.306708
      4          6           0        0.306013   -0.112446   -0.089901
      5          6           0        0.596462    1.284462    0.489124
      6          7           0       -0.270656    2.317630   -0.086481
      7          6           0        1.415096   -1.100239    0.358799
      8          6           0        2.752496   -0.737230   -0.106609
      9          7           0        3.803279   -0.445586   -0.490352
     10          1           0       -4.432636   -0.391745   -0.618706
     11          1           0       -3.797561   -0.606363    1.016242
     12          1           0       -3.567608   -1.874358   -0.193382
     13          1           0       -2.319485    0.947615   -0.335780
     14          1           0       -2.110083   -0.308037   -1.543490
     15          1           0       -1.045878   -1.778933    0.168198
     16          1           0       -1.223723   -0.528443    1.383489
     17          1           0        0.356589   -0.046991   -1.186010
     18          1           0        1.668699    1.501560    0.358337
     19          1           0        0.411451    1.258588    1.571350
     20          1           0       -0.024512    2.463738   -1.061870
     21          1           0       -0.099297    3.203153    0.379931
     22          1           0        1.189106   -2.104959   -0.013821
     23          1           0        1.434683   -1.170492    1.453778
 ---------------------------------------------------------------------

 SCF Done:  E(RB3LYP) =  -384.693495294     A.U. after    1 cycles

 The electronic state is 1-A.
 Alpha  occ. eigenvalues --  -14.32379 -14.31791 -10.23208 -10.21760 -10.21453
 Alpha  occ. eigenvalues --  -10.20847 -10.18635 -10.17420 -10.17169  -0.90016
 Alpha  occ. eigenvalues --   -0.88910  -0.82252  -0.77358  -0.71138  -0.67094
 Alpha  occ. eigenvalues --   -0.60166  -0.57837  -0.51310  -0.48870  -0.48136
 Alpha  occ. eigenvalues --   -0.47471  -0.44574  -0.42117  -0.40830  -0.40475
 Alpha  occ. eigenvalues --   -0.38200  -0.36770  -0.35643  -0.34536  -0.33614
 Alpha  occ. eigenvalues --   -0.33234  -0.32727  -0.31951  -0.31197  -0.24205
 Alpha virt. eigenvalues --    0.03390   0.04198   0.07677   0.08456   0.09924
 Alpha virt. eigenvalues --    0.10192   0.13864   0.14656   0.15056   0.15656
 Alpha virt. eigenvalues --    0.16378   0.16766   0.17328   0.17988   0.19084

 Mulliken charges:
               1
     1  C   -0.380057
     2  C   -0.181196
     3  C   -0.166471
     4  C    0.015206
     5  C   -0.160129
     6  N   -0.504921
     7  C   -0.357883
     8  C    0.261623
     9  N   -0.317050
    10  H    0.111895
    11  H    0.112513
    12  H    0.108445
    13  H    0.132999
    14  H    0.085747
    15  H    0.086286
    16  H    0.093594
    17  H    0.087368
    18  H    0.108814
    19  H    0.102294
    20  H    0.229457
    21  H    0.231657
    22  H    0.150800
    23  H    0.149009
 Sum of Mulliken charges =   0.00000

 Dipole moment (field-independent basis, Debye):
    X=             -2.6873    Y=              0.2282    Z=              0.9522  Tot=              2.8601
 Quadrupole moment (field-independent basis, Debye-Ang):
   XX=            -78.3956   YY=            -50.5519   ZZ=            -54.7041
   XY=              1.9077   XZ=              3.9870   YZ=             -0.7952

  Exact polarizability: 107.952   1.991  81.796  -2.657  -1.111  72.576
 Approx polarizability: 139.636   5.354 114.495  -8.810  -2.101 114.932

                      1                      2                      3
                      A                      A                      A
 Frequencies --     37.1648                61.4632                84.5692
 Red. masses --      1.9760                 3.4233                 2.5164
 Frc consts  --      0.0016                 0.0076                 0.0106
 IR Inten    --      0.6407                 6.3177                 4.0265

                      4                      5                      6
                      A                      A                      A
 Frequencies --    119.6000               137.7735               197.2634
 Red. masses --      3.3958                 2.5371                 3.3507
 Frc consts  --      0.0286                 0.0284                 0.0768
 IR Inten    --      5.3945                 2.1490                 1.8840

                      7                      8                      9
                      A                      A                      A
 Frequencies --    241.4000               246.9591               254.7400
 Red. masses --      1.1464                 1.1503                 2.6605
 Frc consts  --      0.0394                 0.0413                 0.1017
 IR Inten    --     17.2685                10.1650                 5.5983

                     10                     11                     12
                      A                      A                      A
 Frequencies --    315.2359               373.5224               399.4636
 Red. masses --      3.5785                 2.6535                 4.0524
 Frc consts  --      0.2095                 0.2181                 0.3810
 IR Inten    --      1.6435                 0.9850                 1.3926

                     13                     14                     15
                      A                      A                      A
 Frequencies --    434.0901               448.6438               605.7797
 Red. masses --      3.3760                 2.5714                 3.8123
 Frc consts  --      0.3748                 0.3049                 0.8243
 IR Inten    --     10.5546                 1.2749                 3.9076

                     16                     17                     18
                      A                      A                      A
 Frequencies --    747.3138               812.0180               850.3358
 Red. masses --      1.1243                 1.9191                 1.2477
 Frc consts  --      0.3699                 0.7455                 0.5315
 IR Inten    --      4.6483                14.0984                51.4958

                     19                     20                     21
                      A                      A                      A
 Frequencies --    865.1999               883.5748               954.4544
 Red. masses --      1.4134                 2.2213                 2.7720
 Frc consts  --      0.6234                 1.0218                 1.4878
 IR Inten    --     11.5513                22.5652                 2.9252

                     22                     23                     24
                      A                      A                      A
 Frequencies --    955.1851               994.7780              1026.6587
 Red. masses --      2.0493                 1.5448                 2.6761
 Frc consts  --      1.1016                 0.9007                 1.6619
 IR Inten    --     14.5837                 5.5254                 0.7523

                     25                     26                     27
                      A                      A                      A
 Frequencies --   1048.0445              1072.9071              1096.4934
 Red. masses --      2.1870                 1.8042                 2.5844
 Frc consts  --      1.4153                 1.2236                 1.8307
 IR Inten    --      2.1261                 1.3748                 9.6535

                     28                     29                     30
                      A                      A                      A
 Frequencies --   1137.9845              1138.8245              1183.9770
 Red. masses --      1.6341                 2.3456                 1.4018
 Frc consts  --      1.2468                 1.7923                 1.1577
 IR Inten    --      0.0409                 3.2023                 0.7108

                     31                     32                     33
                      A                      A                      A
 Frequencies --   1237.8009              1282.4438              1285.6117
 Red. masses --      1.4162                 1.2194                 1.3050
 Frc consts  --      1.2784                 1.1816                 1.2708
 IR Inten    --      0.9464                 0.2740                 1.7693

                     34                     35                     36
                      A                      A                      A
 Frequencies --   1326.2839              1332.7288              1336.0683
 Red. masses --      1.2855                 1.1598                 1.1757
 Frc consts  --      1.3323                 1.2138                 1.2365
 IR Inten    --      0.8602                 3.1552                 3.6224

                     37                     38                     39
                      A                      A                      A
 Frequencies --   1368.5864              1381.6379              1397.7732
 Red. masses --      1.2920                 1.3718                 1.4784
 Frc consts  --      1.4257                 1.5429                 1.7018
 IR Inten    --      0.9997                 0.5644                 1.6630

                     40                     41                     42
                      A                      A                      A
 Frequencies --   1412.3233              1440.7787              1463.9780
 Red. masses --      1.2344                 1.3942                 1.0899
 Frc consts  --      1.4506                 1.7052                 1.3762
 IR Inten    --      1.0634                 4.6685                 4.2821

                     43                     44                     45
                      A                      A                      A
 Frequencies --   1485.3206              1497.1809              1499.9019
 Red. masses --      1.0900                 1.0438                 1.0407
 Frc consts  --      1.4168                 1.3785                 1.3795
 IR Inten    --      3.7624                 1.6319                 4.8620

                     46                     47                     48
                      A                      A                      A
 Frequencies --   1510.5958              1516.9577              1659.0404
 Red. masses --      1.0851                 1.0916                 1.0876
 Frc consts  --      1.4588                 1.4800                 1.7637
 IR Inten    --      2.8626                 2.5365                25.2497

                     49                     50                     51
                      A                      A                      A
 Frequencies --   2357.4171              2970.6912              2996.0242
 Red. masses --     12.6108                 1.0676                 1.0588
 Frc consts  --     41.2920                 5.5508                 5.5994
 IR Inten    --     11.3524                56.7045                19.3698

                     52                     53                     54
                      A                      A                      A
 Frequencies --   3006.2162              3013.5976              3025.1138
 Red. masses --      1.0814                 1.0767                 1.0372
 Frc consts  --      5.7578                 5.7610                 5.5924
 IR Inten    --      2.8751                18.2355                36.5819

                     55                     56                     57
                      A                      A                      A
 Frequencies --   3030.6461              3035.7507              3042.1775
 Red. masses --      1.0923                 1.0713                 1.0845
 Frc consts  --      5.9108                 5.8171                 5.9136
 IR Inten    --      5.0843                14.2860                71.6489

                     58                     59                     60
                      A                      A                      A
 Frequencies --   3080.4089              3081.1764              3099.7259
 Red. masses --      1.0994                 1.0976                 1.1009
 Frc consts  --      6.1463                 6.1394                 6.2324
 IR Inten    --     12.8020                14.0547                35.8378

                     61                     62                     63
                      A                      A                      A
 Frequencies --   3112.5885              3487.3651              3564.9747
 Red. masses --      1.0948                 1.0498                 1.0918
 Frc consts  --      6.2494                 7.5221                 8.1757
 IR Inten    --     27.6710                 0.1818                 0.5854

 - Thermochemistry -
 -------------------
 Temperature   298.150 Kelvin.  Pressure   1.00000 Atm.
 Atom     1 has atomic number  6 and mass  12.00000

 Molecular mass:   126.11570 amu.
 Principal axes and moments of inertia in atomic units:
                           1         2         3
     Eigenvalues --   686.075012301.889372807.59695
           X            0.99973   0.02219   0.00733
           Y           -0.02213   0.99971  -0.00913
           Z           -0.00753   0.00896   0.99993
 This molecule is an asymmetric top.
 Rotational symmetry number  1.
 Warning -- assumption of classical behavior for rotation
           may cause significant error
 Rotational temperatures (Kelvin)      0.12625     0.03763     0.03085
 Rotational constants (GHZ):           2.63053     0.78403     0.64281
 Zero-point vibrational energy     538704.2 (Joules/Mol)
                                  128.75339 (Kcal/Mol)
 Warning -- explicit consideration of  15 degrees of freedom as
           vibrations may cause significant error
 Vibrational temperatures:     53.47    88.43   121.68   172.08   198.23
          (Kelvin)            283.82   347.32   355.32   366.51   453.55
                              537.42   574.74   624.56   645.50   871.58
                             1075.22  1168.31  1223.44  1244.83  1271.27
                             1373.25  1374.30  1431.26  1477.13  1507.90
                             1543.67  1577.61  1637.31  1638.51  1703.48
                             1780.92  1845.15  1849.71  1908.23  1917.50
                             1922.30  1969.09  1987.87  2011.08  2032.02
                             2072.96  2106.34  2137.05  2154.11  2158.02
                             2173.41  2182.56  2386.99  3391.80  4274.16
                             4310.61  4325.27  4335.89  4352.46  4360.42
                             4367.77  4377.01  4432.02  4433.13  4459.81
                             4478.32  5017.54  5129.20

 Zero-point correction=                           0.205182 (Hartree/Particle)
 Thermal correction to Energy=                    0.216390
 Thermal correction to Enthalpy=                  0.217335
 Thermal correction to Gibbs Free Energy=         0.167587
 Sum of electronic and zero-point Energies=           -384.488314
 Sum of electronic and thermal Energies=              -384.477105
 Sum of electronic and thermal Enthalpies=            -384.476161
 Sum of electronic and thermal Free Energies=         -384.525908

                     E (Thermal)             CV                S
                      KCal/Mol        Cal/Mol-Kelvin    Cal/Mol-Kelvin
 Total                  135.787             39.452            104.702
 Electronic               0.000              0.000              0.000
 Translational            0.889              2.981             40.410
 Rotational               0.889              2.981             29.873
 Vibrational            134.010             33.491             34.419
 Vibration     1          0.594              1.982              5.405
 Vibration     2          0.597              1.973              4.410
 Vibration     3          0.601              1.960              3.782
 Vibration     4          0.609              1.933              3.107
 Vibration     5          0.614              1.916              2.835
 Vibration     6          0.637              1.844              2.158
 Vibration     7          0.658              1.777              1.793
 Vibration     8          0.661              1.768              1.752
 Vibration     9          0.665              1.755              1.698
 Vibration    10          0.703              1.645              1.335
 Vibration    11          0.745              1.526              1.065
 Vibration    12          0.766              1.471              0.965
 Vibration    13          0.795              1.396              0.845
 Vibration    14          0.808              1.364              0.800
 Vibration    15          0.964              1.020              0.440

 Optimization completed.
    -- Stationary point found.
 Normal termination of Gaussian 16 at Thu Aug  4 03:02:41 2022.
