 Gaussian 16, Revision A.03,
 Gaussian 16:  ES64L-G16RevA.03 25-Dec-2016

 -----------------------------
 # opt freq b3lyp/6-31g(2df,p)
 -----------------------------

 -------------------
 Title Card Required
 -------------------
 Symbolic Z-matrix:
 Charge =  0 Multiplicity = 1

 SCF Done:  E(RB3LYP) =  -347.794895073     A.U. after   12 cycles
 SCF Done:  E(RB3LYP) =  -347.799605869     A.U. after   10 cycles
 SCF Done:  E(RB3LYP) =  -347.800394939     A.U. after    9 cycles
 SCF Done:  E(RB3LYP) =  -347.800504363     A.U. after    8 cycles
 SCF Done:  E(RB3LYP) =  -347.800566145     A.U. after    9 cycles
 SCF Done:  E(RB3LYP) =  -347.800579924     A.U. after    8 cycles
 SCF Done:  E(RB3LYP) =  -347.800584350     A.U. after    8 cycles
 SCF Done:  E(RB3LYP) =  -347.800584848     A.U. after    7 cycles
 SCF Done:  E(RB3LYP) =  -347.800584956     A.U. after    6 cycles
 Optimization completed.
    -- Stationary point found.
 Normal termination of Gaussian 16 at Sun Jul  3 20:01:15 2022.

 ----------------------------------------------------------------------
 #N Geom=AllCheck Guess=TCheck SCRF=Check GenChk RB3LYP/6-31G(2df,p) Fr
 eq
 ----------------------------------------------------------------------

 Structure from the checkpoint file:  "CCCCCNCN.chk"
 -------------------
 Title Card Required
 -------------------
 Charge =  0 Multiplicity = 1

                         Standard orientation:
 ---------------------------------------------------------------------
 Center     Atomic      Atomic             Coordinates (Angstroms)
 Number     Number       Type             X           Y           Z
 ---------------------------------------------------------------------
      1          6           0       -4.425374    0.221812    0.017663
      2          6           0       -3.107520   -0.557221    0.001158
      3          6           0       -1.871002    0.348182    0.007494
      4          6           0       -0.549775   -0.426256   -0.005366
      5          6           0        0.681046    0.480466   -0.009308
      6          7           0        1.911722   -0.298951    0.016073
      7          6           0        3.122716    0.499234   -0.001951
      8          7           0        4.261910   -0.409379   -0.027190
      9          1           0       -5.288783   -0.450927    0.012312
     10          1           0       -4.508920    0.877354   -0.856499
     11          1           0       -4.501004    0.853013    0.910242
     12          1           0       -3.075785   -1.205693   -0.884523
     13          1           0       -3.067417   -1.229263    0.868575
     14          1           0       -1.903731    0.998235    0.893229
     15          1           0       -1.910890    1.020541   -0.861043
     16          1           0       -0.519505   -1.077372   -0.891030
     17          1           0       -0.492497   -1.090848    0.865328
     18          1           0        0.666857    1.118731    0.885140
     19          1           0        0.626657    1.168611   -0.876241
     20          1           0        1.944024   -0.935213   -0.775783
     21          1           0        3.084254    1.167618    0.877435
     22          1           0        3.206167    1.155124   -0.890374
     23          1           0        4.297347   -0.923967    0.847947
     24          1           0        5.127256    0.115055   -0.105029
 ---------------------------------------------------------------------

 SCF Done:  E(RB3LYP) =  -347.800584956     A.U. after    1 cycles

 The electronic state is 1-A.
 Alpha  occ. eigenvalues --  -14.30384 -14.30204 -10.22223 -10.19719 -10.17550
 Alpha  occ. eigenvalues --  -10.17427 -10.17296 -10.16941  -0.91378  -0.84735
 Alpha  occ. eigenvalues --   -0.79162  -0.73584  -0.66571  -0.61571  -0.59152
 Alpha  occ. eigenvalues --   -0.57197  -0.49880  -0.47874  -0.46714  -0.43461
 Alpha  occ. eigenvalues --   -0.42996  -0.41361  -0.39902  -0.38527  -0.38205
 Alpha  occ. eigenvalues --   -0.36797  -0.34848  -0.33164  -0.32574  -0.31780
 Alpha  occ. eigenvalues --   -0.31232  -0.23700  -0.21569
 Alpha virt. eigenvalues --    0.08945   0.09306   0.10381   0.11705   0.12678
 Alpha virt. eigenvalues --    0.13359   0.14982   0.15151   0.17085   0.17630
 Alpha virt. eigenvalues --    0.18576   0.18783   0.19717   0.19885   0.20692

 Mulliken charges:
               1
     1  C   -0.379490
     2  C   -0.162728
     3  C   -0.156565
     4  C   -0.192202
     5  C   -0.125516
     6  N   -0.280136
     7  C   -0.078749
     8  N   -0.513482
     9  H    0.110155
    10  H    0.112381
    11  H    0.112641
    12  H    0.093404
    13  H    0.094722
    14  H    0.091404
    15  H    0.091019
    16  H    0.088010
    17  H    0.103875
    18  H    0.097379
    19  H    0.071466
    20  H    0.214107
    21  H    0.080361
    22  H    0.075776
    23  H    0.227716
    24  H    0.224452
 Sum of Mulliken charges =  -0.00000

 Dipole moment (field-independent basis, Debye):
    X=              0.2091    Y=              0.8153    Z=              0.2079  Tot=              0.8670
 Quadrupole moment (field-independent basis, Debye-Ang):
   XX=            -49.0708   YY=            -53.6189   ZZ=            -52.0262
   XY=              3.6671   XZ=              2.7185   YZ=             -0.1054

  Exact polarizability: 108.257  -0.200  74.473  -0.094  -0.597  70.132
 Approx polarizability: 115.499  -0.448 110.432  -0.537  -0.591 107.722

                      1                      2                      3
                      A                      A                      A
 Frequencies --     47.1882                72.9280                79.7677
 Red. masses --      3.2930                 1.6104                 3.4721
 Frc consts  --      0.0043                 0.0050                 0.0130
 IR Inten    --      0.1067                 1.5125                 0.1974

                      4                      5                      6
                      A                      A                      A
 Frequencies --    111.5771               138.9676               169.1411
 Red. masses --      2.8335                 1.7094                 2.2488
 Frc consts  --      0.0208                 0.0195                 0.0379
 IR Inten    --      1.5382                 1.6501                 4.1465

                      7                      8                      9
                      A                      A                      A
 Frequencies --    199.7103               246.9993               274.5390
 Red. masses --      3.1467                 1.1157                 1.7779
 Frc consts  --      0.0739                 0.0401                 0.0790
 IR Inten    --      1.9026                 0.0097                16.8865

                     10                     11                     12
                      A                      A                      A
 Frequencies --    292.5842               362.9828               482.8246
 Red. masses --      1.9644                 2.7272                 3.0740
 Frc consts  --      0.0991                 0.2117                 0.4222
 IR Inten    --     20.2704                 5.4728                 1.0034

                     13                     14                     15
                      A                      A                      A
 Frequencies --    525.6653               735.4725               769.3270
 Red. masses --      3.2506                 1.0678                 1.1122
 Frc consts  --      0.5292                 0.3403                 0.3879
 IR Inten    --      8.5675                 2.9129                 0.0793

                     16                     17                     18
                      A                      A                      A
 Frequencies --    805.7771               858.1518               867.2199
 Red. masses --      1.2641                 1.1977                 1.2400
 Frc consts  --      0.4836                 0.5197                 0.5494
 IR Inten    --     63.7956                32.3619               124.6475

                     19                     20                     21
                      A                      A                      A
 Frequencies --    900.3411               972.8550               982.3501
 Red. masses --      1.8483                 1.7826                 1.1686
 Frc consts  --      0.8827                 0.9940                 0.6644
 IR Inten    --      2.0755                 5.5479                 1.4653

                     22                     23                     24
                      A                      A                      A
 Frequencies --   1015.0513              1042.6002              1069.4261
 Red. masses --      2.5928                 3.0611                 2.2718
 Frc consts  --      1.5739                 1.9605                 1.5308
 IR Inten    --      2.4401                 0.3609                 0.1040

                     25                     26                     27
                      A                      A                      A
 Frequencies --   1080.1801              1096.8428              1144.1380
 Red. masses --      2.1204                 1.9865                 2.0185
 Frc consts  --      1.4577                 1.4081                 1.5568
 IR Inten    --      2.0712                 5.6760                 6.2184

                     28                     29                     30
                      A                      A                      A
 Frequencies --   1160.0676              1199.2690              1222.0891
 Red. masses --      3.1842                 1.6972                 1.5778
 Frc consts  --      2.5248                 1.4382                 1.3883
 IR Inten    --     82.4302                 8.7195                 3.2063

                     31                     32                     33
                      A                      A                      A
 Frequencies --   1254.7689              1267.2794              1297.3854
 Red. masses --      1.4418                 1.3180                 1.2595
 Frc consts  --      1.3375                 1.2471                 1.2491
 IR Inten    --      6.8573                10.4523                 2.8840

                     34                     35                     36
                      A                      A                      A
 Frequencies --   1321.3817              1327.5623              1335.6397
 Red. masses --      1.1277                 1.1424                 1.1382
 Frc consts  --      1.1601                 1.1863                 1.1964
 IR Inten    --      0.3414                 0.8580                 1.3834

                     37                     38                     39
                      A                      A                      A
 Frequencies --   1352.4356              1391.8742              1403.3374
 Red. masses --      1.3462                 1.3929                 1.5582
 Frc consts  --      1.4507                 1.5899                 1.8080
 IR Inten    --      1.0826                18.6316                 4.7940

                     40                     41                     42
                      A                      A                      A
 Frequencies --   1413.6428              1445.3307              1484.2952
 Red. masses --      1.2615                 1.3819                 1.0711
 Frc consts  --      1.4853                 1.7009                 1.3904
 IR Inten    --      2.2230                 1.2478                 2.5810

                     43                     44                     45
                      A                      A                      A
 Frequencies --   1487.6228              1488.5190              1499.2245
 Red. masses --      1.0734                 1.2892                 1.0715
 Frc consts  --      1.3996                 1.6830                 1.4189
 IR Inten    --      2.1525                79.3696                 0.6754

                     46                     47                     48
                      A                      A                      A
 Frequencies --   1499.8136              1511.3153              1521.0308
 Red. masses --      1.0403                 1.0856                 1.0945
 Frc consts  --      1.3788                 1.4610                 1.4920
 IR Inten    --      4.9431                 1.3742                 3.1096

                     49                     50                     51
                      A                      A                      A
 Frequencies --   1540.4820              1641.7324              2900.6338
 Red. masses --      1.0874                 1.1003                 1.0707
 Frc consts  --      1.5204                 1.7474                 5.3075
 IR Inten    --      0.9542                29.3646                29.7458

                     52                     53                     54
                      A                      A                      A
 Frequencies --   2910.9940              2934.4183              3000.1674
 Red. masses --      1.0676                 1.0931                 1.0597
 Frc consts  --      5.3299                 5.5456                 5.6200
 IR Inten    --    143.4641                80.3743                 1.8901

                     55                     56                     57
                      A                      A                      A
 Frequencies --   3003.7260              3015.1322              3021.8138
 Red. masses --      1.0656                 1.0634                 1.0818
 Frc consts  --      5.6647                 5.6960                 5.8203
 IR Inten    --      8.2983                27.6053                52.7694

                     58                     59                     60
                      A                      A                      A
 Frequencies --   3026.2176              3027.9368              3047.1957
 Red. masses --      1.0910                 1.0371                 1.1010
 Frc consts  --      5.8867                 5.6025                 6.0232
 IR Inten    --     14.1420                46.1074                 4.3333

                     61                     62                     63
                      A                      A                      A
 Frequencies --   3066.0312              3094.0497              3099.6558
 Red. masses --      1.1020                 1.1021                 1.1009
 Frc consts  --      6.1039                 6.2160                 6.2320
 IR Inten    --     70.3867                61.4846                39.0856

                     64                     65                     66
                      A                      A                      A
 Frequencies --   3494.9194              3504.9997              3581.2180
 Red. masses --      1.0492                 1.0731                 1.0924
 Frc consts  --      7.5506                 7.7671                 8.2545
 IR Inten    --      0.3990                 0.3921                 0.2983

 - Thermochemistry -
 -------------------
 Temperature   298.150 Kelvin.  Pressure   1.00000 Atm.
 Atom     1 has atomic number  6 and mass  12.00000

 Molecular mass:   116.13135 amu.
 Principal axes and moments of inertia in atomic units:
                           1         2         3
     Eigenvalues --   158.008193573.558023654.94393
           X            0.99999   0.00293   0.00124
           Y           -0.00293   0.99999  -0.00248
           Z           -0.00124   0.00247   1.00000
 This molecule is an asymmetric top.
 Rotational symmetry number  1.
 Rotational temperatures (Kelvin)      0.54816     0.02424     0.02370
 Rotational constants (GHZ):          11.42182     0.50503     0.49378
 Zero-point vibrational energy     587006.5 (Joules/Mol)
                                  140.29791 (Kcal/Mol)
 Warning -- explicit consideration of  13 degrees of freedom as
           vibrations may cause significant error
 Vibrational temperatures:     67.89   104.93   114.77   160.53   199.94
          (Kelvin)            243.36   287.34   355.38   395.00   420.96
                              522.25   694.68   756.32  1058.18  1106.89
                             1159.33  1234.69  1247.74  1295.39  1399.72
                             1413.38  1460.43  1500.07  1538.67  1554.14
                             1578.11  1646.16  1669.08  1725.48  1758.31
                             1805.33  1823.33  1866.65  1901.17  1910.07
                             1921.69  1945.85  2002.60  2019.09  2033.92
                             2079.51  2135.57  2140.36  2141.65  2157.05
                             2157.90  2174.45  2188.42  2216.41  2362.09
                             4173.37  4188.27  4221.97  4316.57  4321.69
                             4338.10  4347.72  4354.05  4356.53  4384.24
                             4411.34  4451.65  4459.71  5028.41  5042.91
                             5152.57

 Zero-point correction=                           0.223579 (Hartree/Particle)
 Thermal correction to Energy=                    0.234412
 Thermal correction to Enthalpy=                  0.235356
 Thermal correction to Gibbs Free Energy=         0.186760
 Sum of electronic and zero-point Energies=           -347.577006
 Sum of electronic and thermal Energies=              -347.566173
 Sum of electronic and thermal Enthalpies=            -347.565229
 Sum of electronic and thermal Free Energies=         -347.613825

                     E (Thermal)             CV                S
                      KCal/Mol        Cal/Mol-Kelvin    Cal/Mol-Kelvin
 Total                  147.096             37.681            102.279
 Electronic               0.000              0.000              0.000
 Translational            0.889              2.981             40.164
 Rotational               0.889              2.981             29.113
 Vibrational            145.318             31.720             33.002
 Vibration     1          0.595              1.979              4.932
 Vibration     2          0.599              1.967              4.073
 Vibration     3          0.600              1.963              3.897
 Vibration     4          0.607              1.940              3.241
 Vibration     5          0.615              1.914              2.818
 Vibration     6          0.625              1.880              2.445
 Vibration     7          0.638              1.840              2.136
 Vibration     8          0.661              1.768              1.752
 Vibration     9          0.677              1.720              1.567
 Vibration    10          0.688              1.688              1.459
 Vibration    11          0.737              1.548              1.109
 Vibration    12          0.839              1.288              0.702
 Vibration    13          0.881              1.193              0.597

 Optimization completed.
    -- Stationary point found.
 Normal termination of Gaussian 16 at Sun Jul  3 20:24:42 2022.
