 Gaussian 16, Revision A.03,
 Gaussian 16:  ES64L-G16RevA.03 25-Dec-2016

 -----------------------------
 # opt freq b3lyp/6-31g(2df,p)
 -----------------------------

 -------------------
 Title Card Required
 -------------------
 Symbolic Z-matrix:
 Charge =  0 Multiplicity = 1

 SCF Done:  E(RB3LYP) =  -366.420772336     A.U. after   12 cycles
 SCF Done:  E(RB3LYP) =  -366.426684214     A.U. after   11 cycles
 SCF Done:  E(RB3LYP) =  -366.427527972     A.U. after   11 cycles
 SCF Done:  E(RB3LYP) =  -366.428122307     A.U. after   10 cycles
 SCF Done:  E(RB3LYP) =  -366.428435745     A.U. after   10 cycles
 SCF Done:  E(RB3LYP) =  -366.428497839     A.U. after    9 cycles
 SCF Done:  E(RB3LYP) =  -366.428503328     A.U. after    8 cycles
 SCF Done:  E(RB3LYP) =  -366.428505714     A.U. after    8 cycles
 SCF Done:  E(RB3LYP) =  -366.428506360     A.U. after    7 cycles
 SCF Done:  E(RB3LYP) =  -366.428507248     A.U. after    8 cycles
 SCF Done:  E(RB3LYP) =  -366.428507536     A.U. after    7 cycles
 SCF Done:  E(RB3LYP) =  -366.428507608     A.U. after    6 cycles
 Optimization completed.
    -- Stationary point found.
 Normal termination of Gaussian 16 at Thu Aug  4 03:14:01 2022.

 ----------------------------------------------------------------------
 #N Geom=AllCheck Guess=TCheck SCRF=Check GenChk RB3LYP/6-31G(2df,p) Fr
 eq
 ----------------------------------------------------------------------

 Structure from the checkpoint file:  "CCCC1OC1CN.chk"
 -------------------
 Title Card Required
 -------------------
 Charge =  0 Multiplicity = 1

                         Standard orientation:
 ---------------------------------------------------------------------
 Center     Atomic      Atomic             Coordinates (Angstroms)
 Number     Number       Type             X           Y           Z
 ---------------------------------------------------------------------
      1          6           0       -3.511735    0.692860   -0.195007
      2          6           0       -2.058632    0.639360    0.283249
      3          6           0       -1.370405   -0.693060   -0.044098
      4          6           0        0.058928   -0.732747    0.437713
      5          8           0        0.905273   -1.760423   -0.101573
      6          6           0        1.196355   -0.398441   -0.425097
      7          6           0        2.493999    0.158787    0.111994
      8          7           0        2.490864    1.622845   -0.000267
      9          1           0       -3.977813    1.651228    0.053858
     10          1           0       -4.110599   -0.099598    0.267519
     11          1           0       -3.576350    0.562728   -1.281026
     12          1           0       -2.023485    0.808261    1.367462
     13          1           0       -1.486647    1.459954   -0.167389
     14          1           0       -1.384807   -0.873913   -1.125750
     15          1           0       -1.927403   -1.520068    0.416661
     16          1           0        0.193111   -0.577046    1.510697
     17          1           0        0.976805   -0.133749   -1.463521
     18          1           0        3.332837   -0.335074   -0.408581
     19          1           0        2.577827   -0.109949    1.170341
     20          1           0        2.552757    1.890945   -0.978844
     21          1           0        3.324465    1.999199    0.440498
 ---------------------------------------------------------------------

 SCF Done:  E(RB3LYP) =  -366.428507608     A.U. after    1 cycles

 The electronic state is 1-A.
 Alpha  occ. eigenvalues --  -19.13980 -14.31265 -10.22770 -10.22688 -10.20804
 Alpha  occ. eigenvalues --  -10.18062 -10.17962 -10.17272  -1.06004  -0.88073
 Alpha  occ. eigenvalues --   -0.78993  -0.70924  -0.70467  -0.61606  -0.59164
 Alpha  occ. eigenvalues --   -0.57714  -0.49687  -0.47541  -0.46127  -0.45037
 Alpha  occ. eigenvalues --   -0.44133  -0.41169  -0.40216  -0.38262  -0.37303
 Alpha  occ. eigenvalues --   -0.35910  -0.33846  -0.33323  -0.32844  -0.28526
 Alpha  occ. eigenvalues --   -0.25925  -0.23935
 Alpha virt. eigenvalues --    0.07354   0.09410   0.10838   0.11562   0.12770
 Alpha virt. eigenvalues --    0.13444   0.14374   0.14808   0.16723   0.16982
 Alpha virt. eigenvalues --    0.17834   0.18355   0.19272   0.19652   0.20214

 Mulliken charges:
               1
     1  C   -0.378212
     2  C   -0.163072
     3  C   -0.215161
     4  C    0.073819
     5  O   -0.273315
     6  C    0.092974
     7  C   -0.192511
     8  N   -0.513199
     9  H    0.112270
    10  H    0.114869
    11  H    0.114399
    12  H    0.098246
    13  H    0.106617
    14  H    0.100250
    15  H    0.101957
    16  H    0.085096
    17  H    0.077770
    18  H    0.089255
    19  H    0.110895
    20  H    0.226072
    21  H    0.230981
 Sum of Mulliken charges =   0.00000

 Dipole moment (field-independent basis, Debye):
    X=              0.5755    Y=              1.6069    Z=             -0.3217  Tot=              1.7369
 Quadrupole moment (field-independent basis, Debye-Ang):
   XX=            -43.5947   YY=            -55.6569   ZZ=            -47.6740
   XY=              4.5524   XZ=             -1.1833   YZ=             -2.0151

  Exact polarizability:  89.416   1.994  69.846  -1.161  -1.140  66.523
 Approx polarizability: 104.591   2.030 102.659  -3.567  -1.866 101.783

                      1                      2                      3
                      A                      A                      A
 Frequencies --     53.9037                75.3254               100.7897
 Red. masses --      3.0560                 1.8610                 2.4254
 Frc consts  --      0.0052                 0.0062                 0.0145
 IR Inten    --      1.1601                 0.4025                 3.2804

                      4                      5                      6
                      A                      A                      A
 Frequencies --    108.6317               202.6789               227.4517
 Red. masses --      2.8845                 1.1161                 3.2703
 Frc consts  --      0.0201                 0.0270                 0.0997
 IR Inten    --      1.8349                30.0104                 5.2372

                      7                      8                      9
                      A                      A                      A
 Frequencies --    246.2720               290.6771               338.6932
 Red. masses --      1.1192                 1.9511                 3.0067
 Frc consts  --      0.0400                 0.0971                 0.2032
 IR Inten    --      0.0649                 6.1383                 5.7463

                     10                     11                     12
                      A                      A                      A
 Frequencies --    413.6333               473.0633               519.4644
 Red. masses --      3.9845                 4.5754                 3.2165
 Frc consts  --      0.4017                 0.6033                 0.5114
 IR Inten    --      4.4601                 8.3937                 2.3820

                     13                     14                     15
                      A                      A                      A
 Frequencies --    743.4346               809.9815               843.7402
 Red. masses --      1.1191                 1.7401                 2.3774
 Frc consts  --      0.3644                 0.6726                 0.9972
 IR Inten    --      2.1393                 3.0788                30.6087

                     16                     17                     18
                      A                      A                      A
 Frequencies --    872.2982               905.5717               908.5415
 Red. masses --      1.9550                 1.5532                 1.7598
 Frc consts  --      0.8764                 0.7505                 0.8559
 IR Inten    --    106.0278                23.4546                18.6744

                     19                     20                     21
                      A                      A                      A
 Frequencies --    973.9056               997.0204              1037.6287
 Red. masses --      2.1299                 1.3857                 2.7285
 Frc consts  --      1.1902                 0.8116                 1.7309
 IR Inten    --      8.1812                 2.4724                10.1697

                     22                     23                     24
                      A                      A                      A
 Frequencies --   1058.7994              1080.2843              1097.6506
 Red. masses --      1.9553                 1.9528                 1.7522
 Frc consts  --      1.2915                 1.3427                 1.2438
 IR Inten    --      9.4572                 4.1089                 1.5883

                     25                     26                     27
                      A                      A                      A
 Frequencies --   1129.9030              1154.1376              1181.8808
 Red. masses --      1.9137                 1.8438                 1.7216
 Frc consts  --      1.4395                 1.4471                 1.4169
 IR Inten    --      1.0941                 4.9480                 1.7442

                     28                     29                     30
                      A                      A                      A
 Frequencies --   1216.6061              1253.0638              1274.7717
 Red. masses --      1.4995                 1.3503                 1.3222
 Frc consts  --      1.3077                 1.2492                 1.2659
 IR Inten    --      0.7455                 3.0128                 1.3774

                     31                     32                     33
                      A                      A                      A
 Frequencies --   1298.2177              1319.0091              1331.8203
 Red. masses --      1.3121                 1.1816                 1.1759
 Frc consts  --      1.3029                 1.2112                 1.2288
 IR Inten    --     11.7480                 3.1140                 0.6914

                     34                     35                     36
                      A                      A                      A
 Frequencies --   1371.4330              1392.0568              1412.7394
 Red. masses --      1.2298                 1.5345                 1.2379
 Frc consts  --      1.3628                 1.7520                 1.4557
 IR Inten    --     14.3687                 3.8030                 0.3375

                     37                     38                     39
                      A                      A                      A
 Frequencies --   1420.1991              1484.6433              1494.5547
 Red. masses --      1.4476                 1.0740                 1.0635
 Frc consts  --      1.7203                 1.3947                 1.3997
 IR Inten    --      8.4280                 0.7713                 1.0583

                     40                     41                     42
                      A                      A                      A
 Frequencies --   1499.5080              1505.7194              1511.0828
 Red. masses --      1.0537                 1.3952                 1.0872
 Frc consts  --      1.3959                 1.8637                 1.4627
 IR Inten    --      4.8847                 5.7250                 3.2957

                     43                     44                     45
                      A                      A                      A
 Frequencies --   1515.2932              1661.3384              2949.7963
 Red. masses --      1.8996                 1.0883                 1.0722
 Frc consts  --      2.5698                 1.7698                 5.4969
 IR Inten    --      6.4237                22.8737                80.0959

                     46                     47                     48
                      A                      A                      A
 Frequencies --   3015.1192              3022.5451              3029.6259
 Red. masses --      1.0596                 1.0617                 1.0373
 Frc consts  --      5.6754                 5.7147                 5.6094
 IR Inten    --      4.4455                30.9019                41.2766

                     49                     50                     51
                      A                      A                      A
 Frequencies --   3045.0979              3059.8677              3064.3186
 Red. masses --      1.0958                 1.0857                 1.0992
 Frc consts  --      5.9869                 5.9892                 6.0811
 IR Inten    --      2.7329                 1.4182                13.3127

                     52                     53                     54
                      A                      A                      A
 Frequencies --   3074.0366              3087.4250              3096.9159
 Red. masses --      1.0910                 1.0895                 1.1018
 Frc consts  --      6.0743                 6.1191                 6.2261
 IR Inten    --     21.7251                46.9676                73.8066

                     55                     56                     57
                      A                      A                      A
 Frequencies --   3102.4284              3487.9896              3565.6143
 Red. masses --      1.1009                 1.0500                 1.0913
 Frc consts  --      6.2434                 7.5267                 8.1748
 IR Inten    --     35.7714                 0.3275                 0.2144

 - Thermochemistry -
 -------------------
 Temperature   298.150 Kelvin.  Pressure   1.00000 Atm.
 Atom     1 has atomic number  6 and mass  12.00000

 Molecular mass:   115.09971 amu.
 Principal axes and moments of inertia in atomic units:
                           1         2         3
     Eigenvalues --   524.625041878.175702270.84903
           X            0.99999   0.00460   0.00199
           Y           -0.00458   0.99994  -0.00983
           Z           -0.00203   0.00982   0.99995
 This molecule is an asymmetric top.
 Rotational symmetry number  1.
 Warning -- assumption of classical behavior for rotation
           may cause significant error
 Rotational temperatures (Kelvin)      0.16510     0.04612     0.03814
 Rotational constants (GHZ):           3.44006     0.96090     0.79474
 Zero-point vibrational energy     492910.5 (Joules/Mol)
                                  117.80844 (Kcal/Mol)
 Warning -- explicit consideration of  12 degrees of freedom as
           vibrations may cause significant error
 Vibrational temperatures:     77.56   108.38   145.01   156.30   291.61
          (Kelvin)            327.25   354.33   418.22   487.30   595.13
                              680.63   747.39  1069.64  1165.38  1213.95
                             1255.04  1302.92  1307.19  1401.23  1434.49
                             1492.92  1523.38  1554.29  1579.27  1625.68
                             1660.55  1700.46  1750.42  1802.88  1834.11
                             1867.85  1897.76  1916.19  1973.19  2002.86
                             2032.62  2043.35  2136.07  2150.33  2157.46
                             2166.39  2174.11  2180.17  2390.30  4244.10
                             4338.08  4348.77  4358.96  4381.22  4402.47
                             4408.87  4422.85  4442.12  4455.77  4463.70
                             5018.44  5130.12

 Zero-point correction=                           0.187740 (Hartree/Particle)
 Thermal correction to Energy=                    0.197548
 Thermal correction to Enthalpy=                  0.198492
 Thermal correction to Gibbs Free Energy=         0.152182
 Sum of electronic and zero-point Energies=           -366.240768
 Sum of electronic and thermal Energies=              -366.230960
 Sum of electronic and thermal Enthalpies=            -366.230016
 Sum of electronic and thermal Free Energies=         -366.276326

                     E (Thermal)             CV                S
                      KCal/Mol        Cal/Mol-Kelvin    Cal/Mol-Kelvin
 Total                  123.963             34.525             97.468
 Electronic               0.000              0.000              0.000
 Translational            0.889              2.981             40.137
 Rotational               0.889              2.981             29.194
 Vibrational            122.186             28.563             28.137
 Vibration     1          0.596              1.976              4.669
 Vibration     2          0.599              1.965              4.009
 Vibration     3          0.604              1.948              3.439
 Vibration     4          0.606              1.942              3.293
 Vibration     5          0.639              1.836              2.109
 Vibration     6          0.651              1.799              1.899
 Vibration     7          0.661              1.769              1.757
 Vibration     8          0.687              1.691              1.470
 Vibration     9          0.719              1.598              1.218
 Vibration    10          0.777              1.441              0.914
 Vibration    11          0.830              1.310              0.729
 Vibration    12          0.874              1.207              0.611

 Optimization completed.
    -- Stationary point found.
 Normal termination of Gaussian 16 at Thu Aug  4 03:38:22 2022.
