 Gaussian 16, Revision A.03,
 Gaussian 16:  ES64L-G16RevA.03 25-Dec-2016

 -----------------------------
 # opt freq b3lyp/6-31g(2df,p)
 -----------------------------

 -------------------
 Title Card Required
 -------------------
 Symbolic Z-matrix:
 Charge =  0 Multiplicity = 1

 SCF Done:  E(RB3LYP) =  -383.469199943     A.U. after   14 cycles
 SCF Done:  E(RB3LYP) =  -383.472814084     A.U. after   14 cycles
 SCF Done:  E(RB3LYP) =  -383.473323798     A.U. after   11 cycles
 SCF Done:  E(RB3LYP) =  -383.473362252     A.U. after   11 cycles
 SCF Done:  E(RB3LYP) =  -383.473365234     A.U. after    8 cycles
 SCF Done:  E(RB3LYP) =  -383.473366029     A.U. after    7 cycles
 SCF Done:  E(RB3LYP) =  -383.473366250     A.U. after    7 cycles
 Optimization completed.
    -- Stationary point found.
 Normal termination of Gaussian 16 at Sun Jul  3 11:06:02 2022.

 ----------------------------------------------------------------------
 #N Geom=AllCheck Guess=TCheck SCRF=Check GenChk RB3LYP/6-31G(2df,p) Fr
 eq
 ----------------------------------------------------------------------

 Structure from the checkpoint file:  "CCCCCCpdNpCtN.chk"
 -------------------
 Title Card Required
 -------------------
 Charge =  0 Multiplicity = 1

                         Standard orientation:
 ---------------------------------------------------------------------
 Center     Atomic      Atomic             Coordinates (Angstroms)
 Number     Number       Type             X           Y           Z
 ---------------------------------------------------------------------
      1          6           0       -4.353208   -0.465086    0.000054
      2          6           0       -3.088155    0.397034    0.000096
      3          6           0       -1.798802   -0.431075   -0.000060
      4          6           0       -0.528530    0.428145   -0.000019
      5          6           0        0.747659   -0.413701   -0.000180
      6          6           0        2.041740    0.378734   -0.000138
      7          7           0        2.207116    1.639998    0.000067
      8          6           0        3.238246   -0.448934   -0.000024
      9          7           0        4.148526   -1.162019    0.000202
     10          1           0       -5.256084    0.152937    0.000168
     11          1           0       -4.392048   -1.111591    0.883695
     12          1           0       -4.392130   -1.111387   -0.883732
     13          1           0       -3.093350    1.057489    0.877223
     14          1           0       -3.093432    1.057693   -0.876879
     15          1           0       -1.790172   -1.091989   -0.877533
     16          1           0       -1.790091   -1.092193    0.877258
     17          1           0       -0.536845    1.084802    0.880189
     18          1           0       -0.536936    1.085004   -0.880075
     19          1           0        0.767392   -1.082600   -0.871447
     20          1           0        0.767442   -1.082860    0.870886
     21          1           0        1.303054    2.118140   -0.000010
 ---------------------------------------------------------------------

 SCF Done:  E(RB3LYP) =  -383.473366250     A.U. after    1 cycles

 The electronic state is 1-A.
 Alpha  occ. eigenvalues --  -14.34748 -14.34306 -10.28263 -10.22799 -10.21944
 Alpha  occ. eigenvalues --  -10.20770 -10.19747 -10.19291 -10.18287  -0.94648
 Alpha  occ. eigenvalues --   -0.90548  -0.82491  -0.77973  -0.72610  -0.67305
 Alpha  occ. eigenvalues --   -0.61429  -0.59394  -0.50928  -0.50203  -0.49284
 Alpha  occ. eigenvalues --   -0.46224  -0.42918  -0.42500  -0.41463  -0.37904
 Alpha  occ. eigenvalues --   -0.37663  -0.36966  -0.35621  -0.35198  -0.34538
 Alpha  occ. eigenvalues --   -0.33889  -0.33266  -0.31732  -0.29373
 Alpha virt. eigenvalues --   -0.05975   0.02700   0.06970   0.08296   0.08722
 Alpha virt. eigenvalues --    0.09318   0.10980   0.12429   0.13679   0.15759
 Alpha virt. eigenvalues --    0.15819   0.17599   0.18016   0.18260   0.19110

 Mulliken charges:
               1
     1  C   -0.381609
     2  C   -0.169125
     3  C   -0.173737
     4  C   -0.216719
     5  C   -0.266028
     6  C    0.176903
     7  N   -0.434583
     8  C    0.284121
     9  N   -0.309660
    10  H    0.116296
    11  H    0.116795
    12  H    0.116794
    13  H    0.098337
    14  H    0.098336
    15  H    0.100734
    16  H    0.100735
    17  H    0.110897
    18  H    0.110893
    19  H    0.140566
    20  H    0.140574
    21  H    0.239483
 Sum of Mulliken charges =  -0.00000

 Dipole moment (field-independent basis, Debye):
    X=             -5.1456    Y=              0.4756    Z=             -0.0007  Tot=              5.1676
 Quadrupole moment (field-independent basis, Debye-Ang):
   XX=            -77.9838   YY=            -58.2951   ZZ=            -54.1450
   XY=              1.9834   XZ=             -0.0023   YZ=             -0.0000

  Exact polarizability: 110.357  -7.556  86.086   0.002   0.000  62.886
 Approx polarizability: 132.235 -18.310 145.790   0.005   0.000  98.583

                      1                      2                      3
                      A                      A                      A
 Frequencies --     49.5058                64.1339                80.3564
 Red. masses --      2.7554                 2.2897                 4.6638
 Frc consts  --      0.0040                 0.0055                 0.0177
 IR Inten    --      4.4757                 0.4123                 2.6986

                      4                      5                      6
                      A                      A                      A
 Frequencies --    123.4966               148.2477               171.3954
 Red. masses --      1.9712                 2.0481                 5.4439
 Frc consts  --      0.0177                 0.0265                 0.0942
 IR Inten    --      2.0035                 0.3291                 3.5733

                      7                      8                      9
                      A                      A                      A
 Frequencies --    240.1026               246.9065               299.1395
 Red. masses --      3.9596                 1.1172                 4.9752
 Frc consts  --      0.1345                 0.0401                 0.2623
 IR Inten    --      1.7251                 0.0075                 1.5500

                     10                     11                     12
                      A                      A                      A
 Frequencies --    343.6939               406.1886               507.0930
 Red. masses --      4.3215                 3.2578                 3.9526
 Frc consts  --      0.3008                 0.3167                 0.5988
 IR Inten    --      1.2307                 1.4622                 0.4796

                     13                     14                     15
                      A                      A                      A
 Frequencies --    574.8856               616.5051               736.5061
 Red. masses --      2.5654                 7.2733                 1.0781
 Frc consts  --      0.4995                 1.6288                 0.3446
 IR Inten    --      0.4080                 5.6707                 5.0545

                     16                     17                     18
                      A                      A                      A
 Frequencies --    763.9438               818.1471               844.3016
 Red. masses --      1.2391                 4.4489                 1.3265
 Frc consts  --      0.4261                 1.7545                 0.5571
 IR Inten    --      0.0355                10.1525                 0.5833

                     19                     20                     21
                      A                      A                      A
 Frequencies --    908.7228               925.6947               995.8674
 Red. masses --      1.9052                 1.2014                 1.1815
 Frc consts  --      0.9270                 0.6066                 0.6904
 IR Inten    --      0.6585                31.3947                 8.1960

                     22                     23                     24
                      A                      A                      A
 Frequencies --    998.3205              1028.6800              1065.8546
 Red. masses --      3.6766                 3.1210                 2.1521
 Frc consts  --      2.1589                 1.9458                 1.4405
 IR Inten    --     22.5091                11.2409                 5.5900

                     25                     26                     27
                      A                      A                      A
 Frequencies --   1069.3887              1132.0750              1141.2345
 Red. masses --      2.3924                 2.3693                 1.4937
 Frc consts  --      1.6120                 1.7890                 1.1462
 IR Inten    --      0.5422                 6.3632                 3.3971

                     28                     29                     30
                      A                      A                      A
 Frequencies --   1232.0660              1257.0946              1294.2968
 Red. masses --      1.5207                 1.2654                 1.2253
 Frc consts  --      1.3601                 1.1782                 1.2094
 IR Inten    --      0.0169                26.7811                 0.0003

                     31                     32                     33
                      A                      A                      A
 Frequencies --   1313.7128              1331.1414              1334.7177
 Red. masses --      1.4062                 1.1001                 1.0702
 Frc consts  --      1.4299                 1.1485                 1.1233
 IR Inten    --     47.5086                 0.0627                 0.5543

                     34                     35                     36
                      A                      A                      A
 Frequencies --   1355.8812              1398.9182              1407.8994
 Red. masses --      1.5574                 1.5986                 1.6752
 Frc consts  --      1.6869                 1.8432                 1.9564
 IR Inten    --     48.6499                 2.8980                26.6917

                     37                     38                     39
                      A                      A                      A
 Frequencies --   1415.7929              1457.5189              1484.7718
 Red. masses --      1.2849                 1.0888                 1.0667
 Frc consts  --      1.5175                 1.3628                 1.3855
 IR Inten    --      0.8511                12.8132                 1.0803

                     40                     41                     42
                      A                      A                      A
 Frequencies --   1490.1141              1500.1866              1503.5045
 Red. masses --      1.0676                 1.0399                 1.0757
 Frc consts  --      1.3966                 1.3789                 1.4326
 IR Inten    --      0.0124                 5.5379                 1.2865

                     43                     44                     45
                      A                      A                      A
 Frequencies --   1513.9608              1700.8882              2349.0769
 Red. masses --      1.0926                 8.8125                12.6990
 Frc consts  --      1.4756                15.0211                41.2870
 IR Inten    --      3.2849                45.4241                 1.3378

                     46                     47                     48
                      A                      A                      A
 Frequencies --   3006.1007              3009.7687              3017.6370
 Red. masses --      1.0574                 1.0584                 1.0600
 Frc consts  --      5.6299                 5.6487                 5.6870
 IR Inten    --      0.4682                 1.1053                19.3853

                     49                     50                     51
                      A                      A                      A
 Frequencies --   3023.3672              3029.8311              3031.3077
 Red. masses --      1.0594                 1.0989                 1.0362
 Frc consts  --      5.7054                 5.9437                 5.6096
 IR Inten    --     47.6764                 0.0118                37.5160

                     52                     53                     54
                      A                      A                      A
 Frequencies --   3039.4301              3052.5401              3068.1007
 Red. masses --      1.1005                 1.1030                 1.1048
 Frc consts  --      5.9901                 6.0554                 6.1272
 IR Inten    --      0.2782                 1.5611                58.1166

                     55                     56                     57
                      A                      A                      A
 Frequencies --   3097.6641              3105.2201              3457.1363
 Red. masses --      1.1022                 1.1010                 1.0736
 Frc consts  --      6.2311                 6.2546                 7.5603
 IR Inten    --     53.8419                33.2607                 1.6344

 - Thermochemistry -
 -------------------
 Temperature   298.150 Kelvin.  Pressure   1.00000 Atm.
 Atom     1 has atomic number  6 and mass  12.00000

 Molecular mass:   124.10005 amu.
 Principal axes and moments of inertia in atomic units:
                           1         2         3
     Eigenvalues --   342.229243484.308753771.06208
           X            0.99998   0.00707  -0.00000
           Y           -0.00707   0.99998   0.00001
           Z            0.00000  -0.00001   1.00000
 This molecule is an asymmetric top.
 Rotational symmetry number  1.
 Rotational temperatures (Kelvin)      0.25309     0.02486     0.02297
 Rotational constants (GHZ):           5.27349     0.51796     0.47858
 Zero-point vibrational energy     475994.3 (Joules/Mol)
                                  113.76537 (Kcal/Mol)
 Warning -- explicit consideration of  14 degrees of freedom as
           vibrations may cause significant error
 Vibrational temperatures:     71.23    92.27   115.61   177.68   213.30
          (Kelvin)            246.60   345.45   355.24   430.40   494.50
                              584.41   729.59   827.13   887.01  1059.67
                             1099.14  1177.13  1214.76  1307.45  1331.87
                             1432.83  1436.36  1480.04  1533.53  1538.61
                             1628.80  1641.98  1772.67  1808.68  1862.20
                             1890.14  1915.22  1920.36  1950.81  2012.73
                             2025.65  2037.01  2097.04  2136.26  2143.94
                             2158.43  2163.21  2178.25  2447.20  3379.80
                             4325.11  4330.39  4341.71  4349.95  4359.25
                             4361.38  4373.06  4391.92  4414.31  4456.85
                             4467.72  4974.05

 Zero-point correction=                           0.181297 (Hartree/Particle)
 Thermal correction to Energy=                    0.191886
 Thermal correction to Enthalpy=                  0.192830
 Thermal correction to Gibbs Free Energy=         0.144319
 Sum of electronic and zero-point Energies=           -383.292070
 Sum of electronic and thermal Energies=              -383.281480
 Sum of electronic and thermal Enthalpies=            -383.280536
 Sum of electronic and thermal Free Energies=         -383.329047

                     E (Thermal)             CV                S
                      KCal/Mol        Cal/Mol-Kelvin    Cal/Mol-Kelvin
 Total                  120.410             36.874            102.100
 Electronic               0.000              0.000              0.000
 Translational            0.889              2.981             40.362
 Rotational               0.889              2.981             29.887
 Vibrational            118.633             30.912             31.851
 Vibration     1          0.595              1.978              4.837
 Vibration     2          0.597              1.971              4.326
 Vibration     3          0.600              1.962              3.882
 Vibration     4          0.610              1.929              3.045
 Vibration     5          0.618              1.905              2.695
 Vibration     6          0.626              1.878              2.420
 Vibration     7          0.657              1.779              1.802
 Vibration     8          0.661              1.768              1.753
 Vibration     9          0.692              1.675              1.422
 Vibration    10          0.722              1.588              1.195
 Vibration    11          0.771              1.457              0.940
 Vibration    12          0.862              1.234              0.641
 Vibration    13          0.931              1.086              0.495
 Vibration    14          0.976              0.997              0.422

 Optimization completed.
    -- Stationary point found.
 Normal termination of Gaussian 16 at Sun Jul  3 11:32:15 2022.
