 Gaussian 16, Revision A.03,
 Gaussian 16:  ES64L-G16RevA.03 25-Dec-2016

 -----------------------------
 # opt freq b3lyp/6-31g(2df,p)
 -----------------------------

 -------------------
 Title Card Required
 -------------------
 Symbolic Z-matrix:
 Charge =  0 Multiplicity = 1

 SCF Done:  E(RB3LYP) =  -345.286408321     A.U. after   15 cycles
 SCF Done:  E(RB3LYP) =  -345.316468006     A.U. after   12 cycles
 SCF Done:  E(RB3LYP) =  -345.317566539     A.U. after   12 cycles
 SCF Done:  E(RB3LYP) =  -345.318020544     A.U. after   12 cycles
 SCF Done:  E(RB3LYP) =  -345.320254077     A.U. after   11 cycles
 SCF Done:  E(RB3LYP) =  -345.320182102     A.U. after   11 cycles
 SCF Done:  E(RB3LYP) =  -345.320767658     A.U. after   12 cycles
 SCF Done:  E(RB3LYP) =  -345.320931929     A.U. after   10 cycles
 SCF Done:  E(RB3LYP) =  -345.320944598     A.U. after    9 cycles
 SCF Done:  E(RB3LYP) =  -345.320957046     A.U. after   10 cycles
 SCF Done:  E(RB3LYP) =  -345.320963476     A.U. after   10 cycles
 SCF Done:  E(RB3LYP) =  -345.320972914     A.U. after   11 cycles
 SCF Done:  E(RB3LYP) =  -345.320980304     A.U. after   11 cycles
 SCF Done:  E(RB3LYP) =  -345.320983342     A.U. after   10 cycles
 SCF Done:  E(RB3LYP) =  -345.320983695     A.U. after    8 cycles
 SCF Done:  E(RB3LYP) =  -345.320983777     A.U. after    7 cycles
 SCF Done:  E(RB3LYP) =  -345.320983794     A.U. after    7 cycles
 Optimization completed.
    -- Stationary point found.
 Normal termination of Gaussian 16 at Wed Aug  3 04:20:10 2022.

 ----------------------------------------------------------------------
 #N Geom=AllCheck Guess=TCheck SCRF=Check GenChk RB3LYP/6-31G(2df,p) Fr
 eq
 ----------------------------------------------------------------------

 Structure from the checkpoint file:  "CCCCtCNCN.chk"
 -------------------
 Title Card Required
 -------------------
 Charge =  0 Multiplicity = 1

                         Standard orientation:
 ---------------------------------------------------------------------
 Center     Atomic      Atomic             Coordinates (Angstroms)
 Number     Number       Type             X           Y           Z
 ---------------------------------------------------------------------
      1          6           0       -4.262695    0.413333    0.024295
      2          6           0       -2.768774    0.505992   -0.292932
      3          6           0       -1.951940   -0.622784    0.368670
      4          6           0       -0.520239   -0.570323    0.091625
      5          6           0        0.660521   -0.523706   -0.154907
      6          7           0        1.990131   -0.496289   -0.375595
      7          6           0        2.781731    0.571348    0.232379
      8          7           0        4.181700    0.265466   -0.003429
      9          1           0       -4.822629    1.222351   -0.454753
     10          1           0       -4.444700    0.476620    1.103268
     11          1           0       -4.685155   -0.535640   -0.325326
     12          1           0       -2.371136    1.471333    0.040758
     13          1           0       -2.610048    0.467461   -1.376722
     14          1           0       -2.352299   -1.593429    0.042702
     15          1           0       -2.114837   -0.593090    1.455523
     16          1           0        2.280033   -0.677925   -1.329212
     17          1           0        2.475882    0.622940    1.288485
     18          1           0        2.573563    1.554897   -0.217739
     19          1           0        4.475493   -0.507916    0.585083
     20          1           0        4.761387    1.065001    0.226326
 ---------------------------------------------------------------------

 SCF Done:  E(RB3LYP) =  -345.320983794     A.U. after    1 cycles

 The electronic state is 1-A.
 Alpha  occ. eigenvalues --  -14.34241 -14.31788 -10.24061 -10.19160 -10.17986
 Alpha  occ. eigenvalues --  -10.17556 -10.16972 -10.14976  -0.93831  -0.86576
 Alpha  occ. eigenvalues --   -0.79001  -0.72444  -0.67600  -0.64405  -0.58782
 Alpha  occ. eigenvalues --   -0.54774  -0.51358  -0.46015  -0.45759  -0.44114
 Alpha  occ. eigenvalues --   -0.43158  -0.40932  -0.40512  -0.38758  -0.35518
 Alpha  occ. eigenvalues --   -0.33985  -0.32756  -0.31284  -0.25095  -0.24141
 Alpha  occ. eigenvalues --   -0.19258
 Alpha virt. eigenvalues --    0.06874   0.08036   0.08907   0.11044   0.11676
 Alpha virt. eigenvalues --    0.14186   0.14737   0.14773   0.15082   0.15678
 Alpha virt. eigenvalues --    0.17941   0.18604   0.19514   0.20886   0.22372

 Mulliken charges:
               1
     1  C   -0.380575
     2  C   -0.148218
     3  C   -0.350724
     4  C    0.403822
     5  C   -0.185531
     6  N   -0.412016
     7  C   -0.109050
     8  N   -0.513340
     9  H    0.110988
    10  H    0.112667
    11  H    0.113173
    12  H    0.101123
    13  H    0.102243
    14  H    0.118804
    15  H    0.117749
    16  H    0.245141
    17  H    0.104926
    18  H    0.101580
    19  H    0.234374
    20  H    0.232863
 Sum of Mulliken charges =  -0.00000

 Dipole moment (field-independent basis, Debye):
    X=              1.0154    Y=              1.0031    Z=              0.5492  Tot=              1.5293
 Quadrupole moment (field-independent basis, Debye-Ang):
   XX=            -40.9921   YY=            -49.3924   ZZ=            -48.4188
   XY=              3.1358   XZ=              3.4403   YZ=              0.8763

  Exact polarizability: 126.283   3.277  63.799  -4.146   0.017  60.793
 Approx polarizability: 157.388   4.648  91.778 -11.175   0.680  90.729

                      1                      2                      3
                      A                      A                      A
 Frequencies --     22.4659                57.5879                66.8962
 Red. masses --      2.1859                 2.6344                 2.2079
 Frc consts  --      0.0007                 0.0051                 0.0058
 IR Inten    --      1.2957                 0.2810                 0.8128

                      4                      5                      6
                      A                      A                      A
 Frequencies --    104.8934               130.6191               238.4757
 Red. masses --      3.5391                 3.3940                 1.0798
 Frc consts  --      0.0229                 0.0341                 0.0362
 IR Inten    --      1.1314                 1.5895                 0.0547

                      7                      8                      9
                      A                      A                      A
 Frequencies --    268.1117               299.8391               306.5595
 Red. masses --      1.3080                 2.5963                 2.6870
 Frc consts  --      0.0554                 0.1375                 0.1488
 IR Inten    --     32.5990                10.0432                15.7693

                     10                     11                     12
                      A                      A                      A
 Frequencies --    351.1196               439.5788               465.0381
 Red. masses --      4.4199                 3.9818                 3.9136
 Frc consts  --      0.3210                 0.4533                 0.4987
 IR Inten    --      9.2224                14.4150                 4.0812

                     13                     14                     15
                      A                      A                      A
 Frequencies --    544.2782               639.3004               739.0072
 Red. masses --      4.9906                 1.6687                 1.1132
 Frc consts  --      0.8711                 0.4018                 0.3582
 IR Inten    --     25.1126                83.1712                 2.4400

                     16                     17                     18
                      A                      A                      A
 Frequencies --    817.7634               847.9778               867.4542
 Red. masses --      2.1288                 1.4667                 1.2374
 Frc consts  --      0.8388                 0.6214                 0.5486
 IR Inten    --     57.9589               120.0730                 0.6925

                     19                     20                     21
                      A                      A                      A
 Frequencies --    898.3282               964.6217              1042.2836
 Red. masses --      1.9746                 1.7005                 2.7665
 Frc consts  --      0.9388                 0.9323                 1.7707
 IR Inten    --      7.7307                11.5226                 0.1228

                     22                     23                     24
                      A                      A                      A
 Frequencies --   1084.1520              1108.6553              1119.4906
 Red. masses --      3.0180                 2.0483                 1.4753
 Frc consts  --      2.0900                 1.4833                 1.0894
 IR Inten    --      9.3581                 1.2131                 0.2375

                     25                     26                     27
                      A                      A                      A
 Frequencies --   1141.0054              1207.4778              1260.8194
 Red. masses --      2.6452                 1.2195                 1.3002
 Frc consts  --      2.0290                 1.0476                 1.2177
 IR Inten    --     61.9590                36.1028                 0.5088

                     28                     29                     30
                      A                      A                      A
 Frequencies --   1268.7013              1315.7207              1321.6104
 Red. masses --      1.8556                 1.5206                 1.0866
 Frc consts  --      1.7598                 1.5509                 1.1182
 IR Inten    --     80.3104                 0.7092                 0.0786

                     31                     32                     33
                      A                      A                      A
 Frequencies --   1325.2033              1384.1402              1411.1990
 Red. masses --      1.3828                 1.5485                 1.2368
 Frc consts  --      1.4308                 1.7480                 1.4512
 IR Inten    --      2.8920                 0.7663                 0.5363

                     34                     35                     36
                      A                      A                      A
 Frequencies --   1421.6702              1464.7929              1471.0850
 Red. masses --      1.3613                 1.1069                 1.3601
 Frc consts  --      1.6211                 1.3993                 1.7342
 IR Inten    --      7.0632                18.3353                79.8123

                     37                     38                     39
                      A                      A                      A
 Frequencies --   1490.8523              1498.8922              1508.4209
 Red. masses --      1.0556                 1.0402                 1.0785
 Frc consts  --      1.3824                 1.3769                 1.4458
 IR Inten    --      0.7313                 5.0937                 3.0422

                     40                     41                     42
                      A                      A                      A
 Frequencies --   1532.7867              1648.3593              2371.1352
 Red. masses --      1.0832                 1.1009                11.6964
 Frc consts  --      1.4995                 1.7623                38.7450
 IR Inten    --      1.3181                29.2442               125.2595

                     43                     44                     45
                      A                      A                      A
 Frequencies --   2969.6228              2998.5424              2998.8919
 Red. masses --      1.0555                 1.0602                 1.1054
 Frc consts  --      5.4839                 5.6163                 5.8570
 IR Inten    --     60.2611                43.6231                46.6546

                     46                     47                     48
                      A                      A                      A
 Frequencies --   3023.4968              3026.8656              3036.4806
 Red. masses --      1.0995                 1.0366                 1.0591
 Frc consts  --      5.9222                 5.5954                 5.7535
 IR Inten    --      9.6465                28.4135                32.6962

                     49                     50                     51
                      A                      A                      A
 Frequencies --   3067.9244              3095.8365              3101.7828
 Red. masses --      1.1025                 1.1031                 1.1004
 Frc consts  --      6.1141                 6.2288                 6.2376
 IR Inten    --      5.3239                62.0407                35.5400

                     52                     53                     54
                      A                      A                      A
 Frequencies --   3505.4783              3545.6413              3593.3832
 Red. masses --      1.0495                 1.0737                 1.0927
 Frc consts  --      7.5985                 7.9527                 8.3129
 IR Inten    --      0.4287                14.6525                 1.4295

 - Thermochemistry -
 -------------------
 Temperature   298.150 Kelvin.  Pressure   1.00000 Atm.
 Atom     1 has atomic number  6 and mass  12.00000

 Molecular mass:   112.10005 amu.
 Principal axes and moments of inertia in atomic units:
                           1         2         3
     Eigenvalues --   187.234563290.351733369.35989
           X            1.00000   0.00161   0.00263
           Y           -0.00160   1.00000  -0.00140
           Z           -0.00263   0.00139   1.00000
 This molecule is an asymmetric top.
 Rotational symmetry number  1.
 Rotational temperatures (Kelvin)      0.46260     0.02632     0.02571
 Rotational constants (GHZ):           9.63893     0.54849     0.53563
 Zero-point vibrational energy     463148.1 (Joules/Mol)
                                  110.69505 (Kcal/Mol)
 Warning -- explicit consideration of  13 degrees of freedom as
           vibrations may cause significant error
 Vibrational temperatures:     32.32    82.86    96.25   150.92   187.93
          (Kelvin)            343.11   385.75   431.40   441.07   505.18
                              632.46   669.09   783.09   919.81  1063.27
                             1176.58  1220.05  1248.07  1292.49  1387.88
                             1499.61  1559.85  1595.11  1610.70  1641.65
                             1737.29  1814.04  1825.38  1893.03  1901.50
                             1906.67  1991.47  2030.40  2045.47  2107.51
                             2116.56  2145.00  2156.57  2170.28  2205.34
                             2371.62  3411.53  4272.62  4314.23  4314.74
                             4350.14  4354.98  4368.82  4414.06  4454.22
                             4462.77  5043.60  5101.39  5170.08

 Zero-point correction=                           0.176404 (Hartree/Particle)
 Thermal correction to Energy=                    0.186815
 Thermal correction to Enthalpy=                  0.187759
 Thermal correction to Gibbs Free Energy=         0.139188
 Sum of electronic and zero-point Energies=           -345.144580
 Sum of electronic and thermal Energies=              -345.134169
 Sum of electronic and thermal Enthalpies=            -345.133225
 Sum of electronic and thermal Free Energies=         -345.181796

                     E (Thermal)             CV                S
                      KCal/Mol        Cal/Mol-Kelvin    Cal/Mol-Kelvin
 Total                  117.228             35.591            102.227
 Electronic               0.000              0.000              0.000
 Translational            0.889              2.981             40.058
 Rotational               0.889              2.981             29.119
 Vibrational            115.451             29.629             33.049
 Vibration     1          0.593              1.985              6.403
 Vibration     2          0.596              1.974              4.538
 Vibration     3          0.598              1.970              4.243
 Vibration     4          0.605              1.945              3.361
 Vibration     5          0.612              1.923              2.937
 Vibration     6          0.656              1.782              1.814
 Vibration     7          0.673              1.732              1.608
 Vibration     8          0.692              1.674              1.418
 Vibration     9          0.697              1.661              1.381
 Vibration    10          0.728              1.573              1.161
 Vibration    11          0.800              1.384              0.828
 Vibration    12          0.822              1.328              0.752
 Vibration    13          0.899              1.152              0.556

                           ! Non-Optimized Parameters !
 Normal termination of Gaussian 16 at Wed Aug  3 04:40:08 2022.
