 Gaussian 16, Revision A.03,
 Gaussian 16:  ES64L-G16RevA.03 25-Dec-2016

 -----------------------------
 # opt freq b3lyp/6-31g(2df,p)
 -----------------------------

 -------------------
 Title Card Required
 -------------------
 Symbolic Z-matrix:
 Charge =  0 Multiplicity = 1

 SCF Done:  E(RB3LYP) =  -425.625821068     A.U. after   12 cycles
 SCF Done:  E(RB3LYP) =  -425.632849956     A.U. after   10 cycles
 SCF Done:  E(RB3LYP) =  -425.633424451     A.U. after   10 cycles
 SCF Done:  E(RB3LYP) =  -425.633566009     A.U. after   10 cycles
 SCF Done:  E(RB3LYP) =  -425.633606880     A.U. after    9 cycles
 SCF Done:  E(RB3LYP) =  -425.633624467     A.U. after    9 cycles
 SCF Done:  E(RB3LYP) =  -425.633629362     A.U. after    8 cycles
 SCF Done:  E(RB3LYP) =  -425.633630632     A.U. after    7 cycles
 SCF Done:  E(RB3LYP) =  -425.633631299     A.U. after    7 cycles
 SCF Done:  E(RB3LYP) =  -425.633631701     A.U. after    7 cycles
 SCF Done:  E(RB3LYP) =  -425.633631847     A.U. after    7 cycles
 Optimization completed.
    -- Stationary point found.
 Normal termination of Gaussian 16 at Thu Aug  4 01:44:46 2022.

 ----------------------------------------------------------------------
 #N Geom=AllCheck Guess=TCheck SCRF=Check GenChk RB3LYP/6-31G(2df,p) Fr
 eq
 ----------------------------------------------------------------------

 Structure from the checkpoint file:  "CCCC1pOpOCC1C.chk"
 -------------------
 Title Card Required
 -------------------
 Charge =  0 Multiplicity = 1

                         Standard orientation:
 ---------------------------------------------------------------------
 Center     Atomic      Atomic             Coordinates (Angstroms)
 Number     Number       Type             X           Y           Z
 ---------------------------------------------------------------------
      1          6           0        3.583374   -0.099709   -0.448093
      2          6           0        2.262406    0.027715    0.315646
      3          6           0        1.040013   -0.287993   -0.556099
      4          6           0       -0.291801   -0.061765    0.152105
      5          8           0       -0.448896   -0.889527    1.273358
      6          8           0       -0.470140    1.331569    0.490414
      7          6           0       -1.784330    1.359450   -0.108491
      8          6           0       -1.593633   -0.055177   -0.694911
      9          6           0       -2.656363   -1.107527   -0.426625
     10          1           0        4.438804    0.126264    0.195981
     11          1           0        3.614630    0.590293   -1.298361
     12          1           0        3.719000   -1.113795   -0.840169
     13          1           0        2.158920    1.043871    0.713504
     14          1           0        2.287239   -0.650684    1.179251
     15          1           0        1.075455   -1.331029   -0.895773
     16          1           0        1.059844    0.346462   -1.449783
     17          1           0        0.246128   -0.667326    1.902823
     18          1           0       -1.888055    2.184480   -0.821395
     19          1           0       -2.575881    1.434039    0.648476
     20          1           0       -1.351943   -0.015654   -1.760963
     21          1           0       -2.875918   -1.178994    0.640858
     22          1           0       -2.331943   -2.095401   -0.768661
     23          1           0       -3.581987   -0.858823   -0.957161
 ---------------------------------------------------------------------

 SCF Done:  E(RB3LYP) =  -425.633631847     A.U. after    1 cycles

 The electronic state is 1-A.
 Alpha  occ. eigenvalues --  -19.13928 -19.12656 -10.27349 -10.22321 -10.18776
 Alpha  occ. eigenvalues --  -10.18334 -10.17802 -10.17503 -10.17178  -1.06133
 Alpha  occ. eigenvalues --   -0.99625  -0.79006  -0.77266  -0.71197  -0.66452
 Alpha  occ. eigenvalues --   -0.64046  -0.58518  -0.55686  -0.49831  -0.48603
 Alpha  occ. eigenvalues --   -0.46246  -0.45890  -0.43122  -0.40528  -0.40431
 Alpha  occ. eigenvalues --   -0.40057  -0.38068  -0.36765  -0.35995  -0.35045
 Alpha  occ. eigenvalues --   -0.34063  -0.33278  -0.31758  -0.28942  -0.27245
 Alpha  occ. eigenvalues --   -0.25260
 Alpha virt. eigenvalues --    0.07433   0.09446   0.10068   0.11050   0.13181
 Alpha virt. eigenvalues --    0.13657   0.14556   0.15273   0.16309   0.16809
 Alpha virt. eigenvalues --    0.17754   0.17894   0.18846   0.19463   0.20302

 Mulliken charges:
               1
     1  C   -0.383783
     2  C   -0.189995
     3  C   -0.212370
     4  C    0.456559
     5  O   -0.449485
     6  O   -0.320511
     7  C   -0.090359
     8  C   -0.082735
     9  C   -0.405323
    10  H    0.113072
    11  H    0.117386
    12  H    0.114898
    13  H    0.120826
    14  H    0.087951
    15  H    0.100712
    16  H    0.096915
    17  H    0.282703
    18  H    0.099932
    19  H    0.100179
    20  H    0.078956
    21  H    0.135488
    22  H    0.119262
    23  H    0.109719
 Sum of Mulliken charges =  -0.00000

 Dipole moment (field-independent basis, Debye):
    X=              0.3189    Y=             -0.2842    Z=             -0.7960  Tot=              0.9034
 Quadrupole moment (field-independent basis, Debye-Ang):
   XX=            -53.3724   YY=            -58.7103   ZZ=            -54.2698
   XY=             -1.9178   XZ=              2.6112   YZ=             -0.7428

  Exact polarizability:  97.600  -1.749  75.836   1.873  -1.096  72.927
 Approx polarizability: 115.148  -1.725 111.871   2.908  -2.263 109.880

                      1                      2                      3
                      A                      A                      A
 Frequencies --     57.4784                86.2924                99.7205
 Red. masses --      2.6818                 1.6554                 2.9879
 Frc consts  --      0.0052                 0.0073                 0.0175
 IR Inten    --      1.0688                 0.0217                 0.7206

                      4                      5                      6
                      A                      A                      A
 Frequencies --    131.9777               195.3583               214.9195
 Red. masses --      3.0647                 1.1668                 1.1506
 Frc consts  --      0.0315                 0.0262                 0.0313
 IR Inten    --      1.6829                23.6571                78.6466

                      7                      8                      9
                      A                      A                      A
 Frequencies --    246.6620               262.1773               283.6338
 Red. masses --      1.1485                 2.3155                 2.9195
 Frc consts  --      0.0412                 0.0938                 0.1384
 IR Inten    --      0.1650                 3.2822                 8.1458

                     10                     11                     12
                      A                      A                      A
 Frequencies --    323.3527               372.6374               420.9581
 Red. masses --      2.9599                 2.7648                 2.6020
 Frc consts  --      0.1823                 0.2262                 0.2717
 IR Inten    --      2.5010                 1.3548                 6.3460

                     13                     14                     15
                      A                      A                      A
 Frequencies --    512.5056               567.2579               701.2966
 Red. masses --      4.6775                 3.8257                 2.8632
 Frc consts  --      0.7239                 0.7253                 0.8297
 IR Inten    --     23.4643                 7.7296                 2.9553

                     16                     17                     18
                      A                      A                      A
 Frequencies --    750.2916               788.0610               866.7028
 Red. masses --      1.1573                 3.3835                 1.6590
 Frc consts  --      0.3839                 1.2381                 0.7343
 IR Inten    --      0.4739                 4.3669                17.5818

                     19                     20                     21
                      A                      A                      A
 Frequencies --    894.7869               902.8326               926.3691
 Red. masses --      2.0154                 1.9677                 1.2253
 Frc consts  --      0.9507                 0.9450                 0.6195
 IR Inten    --      6.1312                 5.6458                 0.2986

                     22                     23                     24
                      A                      A                      A
 Frequencies --    954.1573              1003.4228              1012.4843
 Red. masses --      2.1782                 2.4686                 3.1266
 Frc consts  --      1.1684                 1.4644                 1.8884
 IR Inten    --     40.3911               126.9928                45.6715

                     25                     26                     27
                      A                      A                      A
 Frequencies --   1048.1244              1070.9943              1118.9265
 Red. masses --      2.8364                 1.6241                 2.2680
 Frc consts  --      1.8359                 1.0976                 1.6730
 IR Inten    --      0.6141                 5.3084                17.4579

                     28                     29                     30
                      A                      A                      A
 Frequencies --   1132.0817              1148.7525              1166.5944
 Red. masses --      2.0662                 1.7795                 1.5583
 Frc consts  --      1.5602                 1.3836                 1.2495
 IR Inten    --     16.3925                10.1890                16.7948

                     31                     32                     33
                      A                      A                      A
 Frequencies --   1178.9330              1221.1199              1271.1221
 Red. masses --      1.8500                 2.2360                 1.3420
 Frc consts  --      1.5150                 1.9645                 1.2775
 IR Inten    --     48.7508                46.1687                10.8194

                     34                     35                     36
                      A                      A                      A
 Frequencies --   1289.4019              1302.1075              1330.9219
 Red. masses --      1.5833                 1.3290                 1.3157
 Frc consts  --      1.5509                 1.3276                 1.3731
 IR Inten    --      2.7264                19.0379                 5.1979

                     37                     38                     39
                      A                      A                      A
 Frequencies --   1338.4047              1351.3816              1388.4573
 Red. masses --      1.2351                 1.4632                 1.5141
 Frc consts  --      1.3035                 1.5743                 1.7198
 IR Inten    --      5.2792                 8.8168                 0.1855

                     40                     41                     42
                      A                      A                      A
 Frequencies --   1411.4591              1412.4822              1425.4712
 Red. masses --      1.3295                 1.2393                 1.7980
 Frc consts  --      1.5606                 1.4568                 2.1525
 IR Inten    --      1.1243                 2.2272                33.1709

                     43                     44                     45
                      A                      A                      A
 Frequencies --   1471.7692              1491.4109              1494.0157
 Red. masses --      1.0965                 1.0461                 1.0530
 Frc consts  --      1.3994                 1.3709                 1.3848
 IR Inten    --      4.4288                 4.6678                 0.7542

                     46                     47                     48
                      A                      A                      A
 Frequencies --   1499.7163              1499.9417              1508.9732
 Red. masses --      1.0588                 1.0422                 1.0835
 Frc consts  --      1.4031                 1.3814                 1.4536
 IR Inten    --      4.2114                 7.3778                 2.2130

                     49                     50                     51
                      A                      A                      A
 Frequencies --   1524.5771              3011.3497              3013.7946
 Red. masses --      1.1049                 1.0639                 1.0585
 Frc consts  --      1.5131                 5.6841                 5.6644
 IR Inten    --      0.9500                19.6992                73.8891

                     52                     53                     54
                      A                      A                      A
 Frequencies --   3024.8490              3030.4334              3037.3514
 Red. masses --      1.0574                 1.0387                 1.0381
 Frc consts  --      5.7003                 5.6200                 5.6425
 IR Inten    --     15.7667                34.9413                28.0414

                     55                     56                     57
                      A                      A                      A
 Frequencies --   3055.1935              3057.6874              3073.0908
 Red. masses --      1.0932                 1.0934                 1.1008
 Frc consts  --      6.0123                 6.0230                 6.1249
 IR Inten    --      4.0241                 9.5555                20.3761

                     58                     59                     60
                      A                      A                      A
 Frequencies --   3076.2682              3098.3616              3099.1897
 Red. masses --      1.1009                 1.1006                 1.1023
 Frc consts  --      6.1380                 6.2249                 6.2378
 IR Inten    --     44.8021                13.0972                65.3300

                     61                     62                     63
                      A                      A                      A
 Frequencies --   3102.7035              3129.8294              3808.3991
 Red. masses --      1.1011                 1.0998                 1.0652
 Frc consts  --      6.2455                 6.3478                 9.1028
 IR Inten    --     34.6839                20.1762                21.5306

 - Thermochemistry -
 -------------------
 Temperature   298.150 Kelvin.  Pressure   1.00000 Atm.
 Atom     1 has atomic number  6 and mass  12.00000

 Molecular mass:   130.09938 amu.
 Principal axes and moments of inertia in atomic units:
                           1         2         3
     Eigenvalues --   573.257341964.694342091.59741
           X            0.99999   0.00399   0.00189
           Y           -0.00401   0.99990   0.01371
           Z           -0.00183  -0.01371   0.99990
 This molecule is an asymmetric top.
 Rotational symmetry number  1.
 Warning -- assumption of classical behavior for rotation
           may cause significant error
 Rotational temperatures (Kelvin)      0.15109     0.04409     0.04141
 Rotational constants (GHZ):           3.14822     0.91859     0.86285
 Zero-point vibrational energy     534078.7 (Joules/Mol)
                                  127.64786 (Kcal/Mol)
 Warning -- explicit consideration of  14 degrees of freedom as
           vibrations may cause significant error
 Vibrational temperatures:     82.70   124.16   143.48   189.89   281.08
          (Kelvin)            309.22   354.89   377.21   408.09   465.23
                              536.14   605.66   737.38   816.16  1009.01
                             1079.50  1133.84  1246.99  1287.40  1298.97
                             1332.84  1372.82  1443.70  1456.74  1508.02
                             1540.92  1609.89  1628.81  1652.80  1678.47
                             1696.22  1756.92  1828.86  1855.16  1873.44
                             1914.90  1925.67  1944.34  1997.68  2030.77
                             2032.25  2050.94  2117.55  2145.81  2149.56
                             2157.76  2158.08  2171.08  2193.53  4332.66
                             4336.18  4352.08  4360.12  4370.07  4395.74
                             4399.33  4421.49  4426.06  4457.85  4459.04
                             4464.10  4503.13  5479.44

 Zero-point correction=                           0.203420 (Hartree/Particle)
 Thermal correction to Energy=                    0.214089
 Thermal correction to Enthalpy=                  0.215033
 Thermal correction to Gibbs Free Energy=         0.167392
 Sum of electronic and zero-point Energies=           -425.430212
 Sum of electronic and thermal Energies=              -425.419543
 Sum of electronic and thermal Enthalpies=            -425.418599
 Sum of electronic and thermal Free Energies=         -425.466240

                     E (Thermal)             CV                S
                      KCal/Mol        Cal/Mol-Kelvin    Cal/Mol-Kelvin
 Total                  134.343             38.789            100.269
 Electronic               0.000              0.000              0.000
 Translational            0.889              2.981             40.502
 Rotational               0.889              2.981             29.245
 Vibrational            132.566             32.827             30.522
 Vibration     1          0.596              1.975              4.542
 Vibration     2          0.601              1.959              3.742
 Vibration     3          0.604              1.949              3.460
 Vibration     4          0.612              1.921              2.917
 Vibration     5          0.636              1.846              2.176
 Vibration     6          0.645              1.818              2.001
 Vibration     7          0.661              1.768              1.754
 Vibration     8          0.669              1.742              1.647
 Vibration     9          0.682              1.704              1.512
 Vibration    10          0.708              1.629              1.293
 Vibration    11          0.744              1.528              1.069
 Vibration    12          0.783              1.425              0.889
 Vibration    13          0.868              1.222              0.628
 Vibration    14          0.923              1.102              0.510

                           ! Non-Optimized Parameters !
 Normal termination of Gaussian 16 at Thu Aug  4 02:18:53 2022.
