 Gaussian 16, Revision A.03,
 Gaussian 16:  ES64L-G16RevA.03 25-Dec-2016

 -----------------------------
 # opt freq b3lyp/6-31g(2df,p)
 -----------------------------

 -------------------
 Title Card Required
 -------------------
 Symbolic Z-matrix:
 Charge =  0 Multiplicity = 1

 SCF Done:  E(RB3LYP) =  -390.949978802     A.U. after   12 cycles
 SCF Done:  E(RB3LYP) =  -390.953394414     A.U. after   11 cycles
 SCF Done:  E(RB3LYP) =  -390.953996479     A.U. after   10 cycles
 SCF Done:  E(RB3LYP) =  -390.954080921     A.U. after    9 cycles
 SCF Done:  E(RB3LYP) =  -390.954084019     A.U. after    7 cycles
 Optimization completed.
    -- Stationary point found.
 Normal termination of Gaussian 16 at Thu Aug  4 14:54:40 2022.

 ----------------------------------------------------------------------
 #N Geom=AllCheck Guess=TCheck SCRF=Check GenChk RB3LYP/6-31G(2df,p) Fr
 eq
 ----------------------------------------------------------------------

 Structure from the checkpoint file:  "CCCCOCpCppCpC.chk"
 -------------------
 Title Card Required
 -------------------
 Charge =  0 Multiplicity = 1

                         Standard orientation:
 ---------------------------------------------------------------------
 Center     Atomic      Atomic             Coordinates (Angstroms)
 Number     Number       Type             X           Y           Z
 ---------------------------------------------------------------------
      1          6           0        4.336283    0.301794   -0.000000
      2          6           0        3.028824   -0.494883   -0.000001
      3          6           0        1.785473    0.399904    0.000002
      4          6           0        0.482696   -0.392259    0.000001
      5          8           0       -0.584341    0.534981    0.000004
      6          6           0       -1.930405    0.037230   -0.000000
      7          6           0       -2.218484   -0.787517   -1.265544
      8          6           0       -2.218488   -0.787528    1.265536
      9          6           0       -2.779808    1.312886    0.000004
     10          1           0        5.207919   -0.360197   -0.000002
     11          1           0        4.406462    0.946014    0.883399
     12          1           0        4.406461    0.946018   -0.883396
     13          1           0        3.003929   -1.155345    0.877031
     14          1           0        3.003928   -1.155342   -0.877035
     15          1           0        1.794016    1.056862   -0.878424
     16          1           0        1.794017    1.056859    0.878429
     17          1           0        0.445994   -1.045727    0.885709
     18          1           0        0.445993   -1.045723   -0.885710
     19          1           0       -1.663670   -1.730203   -1.276468
     20          1           0       -1.948707   -0.217409   -2.159683
     21          1           0       -3.283208   -1.034130   -1.323729
     22          1           0       -1.663673   -1.730213    1.276455
     23          1           0       -3.283212   -1.034143    1.323715
     24          1           0       -1.948716   -0.217427    2.159681
     25          1           0       -2.556108    1.914726   -0.885276
     26          1           0       -2.556110    1.914720    0.885288
     27          1           0       -3.847135    1.073056    0.000001
 ---------------------------------------------------------------------

 SCF Done:  E(RB3LYP) =  -390.954084019     A.U. after    1 cycles

 The electronic state is 1-A.
 Alpha  occ. eigenvalues --  -19.12404 -10.23367 -10.21616 -10.17796 -10.17139
 Alpha  occ. eigenvalues --  -10.17035 -10.16931 -10.16930 -10.16526  -1.01663
 Alpha  occ. eigenvalues --   -0.80169  -0.77630  -0.70987  -0.68579  -0.68292
 Alpha  occ. eigenvalues --   -0.62197  -0.57502  -0.54314  -0.47766  -0.47624
 Alpha  occ. eigenvalues --   -0.44887  -0.44427  -0.42349  -0.41728  -0.40289
 Alpha  occ. eigenvalues --   -0.38506  -0.37901  -0.37810  -0.36222  -0.35435
 Alpha  occ. eigenvalues --   -0.35139  -0.33471  -0.33181  -0.32009  -0.31979
 Alpha  occ. eigenvalues --   -0.28868  -0.24355
 Alpha virt. eigenvalues --    0.08099   0.09396   0.11461   0.12519   0.12635
 Alpha virt. eigenvalues --    0.14422   0.15112   0.15210   0.15863   0.16210
 Alpha virt. eigenvalues --    0.17603   0.18136   0.19175   0.19547   0.20074

 Mulliken charges:
               1
     1  C   -0.378141
     2  C   -0.166185
     3  C   -0.168000
     4  C   -0.069540
     5  O   -0.288861
     6  C    0.374819
     7  C   -0.412922
     8  C   -0.412922
     9  C   -0.395491
    10  H    0.109843
    11  H    0.114623
    12  H    0.114623
    13  H    0.094447
    14  H    0.094447
    15  H    0.100158
    16  H    0.100158
    17  H    0.082161
    18  H    0.082161
    19  H    0.112927
    20  H    0.117572
    21  H    0.112128
    22  H    0.112927
    23  H    0.112128
    24  H    0.117572
    25  H    0.116689
    26  H    0.116689
    27  H    0.105990
 Sum of Mulliken charges =  -0.00000

 Dipole moment (field-independent basis, Debye):
    X=             -0.2164    Y=             -0.9429    Z=             -0.0000  Tot=              0.9674
 Quadrupole moment (field-independent basis, Debye-Ang):
   XX=            -56.9333   YY=            -60.1868   ZZ=            -58.8525
   XY=              0.2261   XZ=              0.0000   YZ=             -0.0000

  Exact polarizability: 112.576  -0.833  85.139  -0.000  -0.000  84.299
 Approx polarizability: 130.476  -0.768 124.542   0.000   0.000 122.701

                      1                      2                      3
                      A                      A                      A
 Frequencies --     21.0056                56.8042                98.7579
 Red. masses --      1.8117                 2.6244                 3.1549
 Frc consts  --      0.0005                 0.0050                 0.0181
 IR Inten    --      0.0652                 0.5568                 0.2033

                      4                      5                      6
                      A                      A                      A
 Frequencies --    113.9289               131.6836               201.1556
 Red. masses --      1.9066                 2.0975                 1.0965
 Frc consts  --      0.0146                 0.0214                 0.0261
 IR Inten    --      0.0636                 2.3571                 0.3677

                      7                      8                      9
                      A                      A                      A
 Frequencies --    231.5358               248.7363               255.1079
 Red. masses --      2.4860                 1.1120                 1.1387
 Frc consts  --      0.0785                 0.0405                 0.0437
 IR Inten    --      0.1495                 0.0147                 0.0473

                     10                     11                     12
                      A                      A                      A
 Frequencies --    260.6363               284.4494               336.4560
 Red. masses --      1.1086                 2.7905                 2.4166
 Frc consts  --      0.0444                 0.1330                 0.1612
 IR Inten    --      0.3118                 0.0722                 1.3936

                     13                     14                     15
                      A                      A                      A
 Frequencies --    343.2072               422.2578               453.1318
 Red. masses --      2.4119                 2.5468                 2.7509
 Frc consts  --      0.1674                 0.2675                 0.3328
 IR Inten    --      0.4578                 0.3301                 4.3809

                     16                     17                     18
                      A                      A                      A
 Frequencies --    465.6052               526.8792               744.0802
 Red. masses --      2.5988                 2.8370                 1.0731
 Frc consts  --      0.3319                 0.4640                 0.3500
 IR Inten    --      0.7576                 1.4878                 2.3297

                     19                     20                     21
                      A                      A                      A
 Frequencies --    750.2288               815.7872               877.8083
 Red. masses --      3.8279                 1.1369                 2.6815
 Frc consts  --      1.2694                 0.4458                 1.2174
 IR Inten    --      1.4066                 0.6260                11.5493

                     22                     23                     24
                      A                      A                      A
 Frequencies --    905.9387               917.7923               927.8938
 Red. masses --      1.6773                 1.7052                 1.7909
 Frc consts  --      0.8110                 0.8463                 0.9085
 IR Inten    --      0.0744                 1.3449                12.1594

                     25                     26                     27
                      A                      A                      A
 Frequencies --    952.9626               955.3761              1023.6853
 Red. masses --      1.1735                 1.1709                 2.9171
 Frc consts  --      0.6279                 0.6297                 1.8011
 IR Inten    --      0.0043                 0.0096                 3.3953

                     28                     29                     30
                      A                      A                      A
 Frequencies --   1036.7439              1046.5386              1072.8739
 Red. masses --      1.4240                 1.5791                 2.1709
 Frc consts  --      0.9018                 1.0190                 1.4723
 IR Inten    --      2.3061                 2.3037                 3.0271

                     31                     32                     33
                      A                      A                      A
 Frequencies --   1113.5971              1142.7946              1193.3008
 Red. masses --      5.1155                 2.7076                 1.6510
 Frc consts  --      3.7376                 2.0834                 1.3851
 IR Inten    --    140.9406                16.4229                 1.8843

                     34                     35                     36
                      A                      A                      A
 Frequencies --   1226.8364              1249.4060              1252.0020
 Red. masses --      2.4670                 1.8654                 1.6618
 Frc consts  --      2.1877                 1.7157                 1.5348
 IR Inten    --    123.9074                14.8108                 5.1419

                     37                     38                     39
                      A                      A                      A
 Frequencies --   1271.8001              1295.8212              1314.6654
 Red. masses --      2.4805                 1.4413                 1.1191
 Frc consts  --      2.3639                 1.4259                 1.1396
 IR Inten    --     19.4926                 4.4385                 0.6542

                     40                     41                     42
                      A                      A                      A
 Frequencies --   1322.7477              1386.2209              1392.0222
 Red. masses --      1.0943                 1.4387                 1.2610
 Frc consts  --      1.1281                 1.6289                 1.4397
 IR Inten    --      0.1291                 1.3205                12.5933

                     43                     44                     45
                      A                      A                      A
 Frequencies --   1393.1424              1412.1134              1419.7152
 Red. masses --      1.3326                 1.2517                 1.2627
 Frc consts  --      1.5239                 1.4705                 1.4996
 IR Inten    --      8.7880                 1.7195                 3.0677

                     46                     47                     48
                      A                      A                      A
 Frequencies --   1429.8451              1470.8571              1483.7189
 Red. masses --      1.3870                 1.0489                 1.0478
 Frc consts  --      1.6708                 1.3370                 1.3590
 IR Inten    --     14.8438                 0.2737                 0.8209

                     49                     50                     51
                      A                      A                      A
 Frequencies --   1485.8315              1487.2207              1495.6256
 Red. masses --      1.0487                 1.0634                 1.0704
 Frc consts  --      1.3640                 1.3858                 1.4107
 IR Inten    --      0.1580                 0.3696                 0.0661

                     52                     53                     54
                      A                      A                      A
 Frequencies --   1498.8882              1499.5890              1499.8151
 Red. masses --      1.0585                 1.0599                 1.0407
 Frc consts  --      1.4011                 1.4043                 1.3793
 IR Inten    --      0.1009                 3.6478                 5.4296

                     55                     56                     57
                      A                      A                      A
 Frequencies --   1510.0107              1517.0544              1531.3618
 Red. masses --      1.0772                 1.0626                 1.0874
 Frc consts  --      1.4472                 1.4409                 1.5024
 IR Inten    --      4.0147                 2.2312                 7.1054

                     58                     59                     60
                      A                      A                      A
 Frequencies --   2969.4353              2997.5333              3011.5061
 Red. masses --      1.0533                 1.1035                 1.0586
 Frc consts  --      5.4722                 5.8417                 5.6566
 IR Inten    --     30.1642                30.4795                18.9562

                     61                     62                     63
                      A                      A                      A
 Frequencies --   3027.3503              3031.4456              3035.7252
 Red. masses --      1.0468                 1.0468                 1.0358
 Frc consts  --      5.6527                 5.6680                 5.6240
 IR Inten    --     15.1864                51.3126                25.2637

                     64                     65                     66
                      A                      A                      A
 Frequencies --   3037.2939              3037.5944              3044.8410
 Red. masses --      1.1003                 1.0345                 1.0354
 Frc consts  --      5.9805                 5.6238                 5.6558
 IR Inten    --      3.0123                25.0360                 6.8136

                     67                     68                     69
                      A                      A                      A
 Frequencies --   3072.8513              3097.0614              3100.9410
 Red. masses --      1.1049                 1.1022                 1.1012
 Frc consts  --      6.1471                 6.2288                 6.2387
 IR Inten    --     36.0017                59.6245                38.3026

                     70                     71                     72
                      A                      A                      A
 Frequencies --   3104.4848              3108.9435              3111.3525
 Red. masses --      1.1010                 1.1011                 1.1029
 Frc consts  --      6.2518                 6.2705                 6.2906
 IR Inten    --      0.7357                28.8220                 3.3740

                     73                     74                     75
                      A                      A                      A
 Frequencies --   3113.3569              3118.6919              3120.4549
 Red. masses --      1.1015                 1.1018                 1.1016
 Frc consts  --      6.2904                 6.3140                 6.3198
 IR Inten    --     35.9756                32.9175                54.6063

 - Thermochemistry -
 -------------------
 Temperature   298.150 Kelvin.  Pressure   1.00000 Atm.
 Atom     1 has atomic number  6 and mass  12.00000

 Molecular mass:   130.13577 amu.
 Principal axes and moments of inertia in atomic units:
                           1         2         3
     Eigenvalues --   486.887033052.818913093.35541
           X            1.00000   0.00253   0.00000
           Y           -0.00253   1.00000  -0.00000
           Z           -0.00000   0.00000   1.00000
 This molecule is an asymmetric top.
 Rotational symmetry number  1.
 Warning -- assumption of classical behavior for rotation
           may cause significant error
 Rotational temperatures (Kelvin)      0.17789     0.02837     0.02800
 Rotational constants (GHZ):           3.70669     0.59117     0.58343
 Zero-point vibrational energy     651461.8 (Joules/Mol)
                                  155.70312 (Kcal/Mol)
 Warning -- explicit consideration of  17 degrees of freedom as
           vibrations may cause significant error
 Vibrational temperatures:     30.22    81.73   142.09   163.92   189.46
          (Kelvin)            289.42   333.13   357.88   367.04   375.00
                              409.26   484.09   493.80   607.53   651.96
                              669.90   758.06  1070.57  1079.41  1173.74
                             1262.97  1303.44  1320.50  1335.03  1371.10
                             1374.57  1472.85  1491.64  1505.74  1543.63
                             1602.22  1644.23  1716.89  1765.14  1797.62
                             1801.35  1829.84  1864.40  1891.51  1903.14
                             1994.46  2002.81  2004.42  2031.72  2042.65
                             2057.23  2116.24  2134.74  2137.78  2139.78
                             2151.87  2156.57  2157.57  2157.90  2172.57
                             2182.70  2203.29  4272.36  4312.78  4332.89
                             4355.68  4361.57  4367.73  4369.99  4370.42
                             4380.85  4421.15  4455.98  4461.56  4466.66
                             4473.08  4476.54  4479.43  4487.10  4489.64

 Zero-point correction=                           0.248129 (Hartree/Particle)
 Thermal correction to Energy=                    0.260436
 Thermal correction to Enthalpy=                  0.261380
 Thermal correction to Gibbs Free Energy=         0.209337
 Sum of electronic and zero-point Energies=           -390.705955
 Sum of electronic and thermal Energies=              -390.693648
 Sum of electronic and thermal Enthalpies=            -390.692704
 Sum of electronic and thermal Free Energies=         -390.744747

                     E (Thermal)             CV                S
                      KCal/Mol        Cal/Mol-Kelvin    Cal/Mol-Kelvin
 Total                  163.426             44.375            109.534
 Electronic               0.000              0.000              0.000
 Translational            0.889              2.981             40.503
 Rotational               0.889              2.981             29.909
 Vibrational            161.649             38.414             39.122
 Vibration     1          0.593              1.986              6.537
 Vibration     2          0.596              1.975              4.565
 Vibration     3          0.604              1.950              3.479
 Vibration     4          0.607              1.938              3.201
 Vibration     5          0.612              1.922              2.921
 Vibration     6          0.638              1.838              2.123
 Vibration     7          0.653              1.793              1.867
 Vibration     8          0.662              1.765              1.740
 Vibration     9          0.665              1.754              1.695
 Vibration    10          0.669              1.745              1.658
 Vibration    11          0.683              1.703              1.507
 Vibration    12          0.717              1.603              1.229
 Vibration    13          0.722              1.589              1.197
 Vibration    14          0.785              1.422              0.884
 Vibration    15          0.812              1.354              0.786
 Vibration    16          0.823              1.326              0.750
 Vibration    17          0.882              1.191              0.594

 Optimization completed.
    -- Stationary point found.
 Normal termination of Gaussian 16 at Thu Aug  4 15:39:17 2022.
