 Gaussian 16, Revision A.03,
 Gaussian 16:  ES64L-G16RevA.03 25-Dec-2016

 -----------------------------
 # opt freq b3lyp/6-31g(2df,p)
 -----------------------------

 -------------------
 Title Card Required
 -------------------
 Symbolic Z-matrix:
 Charge =  0 Multiplicity = 1

 SCF Done:  E(RB3LYP) =  -385.974745289     A.U. after   15 cycles
 SCF Done:  E(RB3LYP) =  -386.002691179     A.U. after   13 cycles
 SCF Done:  E(RB3LYP) =  -386.004245992     A.U. after   13 cycles
 SCF Done:  E(RB3LYP) =  -386.003176602     A.U. after   14 cycles
 SCF Done:  E(RB3LYP) =  -386.004629446     A.U. after   12 cycles
 SCF Done:  E(RB3LYP) =  -386.004674082     A.U. after   11 cycles
 SCF Done:  E(RB3LYP) =  -386.004708468     A.U. after   12 cycles
 SCF Done:  E(RB3LYP) =  -386.004735914     A.U. after   10 cycles
 SCF Done:  E(RB3LYP) =  -386.004745438     A.U. after    9 cycles
 SCF Done:  E(RB3LYP) =  -386.004750353     A.U. after    9 cycles
 SCF Done:  E(RB3LYP) =  -386.004760065     A.U. after   10 cycles
 SCF Done:  E(RB3LYP) =  -386.004765929     A.U. after   11 cycles
 SCF Done:  E(RB3LYP) =  -386.004772993     A.U. after   12 cycles
 SCF Done:  E(RB3LYP) =  -386.004781195     A.U. after   11 cycles
 SCF Done:  E(RB3LYP) =  -386.004793589     A.U. after   10 cycles
 SCF Done:  E(RB3LYP) =  -386.004794131     A.U. after   11 cycles
 SCF Done:  E(RB3LYP) =  -386.004794223     A.U. after    8 cycles
 SCF Done:  E(RB3LYP) =  -386.004794248     A.U. after    8 cycles
 SCF Done:  E(RB3LYP) =  -386.004794251     A.U. after    7 cycles
 Optimization completed.
    -- Stationary point found.
 Normal termination of Gaussian 16 at Sun Jul  3 13:09:48 2022.

 ----------------------------------------------------------------------
 #N Geom=AllCheck Guess=TCheck SCRF=Check GenChk RB3LYP/6-31G(2df,p) Fr
 eq
 ----------------------------------------------------------------------

 Structure from the checkpoint file:  "CCCCtCC1CC1dO.chk"
 -------------------
 Title Card Required
 -------------------
 Charge =  0 Multiplicity = 1

                         Standard orientation:
 ---------------------------------------------------------------------
 Center     Atomic      Atomic             Coordinates (Angstroms)
 Number     Number       Type             X           Y           Z
 ---------------------------------------------------------------------
      1          6           0        4.427542    0.028666   -0.275696
      2          6           0        2.983919    0.477575   -0.042034
      3          6           0        2.008988   -0.713744    0.060050
      4          6           0        0.624235   -0.316478    0.284430
      5          6           0       -0.511779    0.040134    0.476497
      6          6           0       -1.873082    0.432373    0.679401
      7          6           0       -2.663825    1.212266   -0.453812
      8          6           0       -2.975718   -0.179803   -0.124893
      9          8           0       -3.612050   -1.160641   -0.354884
     10          1           0        5.101845    0.887377   -0.345355
     11          1           0        4.520494   -0.544000   -1.205271
     12          1           0        4.783078   -0.608418    0.541856
     13          1           0        2.656061    1.134078   -0.855809
     14          1           0        2.916142    1.069387    0.877593
     15          1           0        2.332439   -1.378410    0.872776
     16          1           0        2.071991   -1.314061   -0.857880
     17          1           0       -2.146276    0.735397    1.689093
     18          1           0       -2.131691    1.413687   -1.379157
     19          1           0       -3.329364    2.004163   -0.122432
 ---------------------------------------------------------------------

 SCF Done:  E(RB3LYP) =  -386.004794251     A.U. after    1 cycles

 The electronic state is 1-A.
 Alpha  occ. eigenvalues --  -19.15821 -10.29102 -10.22664 -10.21199 -10.20619
 Alpha  occ. eigenvalues --  -10.18919 -10.17916 -10.17798 -10.17555  -1.06287
 Alpha  occ. eigenvalues --   -0.87615  -0.80639  -0.74782  -0.69890  -0.63987
 Alpha  occ. eigenvalues --   -0.59949  -0.56695  -0.52170  -0.47793  -0.47103
 Alpha  occ. eigenvalues --   -0.47038  -0.43124  -0.42029  -0.41323  -0.40064
 Alpha  occ. eigenvalues --   -0.38194  -0.36697  -0.35806  -0.34885  -0.33930
 Alpha  occ. eigenvalues --   -0.27795  -0.25077  -0.22453
 Alpha virt. eigenvalues --   -0.03625   0.03799   0.05524   0.09217   0.10411
 Alpha virt. eigenvalues --    0.13493   0.13635   0.14086   0.14694   0.16667
 Alpha virt. eigenvalues --    0.16966   0.18275   0.18637   0.19546   0.20959

 Mulliken charges:
               1
     1  C   -0.381819
     2  C   -0.153898
     3  C   -0.337725
     4  C    0.053073
     5  C    0.111263
     6  C   -0.334783
     7  C   -0.397492
     8  C    0.449092
     9  O   -0.271555
    10  H    0.115477
    11  H    0.116655
    12  H    0.116796
    13  H    0.107361
    14  H    0.108897
    15  H    0.128872
    16  H    0.128190
    17  H    0.136706
    18  H    0.156093
    19  H    0.148799
 Sum of Mulliken charges =  -0.00000

 Dipole moment (field-independent basis, Debye):
    X=              1.7713    Y=              2.1524    Z=              0.2497  Tot=              2.7987
 Quadrupole moment (field-independent basis, Debye-Ang):
   XX=            -54.9967   YY=            -54.3443   ZZ=            -51.7057
   XY=             -9.4745   XZ=             -2.7694   YZ=             -0.4120

  Exact polarizability: 129.710  -6.740  73.936   0.503  -0.376  65.121
 Approx polarizability: 168.903  -9.454 115.656  -0.263   2.136  99.234

                      1                      2                      3
                      A                      A                      A
 Frequencies --      1.2821                59.3311                70.8000
 Red. masses --      2.6207                 4.7422                 2.3086
 Frc consts  --      0.0000                 0.0098                 0.0068
 IR Inten    --      0.5862                 1.6870                 0.8749

                      4                      5                      6
                      A                      A                      A
 Frequencies --    110.8712               147.8155               240.1859
 Red. masses --      4.5063                 3.4353                 1.0806
 Frc consts  --      0.0326                 0.0442                 0.0367
 IR Inten    --      0.9048                 2.2106                 0.0356

                      7                      8                      9
                      A                      A                      A
 Frequencies --    284.2263               308.2707               342.2729
 Red. masses --      3.2790                 3.3553                 3.5210
 Frc consts  --      0.1561                 0.1879                 0.2430
 IR Inten    --      3.3967                 4.2031                 2.5835

                     10                     11                     12
                      A                      A                      A
 Frequencies --    418.9830               447.9227               503.6408
 Red. masses --      3.7705                 4.5755                 4.9531
 Frc consts  --      0.3900                 0.5409                 0.7402
 IR Inten    --      1.2941                 2.2203                 1.9457

                     13                     14                     15
                      A                      A                      A
 Frequencies --    564.7190               688.2708               727.9622
 Red. masses --      2.4299                 2.2044                 3.7045
 Frc consts  --      0.4566                 0.6153                 1.1566
 IR Inten    --      1.5480                 2.8522                10.5744

                     16                     17                     18
                      A                      A                      A
 Frequencies --    741.4860               815.1945               870.2739
 Red. masses --      1.1063                 2.7197                 1.2313
 Frc consts  --      0.3584                 1.0649                 0.5494
 IR Inten    --      2.4641                 2.5081                 0.6010

                     19                     20                     21
                      A                      A                      A
 Frequencies --    884.3995               937.5051               986.8888
 Red. masses --      2.0343                 3.2230                 2.2653
 Frc consts  --      0.9375                 1.6690                 1.2999
 IR Inten    --     10.3811               127.0717                13.8583

                     22                     23                     24
                      A                      A                      A
 Frequencies --   1041.7997              1043.9332              1063.6787
 Red. masses --      1.7855                 2.7149                 2.0812
 Frc consts  --      1.1417                 1.7432                 1.3874
 IR Inten    --     23.1350                 0.9162                 8.6981

                     25                     26                     27
                      A                      A                      A
 Frequencies --   1088.6909              1108.2336              1120.6080
 Red. masses --      1.4312                 2.0469                 1.4507
 Frc consts  --      0.9994                 1.4812                 1.0734
 IR Inten    --      6.7235                 2.2208                 0.4526

                     28                     29                     30
                      A                      A                      A
 Frequencies --   1190.5864              1258.7607              1304.2978
 Red. masses --      1.7487                 1.3033                 1.3446
 Frc consts  --      1.4605                 1.2167                 1.3477
 IR Inten    --     11.6487                 0.0863                14.6716

                     31                     32                     33
                      A                      A                      A
 Frequencies --   1321.3560              1331.0691              1381.6580
 Red. masses --      1.0812                 2.1535                 1.5547
 Frc consts  --      1.1122                 2.2480                 1.7486
 IR Inten    --      0.0112                 5.5895                 1.5822

                     34                     35                     36
                      A                      A                      A
 Frequencies --   1412.6148              1413.0423              1469.8818
 Red. masses --      1.1384                 1.2324                 1.0845
 Frc consts  --      1.3384                 1.4498                 1.3805
 IR Inten    --      6.8950                 0.5369                 2.7118

                     37                     38                     39
                      A                      A                      A
 Frequencies --   1491.5274              1498.9622              1508.6119
 Red. masses --      1.0539                 1.0399                 1.0795
 Frc consts  --      1.3813                 1.3767                 1.4475
 IR Inten    --      0.5132                 5.4844                 3.3584

                     40                     41                     42
                      A                      A                      A
 Frequencies --   1957.2727              2357.1941              3008.6045
 Red. masses --     12.7594                11.8578                 1.0580
 Frc consts  --     28.7995                38.8191                 5.6425
 IR Inten    --    349.7825                 0.8478                18.2853

                     43                     44                     45
                      A                      A                      A
 Frequencies --   3029.6556              3035.4490              3040.5367
 Red. masses --      1.0367                 1.1000                 1.0590
 Frc consts  --      5.6064                 5.9717                 5.7685
 IR Inten    --     26.3518                 5.5545                29.1400

                     46                     47                     48
                      A                      A                      A
 Frequencies --   3072.7292              3099.9383              3105.8991
 Red. masses --      1.1027                 1.1033                 1.1005
 Frc consts  --      6.1342                 6.2465                 6.2548
 IR Inten    --      3.9228                55.7223                31.8431

                     49                     50                     51
                      A                      A                      A
 Frequencies --   3116.3677              3118.8715              3211.9045
 Red. masses --      1.0836                 1.0542                 1.1151
 Frc consts  --      6.2006                 6.0420                 6.7777
 IR Inten    --      9.5156                 2.7330                 0.5625

 - Thermochemistry -
 -------------------
 Temperature   298.150 Kelvin.  Pressure   1.00000 Atm.
 Atom     1 has atomic number  6 and mass  12.00000

 Molecular mass:   122.07317 amu.
 Principal axes and moments of inertia in atomic units:
                           1         2         3
     Eigenvalues --   322.830583495.159573642.68532
           X            0.99991  -0.01288  -0.00446
           Y            0.01277   0.99963  -0.02417
           Z            0.00477   0.02412   0.99970
 This molecule is an asymmetric top.
 Rotational symmetry number  1.
 Rotational temperatures (Kelvin)      0.26830     0.02478     0.02378
 Rotational constants (GHZ):           5.59037     0.51635     0.49544
 Zero-point vibrational energy     408859.9 (Joules/Mol)
                                   97.71986 (Kcal/Mol)
 Warning -- explicit consideration of  13 degrees of freedom as
           vibrations may cause significant error
 Vibrational temperatures:      1.84    85.36   101.87   159.52   212.67
          (Kelvin)            345.57   408.94   443.53   492.45   602.82
                              644.46   724.63   812.50   990.27  1047.38
                             1066.83  1172.88  1252.13  1272.45  1348.86
                             1419.91  1498.92  1501.99  1530.40  1566.38
                             1594.50  1612.30  1712.99  1811.08  1876.59
                             1901.14  1915.11  1987.90  2032.44  2033.05
                             2114.83  2145.98  2156.67  2170.56  2816.08
                             3391.48  4328.71  4359.00  4367.33  4374.65
                             4420.97  4460.12  4468.70  4483.76  4487.36
                             4621.21

 Zero-point correction=                           0.155727 (Hartree/Particle)
 Thermal correction to Energy=                    0.166012
 Thermal correction to Enthalpy=                  0.166956
 Thermal correction to Gibbs Free Energy=         0.115758
 Sum of electronic and zero-point Energies=           -385.849068
 Sum of electronic and thermal Energies=              -385.838783
 Sum of electronic and thermal Enthalpies=            -385.837839
 Sum of electronic and thermal Free Energies=         -385.889036

                     E (Thermal)             CV                S
                      KCal/Mol        Cal/Mol-Kelvin    Cal/Mol-Kelvin
 Total                  104.174             35.767            107.754
 Electronic               0.000              0.000              0.000
 Translational            0.889              2.981             40.313
 Rotational               0.889              2.981             29.798
 Vibrational            102.396             29.805             37.644
 Vibration     1          0.592              1.987             12.093
 Vibration     2          0.597              1.974              4.479
 Vibration     3          0.598              1.968              4.131
 Vibration     4          0.607              1.940              3.254
 Vibration     5          0.617              1.905              2.700
 Vibration     6          0.657              1.779              1.802
 Vibration     7          0.683              1.703              1.508
 Vibration     8          0.698              1.658              1.372
 Vibration     9          0.721              1.591              1.202
 Vibration    10          0.782              1.429              0.895
 Vibration    11          0.807              1.365              0.802
 Vibration    12          0.859              1.242              0.649
 Vibration    13          0.921              1.108              0.514

 Optimization completed.
    -- Stationary point found.
 Normal termination of Gaussian 16 at Sun Jul  3 13:33:25 2022.
