 Gaussian 16, Revision A.03,
 Gaussian 16:  ES64L-G16RevA.03 25-Dec-2016

 -----------------------------
 # opt freq b3lyp/6-31g(2df,p)
 -----------------------------

 -------------------
 Title Card Required
 -------------------
 Symbolic Z-matrix:
 Charge =  0 Multiplicity = 1

 SCF Done:  E(RB3LYP) =  -420.517039257     A.U. after   14 cycles
 SCF Done:  E(RB3LYP) =  -420.541923717     A.U. after   13 cycles
 SCF Done:  E(RB3LYP) =  -420.552776664     A.U. after   12 cycles
 SCF Done:  E(RB3LYP) =  -420.559883241     A.U. after   12 cycles
 SCF Done:  E(RB3LYP) =  -420.565888151     A.U. after   12 cycles
 SCF Done:  E(RB3LYP) =  -420.568104906     A.U. after   12 cycles
 SCF Done:  E(RB3LYP) =  -420.568696866     A.U. after   10 cycles
 SCF Done:  E(RB3LYP) =  -420.568873566     A.U. after   10 cycles
 SCF Done:  E(RB3LYP) =  -420.568902051     A.U. after    9 cycles
 SCF Done:  E(RB3LYP) =  -420.568915561     A.U. after    9 cycles
 SCF Done:  E(RB3LYP) =  -420.568921579     A.U. after    9 cycles
 SCF Done:  E(RB3LYP) =  -420.568925351     A.U. after    9 cycles
 SCF Done:  E(RB3LYP) =  -420.568927903     A.U. after    8 cycles
 SCF Done:  E(RB3LYP) =  -420.568928369     A.U. after    7 cycles
 Optimization completed.
    -- Stationary point found.
 Normal termination of Gaussian 16 at Sun Jul  3 16:02:33 2022.

 ----------------------------------------------------------------------
 #N Geom=AllCheck Guess=TCheck SCRF=Check GenChk RB3LYP/6-31G(2df,p) Fr
 eq
 ----------------------------------------------------------------------

 Structure from the checkpoint file:  "CCCCC1pOpNdC1N.chk"
 -------------------
 Title Card Required
 -------------------
 Charge =  0 Multiplicity = 1

                         Standard orientation:
 ---------------------------------------------------------------------
 Center     Atomic      Atomic             Coordinates (Angstroms)
 Number     Number       Type             X           Y           Z
 ---------------------------------------------------------------------
      1          6           0        3.844738    0.583093   -0.367057
      2          6           0        2.727285    0.017904    0.513858
      3          6           0        1.353513    0.051209   -0.163158
      4          6           0        0.227945   -0.506882    0.718772
      5          6           0       -1.119148   -0.557062    0.025431
      6          8           0       -1.146680   -1.369775   -1.116731
      7          7           0       -2.379920   -0.512775    0.880812
      8          6           0       -2.120783    0.460025    0.107042
      9          7           0       -2.581611    1.673656   -0.259466
     10          1           0        4.813914    0.543146    0.140026
     11          1           0        3.650224    1.628768   -0.630786
     12          1           0        3.934253    0.019354   -1.302388
     13          1           0        2.682536    0.580329    1.456037
     14          1           0        2.967771   -1.016957    0.792242
     15          1           0        1.386046   -0.518491   -1.099598
     16          1           0        1.111199    1.085593   -0.444613
     17          1           0        0.128463    0.085276    1.634233
     18          1           0        0.487641   -1.528003    1.038838
     19          1           0       -0.945020   -2.271784   -0.839921
     20          1           0       -2.249284    2.051276   -1.131816
     21          1           0       -3.544884    1.883809   -0.037155
 ---------------------------------------------------------------------

 SCF Done:  E(RB3LYP) =  -420.568928369     A.U. after    1 cycles

 The electronic state is 1-A.
 Alpha  occ. eigenvalues --  -19.13711 -14.36653 -14.30703 -10.25917 -10.24927
 Alpha  occ. eigenvalues --  -10.17835 -10.17705 -10.17498 -10.17068  -1.03683
 Alpha  occ. eigenvalues --   -0.96836  -0.90810  -0.79402  -0.73334  -0.64861
 Alpha  occ. eigenvalues --   -0.59910  -0.58941  -0.57558  -0.53809  -0.48307
 Alpha  occ. eigenvalues --   -0.47220  -0.45251  -0.43009  -0.41417  -0.40138
 Alpha  occ. eigenvalues --   -0.37939  -0.37449  -0.35240  -0.34127  -0.32942
 Alpha  occ. eigenvalues --   -0.32708  -0.31950  -0.28234  -0.24538  -0.24032
 Alpha virt. eigenvalues --    0.03839   0.06604   0.07944   0.10071   0.11637
 Alpha virt. eigenvalues --    0.13001   0.13688   0.14963   0.16290   0.16993
 Alpha virt. eigenvalues --    0.17784   0.18791   0.19518   0.20223   0.21756

 Mulliken charges:
               1
     1  C   -0.380379
     2  C   -0.164405
     3  C   -0.149328
     4  C   -0.258133
     5  C    0.285248
     6  O   -0.453979
     7  N   -0.333518
     8  C    0.336922
     9  N   -0.608775
    10  H    0.110660
    11  H    0.111961
    12  H    0.113610
    13  H    0.094610
    14  H    0.093229
    15  H    0.102875
    16  H    0.084798
    17  H    0.106760
    18  H    0.088333
    19  H    0.280636
    20  H    0.272214
    21  H    0.266661
 Sum of Mulliken charges =  -0.00000

 Dipole moment (field-independent basis, Debye):
    X=              0.4365    Y=              1.7989    Z=             -1.2744  Tot=              2.2474
 Quadrupole moment (field-independent basis, Debye-Ang):
   XX=            -53.9644   YY=            -48.0053   ZZ=            -58.1166
   XY=             -9.1889   XZ=              4.9600   YZ=             -1.6346

  Exact polarizability:  94.293  -7.697  80.911  -2.813  -3.808  67.613
 Approx polarizability: 111.989  -9.796 127.022  -6.648  -9.361 106.748

                      1                      2                      3
                      A                      A                      A
 Frequencies --     47.9491                72.8324               102.8170
 Red. masses --      3.1599                 1.7467                 3.4144
 Frc consts  --      0.0043                 0.0055                 0.0213
 IR Inten    --      1.0899                 0.1997                 1.0051

                      4                      5                      6
                      A                      A                      A
 Frequencies --    138.8094               190.2083               224.6963
 Red. masses --      2.6114                 2.7713                 1.1770
 Frc consts  --      0.0296                 0.0591                 0.0350
 IR Inten    --      0.3352                14.9170                95.3801

                      7                      8                      9
                      A                      A                      A
 Frequencies --    245.2798               255.2179               307.9427
 Red. masses --      1.1417                 2.6932                 4.1504
 Frc consts  --      0.0405                 0.1034                 0.2319
 IR Inten    --      0.2991                 6.7202                12.6768

                     10                     11                     12
                      A                      A                      A
 Frequencies --    316.5707               396.1118               440.2385
 Red. masses --      3.0619                 1.3426                 2.2779
 Frc consts  --      0.1808                 0.1241                 0.2601
 IR Inten    --      9.4817                69.1174                48.2846

                     13                     14                     15
                      A                      A                      A
 Frequencies --    447.0373               509.5214               557.9369
 Red. masses --      1.7227                 2.6232                 4.5402
 Frc consts  --      0.2028                 0.4012                 0.8327
 IR Inten    --    109.2504                40.0725                16.5360

                     16                     17                     18
                      A                      A                      A
 Frequencies --    647.9066               734.5421               739.7761
 Red. masses --      5.4046                 1.7832                 1.6321
 Frc consts  --      1.3367                 0.5669                 0.5263
 IR Inten    --     21.3002                13.3188                 5.4057

                     19                     20                     21
                      A                      A                      A
 Frequencies --    776.5956               796.6020               909.6226
 Red. masses --      5.5618                 1.2338                 1.7867
 Frc consts  --      1.9763                 0.4613                 0.8710
 IR Inten    --     17.7835                 1.4049                 0.7229

                     22                     23                     24
                      A                      A                      A
 Frequencies --    930.3299              1017.8188              1038.7760
 Red. masses --      1.3089                 3.6786                 2.2011
 Frc consts  --      0.6675                 2.2453                 1.3994
 IR Inten    --      3.1396                 2.6228               101.6289

                     25                     26                     27
                      A                      A                      A
 Frequencies --   1066.0850              1101.2136              1122.8435
 Red. masses --      2.4123                 1.7299                 2.2852
 Frc consts  --      1.6153                 1.2360                 1.6975
 IR Inten    --      0.5291                 3.1776                10.3472

                     28                     29                     30
                      A                      A                      A
 Frequencies --   1148.2418              1191.1530              1238.0711
 Red. masses --      1.6179                 3.7451                 1.4642
 Frc consts  --      1.2568                 3.1307                 1.3224
 IR Inten    --     66.1457                71.9590                22.7484

                     31                     32                     33
                      A                      A                      A
 Frequencies --   1276.8351              1290.5364              1319.9947
 Red. masses --      1.3609                 1.3645                 1.3090
 Frc consts  --      1.3072                 1.3390                 1.3438
 IR Inten    --      1.5647                43.5906                18.6881

                     34                     35                     36
                      A                      A                      A
 Frequencies --   1328.0534              1363.0695              1395.1506
 Red. masses --      1.0734                 1.4682                 1.6113
 Frc consts  --      1.1154                 1.6072                 1.8479
 IR Inten    --      0.4619                 3.7374                 2.0632

                     37                     38                     39
                      A                      A                      A
 Frequencies --   1412.8209              1477.7128              1486.5769
 Red. masses --      1.2404                 1.1158                 1.0624
 Frc consts  --      1.4587                 1.4355                 1.3833
 IR Inten    --      0.5481                 1.8797                 0.4977

                     40                     41                     42
                      A                      A                      A
 Frequencies --   1499.5320              1499.8959              1512.2419
 Red. masses --      1.0456                 1.0770                 1.9792
 Frc consts  --      1.3852                 1.4275                 2.6667
 IR Inten    --      4.8135                 0.7041                 4.3430

                     43                     44                     45
                      A                      A                      A
 Frequencies --   1513.8760              1626.9480              1857.6750
 Red. masses --      1.4620                 1.1312                11.2390
 Frc consts  --      1.9741                 1.7642                22.8516
 IR Inten    --      0.7025                35.5219               149.8432

                     46                     47                     48
                      A                      A                      A
 Frequencies --   2990.5601              3007.8388              3016.6598
 Red. masses --      1.0691                 1.0608                 1.0633
 Frc consts  --      5.6335                 5.6544                 5.7013
 IR Inten    --     17.0724                 1.5948                59.4263

                     49                     50                     51
                      A                      A                      A
 Frequencies --   3028.2349              3036.8749              3059.0192
 Red. masses --      1.0365                 1.0954                 1.0960
 Frc consts  --      5.6003                 5.9522                 6.0429
 IR Inten    --     36.2061                 8.5739                 7.7379

                     52                     53                     54
                      A                      A                      A
 Frequencies --   3081.1213              3094.7860              3100.1739
 Red. masses --      1.0961                 1.1019                 1.1010
 Frc consts  --      6.1310                 6.2182                 6.2345
 IR Inten    --     28.2787                65.5832                39.0822

                     55                     56                     57
                      A                      A                      A
 Frequencies --   3564.4419              3688.4958              3779.7361
 Red. masses --      1.0476                 1.0985                 1.0656
 Frc consts  --      7.8417                 8.8051                 8.9698
 IR Inten    --     22.9388                39.0435                19.8989

 - Thermochemistry -
 -------------------
 Temperature   298.150 Kelvin.  Pressure   1.00000 Atm.
 Atom     1 has atomic number  6 and mass  12.00000

 Molecular mass:   128.09496 amu.
 Principal axes and moments of inertia in atomic units:
                           1         2         3
     Eigenvalues --   581.409162485.807672673.31636
           X            0.99999  -0.00340   0.00294
           Y            0.00355   0.99860  -0.05269
           Z           -0.00276   0.05270   0.99861
 This molecule is an asymmetric top.
 Rotational symmetry number  1.
 Warning -- assumption of classical behavior for rotation
           may cause significant error
 Rotational temperatures (Kelvin)      0.14897     0.03484     0.03240
 Rotational constants (GHZ):           3.10408     0.72602     0.67509
 Zero-point vibrational energy     472654.2 (Joules/Mol)
                                  112.96706 (Kcal/Mol)
 Warning -- explicit consideration of  15 degrees of freedom as
           vibrations may cause significant error
 Vibrational temperatures:     68.99   104.79   147.93   199.72   273.67
          (Kelvin)            323.29   352.90   367.20   443.06   455.47
                              569.92   633.41   643.19   733.09   802.75
                              932.19  1056.84  1064.37  1117.35  1146.13
                             1308.74  1338.54  1464.41  1494.57  1533.86
                             1584.40  1615.52  1652.06  1713.80  1781.31
                             1837.08  1856.79  1899.18  1910.77  1961.15
                             2007.31  2032.73  2126.10  2138.85  2157.49
                             2158.02  2175.78  2178.13  2340.82  2672.78
                             4302.75  4327.61  4340.30  4356.95  4369.39
                             4401.25  4433.05  4452.71  4460.46  5128.44
                             5306.92  5438.20

 Zero-point correction=                           0.180024 (Hartree/Particle)
 Thermal correction to Energy=                    0.190905
 Thermal correction to Enthalpy=                  0.191849
 Thermal correction to Gibbs Free Energy=         0.143482
 Sum of electronic and zero-point Energies=           -420.388904
 Sum of electronic and thermal Energies=              -420.378023
 Sum of electronic and thermal Enthalpies=            -420.377079
 Sum of electronic and thermal Free Energies=         -420.425446

                     E (Thermal)             CV                S
                      KCal/Mol        Cal/Mol-Kelvin    Cal/Mol-Kelvin
 Total                  119.795             39.190            101.797
 Electronic               0.000              0.000              0.000
 Translational            0.889              2.981             40.456
 Rotational               0.889              2.981             29.737
 Vibrational            118.017             33.229             31.604
 Vibration     1          0.595              1.978              4.900
 Vibration     2          0.599              1.967              4.075
 Vibration     3          0.605              1.947              3.400
 Vibration     4          0.614              1.915              2.820
 Vibration     5          0.634              1.853              2.226
 Vibration     6          0.649              1.803              1.921
 Vibration     7          0.660              1.771              1.764
 Vibration     8          0.666              1.754              1.694
 Vibration     9          0.698              1.659              1.373
 Vibration    10          0.703              1.642              1.328
 Vibration    11          0.763              1.478              0.977
 Vibration    12          0.800              1.382              0.826
 Vibration    13          0.806              1.367              0.805
 Vibration    14          0.865              1.229              0.635
 Vibration    15          0.913              1.122              0.528

                           ! Non-Optimized Parameters !
 Normal termination of Gaussian 16 at Sun Jul  3 16:34:46 2022.
