 Gaussian 16, Revision A.03,
 Gaussian 16:  ES64L-G16RevA.03 25-Dec-2016

 -----------------------------
 # opt freq b3lyp/6-31g(2df,p)
 -----------------------------

 -------------------
 Title Card Required
 -------------------
 Symbolic Z-matrix:
 Charge =  0 Multiplicity = 1

 SCF Done:  E(RB3LYP) =  -349.924203698     A.U. after   22 cycles
 SCF Done:  E(RB3LYP) =  -349.980280473     A.U. after   17 cycles
 SCF Done:  E(RB3LYP) =  -350.012929551     A.U. after   13 cycles
 SCF Done:  E(RB3LYP) =  -350.022053782     A.U. after   13 cycles
 SCF Done:  E(RB3LYP) =  -350.026397003     A.U. after   13 cycles
 SCF Done:  E(RB3LYP) =  -350.028221424     A.U. after   11 cycles
 SCF Done:  E(RB3LYP) =  -350.029053997     A.U. after   11 cycles
 SCF Done:  E(RB3LYP) =  -350.029349095     A.U. after   11 cycles
 SCF Done:  E(RB3LYP) =  -350.029565194     A.U. after   11 cycles
 SCF Done:  E(RB3LYP) =  -350.029637777     A.U. after   11 cycles
 SCF Done:  E(RB3LYP) =  -350.030062148     A.U. after    9 cycles
 SCF Done:  E(RB3LYP) =  -350.030076932     A.U. after   10 cycles
 SCF Done:  E(RB3LYP) =  -350.030090008     A.U. after    8 cycles
 SCF Done:  E(RB3LYP) =  -350.030115289     A.U. after    9 cycles
 SCF Done:  E(RB3LYP) =  -350.030147925     A.U. after   11 cycles
 SCF Done:  E(RB3LYP) =  -350.030156462     A.U. after   10 cycles
 SCF Done:  E(RB3LYP) =  -350.030160437     A.U. after    8 cycles
 SCF Done:  E(RB3LYP) =  -350.030161992     A.U. after    8 cycles
 SCF Done:  E(RB3LYP) =  -350.030162584     A.U. after    7 cycles
 Optimization completed.
    -- Stationary point found.
 Normal termination of Gaussian 16 at Thu Aug  4 13:16:53 2022.

 ----------------------------------------------------------------------
 #N Geom=AllCheck Guess=TCheck SCRF=Check GenChk RB3LYP/6-31G(2df,p) Fr
 eq
 ----------------------------------------------------------------------

 Structure from the checkpoint file:  "CCCC1CCC2dCdC21.chk"
 -------------------
 Title Card Required
 -------------------
 Charge =  0 Multiplicity = 1

                         Standard orientation:
 ---------------------------------------------------------------------
 Center     Atomic      Atomic             Coordinates (Angstroms)
 Number     Number       Type             X           Y           Z
 ---------------------------------------------------------------------
      1          6           0       -3.639866    0.105361   -0.276261
      2          6           0       -2.267122    0.317439    0.367240
      3          6           0       -1.196510   -0.626759   -0.188044
      4          6           0        0.191629   -0.413633    0.429216
      5          6           0        1.295517   -1.425320   -0.063688
      6          6           0        2.647267   -0.629915   -0.089570
      7          6           0        2.166764    0.788129   -0.131680
      8          6           0        1.590877    2.099971   -0.185314
      9          6           0        0.857125    0.906609    0.145306
     10          1           0       -4.383383    0.790921    0.141255
     11          1           0       -4.001827   -0.916522   -0.116141
     12          1           0       -3.600677    0.276434   -1.357686
     13          1           0       -2.344635    0.175957    1.453518
     14          1           0       -1.942038    1.353736    0.217361
     15          1           0       -1.123995   -0.505671   -1.276954
     16          1           0       -1.496179   -1.668904   -0.014986
     17          1           0        0.096640   -0.480121    1.522761
     18          1           0        1.046477   -1.749959   -1.080665
     19          1           0        1.344911   -2.324659    0.557211
     20          1           0        3.303760   -0.906566   -0.918829
     21          1           0        3.226860   -0.775953    0.829917
 ---------------------------------------------------------------------

 SCF Done:  E(RB3LYP) =  -350.030162584     A.U. after    1 cycles

 The electronic state is 1-A.
 Alpha  occ. eigenvalues --  -10.22346 -10.22101 -10.20699 -10.20600 -10.20463
 Alpha  occ. eigenvalues --  -10.20303 -10.19287 -10.18439 -10.17641  -0.91823
 Alpha  occ. eigenvalues --   -0.81808  -0.78405  -0.73618  -0.66514  -0.62925
 Alpha  occ. eigenvalues --   -0.59210  -0.53302  -0.50500  -0.47795  -0.45826
 Alpha  occ. eigenvalues --   -0.43247  -0.40854  -0.40049  -0.39200  -0.38450
 Alpha  occ. eigenvalues --   -0.37368  -0.35366  -0.34688  -0.33983  -0.32908
 Alpha  occ. eigenvalues --   -0.32207  -0.31580  -0.19703
 Alpha virt. eigenvalues --    0.00012   0.00273   0.08008   0.08828   0.10312
 Alpha virt. eigenvalues --    0.10634   0.11218   0.13558   0.13579   0.15008
 Alpha virt. eigenvalues --    0.15241   0.16801   0.17908   0.18093   0.18858

 Mulliken charges:
               1
     1  C   -0.383285
     2  C   -0.171417
     3  C   -0.178858
     4  C   -0.125305
     5  C   -0.236119
     6  C   -0.350864
     7  C    0.203748
     8  C   -0.356225
     9  C    0.219382
    10  H    0.116414
    11  H    0.112363
    12  H    0.117436
    13  H    0.094134
    14  H    0.123629
    15  H    0.101977
    16  H    0.098707
    17  H    0.110258
    18  H    0.115100
    19  H    0.109411
    20  H    0.136895
    21  H    0.142618
 Sum of Mulliken charges =  -0.00000

 Dipole moment (field-independent basis, Debye):
    X=             -0.6109    Y=             -4.4167    Z=              0.6976  Tot=              4.5130
 Quadrupole moment (field-independent basis, Debye-Ang):
   XX=            -54.1852   YY=            -66.0623   ZZ=            -53.5483
   XY=             -7.8024   XZ=              0.8741   YZ=              0.9955

  Exact polarizability: 105.913  -0.377  91.522  -2.207  -1.575  69.606
 Approx polarizability: 139.585  -0.849 139.747  -5.756  -3.935 113.044

                      1                      2                      3
                      A                      A                      A
 Frequencies --     68.8809                82.2907               100.1724
 Red. masses --      3.0052                 1.7472                 2.8179
 Frc consts  --      0.0084                 0.0070                 0.0167
 IR Inten    --      1.0868                 1.7308                 2.4315

                      4                      5                      6
                      A                      A                      A
 Frequencies --    162.3802               200.9553               245.9801
 Red. masses --      2.3075                 4.0887                 1.1205
 Frc consts  --      0.0358                 0.0973                 0.0399
 IR Inten    --      0.2926                 5.9814                 0.0392

                      7                      8                      9
                      A                      A                      A
 Frequencies --    291.4743               339.6432               358.8186
 Red. masses --      3.0624                 4.4993                 2.6783
 Frc consts  --      0.1533                 0.3058                 0.2032
 IR Inten    --      1.5939                 0.7985                 0.0651

                     10                     11                     12
                      A                      A                      A
 Frequencies --    429.4259               548.7337               618.9897
 Red. masses --      4.9781                 2.2951                 2.7402
 Frc consts  --      0.5409                 0.4072                 0.6186
 IR Inten    --      6.7759                 3.6995                 2.8327

                     13                     14                     15
                      A                      A                      A
 Frequencies --    726.1395               760.0126               786.1256
 Red. masses --      2.2142                 1.4442                 2.4589
 Frc consts  --      0.6879                 0.4915                 0.8953
 IR Inten    --      1.4470                 0.9672                 2.4757

                     16                     17                     18
                      A                      A                      A
 Frequencies --    847.7055               878.1788               896.3574
 Red. masses --      2.7534                 1.6797                 1.8911
 Frc consts  --      1.1658                 0.7632                 0.8952
 IR Inten    --      0.4341                 1.5491                 0.7262

                     19                     20                     21
                      A                      A                      A
 Frequencies --    924.4714               935.1931              1010.4186
 Red. masses --      2.2415                 2.0214                 1.8994
 Frc consts  --      1.1287                 1.0416                 1.1426
 IR Inten    --      1.8888                 0.4761                 0.0060

                     22                     23                     24
                      A                      A                      A
 Frequencies --   1040.1993              1063.1248              1108.1615
 Red. masses --      2.5298                 1.7818                 1.6236
 Frc consts  --      1.6128                 1.1865                 1.1747
 IR Inten    --      0.6370                 0.8865                 0.2750

                     25                     26                     27
                      A                      A                      A
 Frequencies --   1126.8880              1166.9840              1197.4519
 Red. masses --      2.0239                 1.5931                 1.6305
 Frc consts  --      1.5142                 1.2783                 1.3775
 IR Inten    --      3.2588                 0.6709                 3.1943

                     28                     29                     30
                      A                      A                      A
 Frequencies --   1231.6024              1243.1304              1253.4931
 Red. masses --      2.1420                 1.9544                 1.6133
 Frc consts  --      1.9143                 1.7795                 1.4935
 IR Inten    --     11.0310                20.7121                14.3827

                     31                     32                     33
                      A                      A                      A
 Frequencies --   1262.6532              1304.4806              1311.8851
 Red. masses --      1.3762                 1.6240                 1.3366
 Frc consts  --      1.2927                 1.6282                 1.3553
 IR Inten    --      8.0799                 6.3950                 9.2938

                     34                     35                     36
                      A                      A                      A
 Frequencies --   1330.5014              1334.1052              1351.7442
 Red. masses --      1.4330                 1.2970                 1.3809
 Frc consts  --      1.4946                 1.3601                 1.4866
 IR Inten    --      4.5451                 4.1742                 5.5251

                     37                     38                     39
                      A                      A                      A
 Frequencies --   1395.3038              1413.8978              1461.0050
 Red. masses --      1.5591                 1.2320                 1.0846
 Frc consts  --      1.7884                 1.4511                 1.3640
 IR Inten    --      0.4747                 0.6544                 3.2285

                     40                     41                     42
                      A                      A                      A
 Frequencies --   1483.9341              1490.2281              1495.0300
 Red. masses --      1.0749                 1.0845                 1.0653
 Frc consts  --      1.3947                 1.4190                 1.4029
 IR Inten    --      0.0584                 1.5863                 0.4553

                     43                     44                     45
                      A                      A                      A
 Frequencies --   1500.3368              1510.9813              1665.1946
 Red. masses --      1.0401                 1.0844                11.1233
 Frc consts  --      1.3795                 1.4587                18.1725
 IR Inten    --      5.5102                 3.4774                13.3648

                     46                     47                     48
                      A                      A                      A
 Frequencies --   3006.1328              3012.4038              3021.0072
 Red. masses --      1.0787                 1.0610                 1.0650
 Frc consts  --      5.7432                 5.6727                 5.7267
 IR Inten    --      2.6944                 4.4359                30.4667

                     49                     50                     51
                      A                      A                      A
 Frequencies --   3029.9528              3041.6357              3045.6582
 Red. masses --      1.0371                 1.0630                 1.0882
 Frc consts  --      5.6100                 5.7942                 5.9475
 IR Inten    --     36.7661                30.4666                13.7721

                     52                     53                     54
                      A                      A                      A
 Frequencies --   3046.5663              3066.5876              3090.3778
 Red. masses --      1.0719                 1.1020                 1.0975
 Frc consts  --      5.8620                 6.1056                 6.1755
 IR Inten    --     11.1658                16.2599                18.8646

                     55                     56                     57
                      A                      A                      A
 Frequencies --   3097.0786              3101.9773              3104.7579
 Red. masses --      1.1022                 1.1026                 1.1007
 Frc consts  --      6.2292                 6.2512                 6.2516
 IR Inten    --     51.9485                24.5242                32.8254

 - Thermochemistry -
 -------------------
 Temperature   298.150 Kelvin.  Pressure   1.00000 Atm.
 Atom     1 has atomic number  6 and mass  12.00000

 Molecular mass:   120.09390 amu.
 Principal axes and moments of inertia in atomic units:
                           1         2         3
     Eigenvalues --   502.778821930.732582310.27746
           X            0.99964  -0.02666   0.00327
           Y            0.02663   0.99959   0.01010
           Z           -0.00353  -0.01001   0.99994
 This molecule is an asymmetric top.
 Rotational symmetry number  1.
 Warning -- assumption of classical behavior for rotation
           may cause significant error
 Rotational temperatures (Kelvin)      0.17227     0.04486     0.03749
 Rotational constants (GHZ):           3.58953     0.93474     0.78118
 Zero-point vibrational energy     476226.2 (Joules/Mol)
                                  113.82079 (Kcal/Mol)
 Warning -- explicit consideration of  12 degrees of freedom as
           vibrations may cause significant error
 Vibrational temperatures:     99.10   118.40   144.13   233.63   289.13
          (Kelvin)            353.91   419.37   488.67   516.26   617.85
                              789.51   890.59  1044.75  1093.49  1131.06
                             1219.66  1263.50  1289.66  1330.11  1345.53
                             1453.77  1496.61  1529.60  1594.40  1621.34
                             1679.03  1722.87  1772.00  1788.59  1803.50
                             1816.68  1876.86  1887.51  1914.29  1919.48
                             1944.86  2007.53  2034.28  2102.06  2135.05
                             2144.11  2151.01  2158.65  2173.97  2395.84
                             4325.15  4334.18  4346.56  4359.43  4376.24
                             4382.02  4383.33  4412.14  4446.36  4456.01
                             4463.05  4467.05

 Zero-point correction=                           0.181385 (Hartree/Particle)
 Thermal correction to Energy=                    0.190851
 Thermal correction to Enthalpy=                  0.191795
 Thermal correction to Gibbs Free Energy=         0.146543
 Sum of electronic and zero-point Energies=           -349.848778
 Sum of electronic and thermal Energies=              -349.839311
 Sum of electronic and thermal Enthalpies=            -349.838367
 Sum of electronic and thermal Free Energies=         -349.883619

                     E (Thermal)             CV                S
                      KCal/Mol        Cal/Mol-Kelvin    Cal/Mol-Kelvin
 Total                  119.761             34.504             95.241
 Electronic               0.000              0.000              0.000
 Translational            0.889              2.981             40.264
 Rotational               0.889              2.981             29.196
 Vibrational            117.983             28.543             25.781
 Vibration     1          0.598              1.969              4.185
 Vibration     2          0.600              1.961              3.835
 Vibration     3          0.604              1.949              3.451
 Vibration     4          0.622              1.889              2.522
 Vibration     5          0.638              1.839              2.124
 Vibration     6          0.660              1.769              1.759
 Vibration     7          0.687              1.690              1.465
 Vibration     8          0.720              1.596              1.214
 Vibration     9          0.734              1.557              1.127
 Vibration    10          0.791              1.406              0.861
 Vibration    11          0.904              1.142              0.547
 Vibration    12          0.979              0.992              0.418

 Optimization completed.
    -- Stationary point found.
 Normal termination of Gaussian 16 at Thu Aug  4 13:51:15 2022.
