 Gaussian 16, Revision A.03,
 Gaussian 16:  ES64L-G16RevA.03 25-Dec-2016

 -----------------------------
 # opt freq b3lyp/6-31g(2df,p)
 -----------------------------

 -------------------
 Title Card Required
 -------------------
 Symbolic Z-matrix:
 Charge =  0 Multiplicity = 1

 SCF Done:  E(RB3LYP) =  -313.023710793     A.U. after   16 cycles
 SCF Done:  E(RB3LYP) =  -313.079949989     A.U. after   13 cycles
 SCF Done:  E(RB3LYP) =  -313.155159603     A.U. after   12 cycles
 SCF Done:  E(RB3LYP) =  -313.178257088     A.U. after   11 cycles
 SCF Done:  E(RB3LYP) =  -313.203752610     A.U. after   11 cycles
 SCF Done:  E(RB3LYP) =  -313.224886197     A.U. after   11 cycles
 SCF Done:  E(RB3LYP) =  -313.240655875     A.U. after   10 cycles
 SCF Done:  E(RB3LYP) =  -313.249597107     A.U. after   11 cycles
 SCF Done:  E(RB3LYP) =  -313.250662701     A.U. after    9 cycles
 SCF Done:  E(RB3LYP) =  -313.250684603     A.U. after   10 cycles
 SCF Done:  E(RB3LYP) =  -313.250888012     A.U. after   10 cycles
 SCF Done:  E(RB3LYP) =  -313.250961192     A.U. after    8 cycles
 SCF Done:  E(RB3LYP) =  -313.250980367     A.U. after    8 cycles
 SCF Done:  E(RB3LYP) =  -313.250981857     A.U. after    7 cycles
 SCF Done:  E(RB3LYP) =  -313.250982179     A.U. after    6 cycles
 Optimization completed.
    -- Stationary point found.
 Normal termination of Gaussian 16 at Thu Aug  4 00:08:07 2022.

 ----------------------------------------------------------------------
 #N Geom=AllCheck Guess=TCheck SCRF=Check GenChk RB3LYP/6-31G(2df,p) Fr
 eq
 ----------------------------------------------------------------------

 Structure from the checkpoint file:  "CCCC12CCC1C2.chk"
 -------------------
 Title Card Required
 -------------------
 Charge =  0 Multiplicity = 1

                         Standard orientation:
 ---------------------------------------------------------------------
 Center     Atomic      Atomic             Coordinates (Angstroms)
 Number     Number       Type             X           Y           Z
 ---------------------------------------------------------------------
      1          6           0        3.379316   -0.183391   -0.224898
      2          6           0        1.972897    0.409694   -0.100198
      3          6           0        0.914859   -0.646936    0.240283
      4          6           0       -0.511669   -0.159944    0.281543
      5          6           0       -1.718595   -1.113851    0.345692
      6          6           0       -2.508866   -0.169175   -0.617910
      7          6           0       -1.302696    0.773102   -0.648803
      8          6           0       -0.953320    1.198617    0.754679
      9          1           0        4.118363    0.588359   -0.461779
     10          1           0        3.421919   -0.939969   -1.016285
     11          1           0        3.689384   -0.665935    0.708763
     12          1           0        1.700826    0.906579   -1.040488
     13          1           0        1.977793    1.189874    0.670338
     14          1           0        1.164355   -1.102301    1.210815
     15          1           0        0.982529   -1.462775   -0.494345
     16          1           0       -2.145698   -1.280733    1.340683
     17          1           0       -1.511677   -2.086762   -0.108460
     18          1           0       -3.441853    0.260165   -0.236313
     19          1           0       -2.715018   -0.642544   -1.580674
     20          1           0       -0.962484    1.338471   -1.509134
     21          1           0       -1.733781    1.296765    1.508025
     22          1           0       -0.176218    1.952107    0.826537
 ---------------------------------------------------------------------

 SCF Done:  E(RB3LYP) =  -313.250982179     A.U. after    1 cycles

 The electronic state is 1-A.
 Alpha  occ. eigenvalues --  -10.18734 -10.18088 -10.17783 -10.17689 -10.17670
 Alpha  occ. eigenvalues --  -10.17537 -10.17517 -10.17119  -0.88659  -0.78078
 Alpha  occ. eigenvalues --   -0.71845  -0.69449  -0.63320  -0.58969  -0.56597
 Alpha  occ. eigenvalues --   -0.51359  -0.48465  -0.45754  -0.44241  -0.43461
 Alpha  occ. eigenvalues --   -0.39658  -0.38630  -0.37903  -0.36821  -0.35961
 Alpha  occ. eigenvalues --   -0.33638  -0.32726  -0.32001  -0.29883  -0.26937
 Alpha  occ. eigenvalues --   -0.24196
 Alpha virt. eigenvalues --    0.09202   0.10768   0.11364   0.12296   0.13060
 Alpha virt. eigenvalues --    0.13167   0.13593   0.15434   0.16371   0.16989
 Alpha virt. eigenvalues --    0.17882   0.18807   0.19368   0.20915   0.21145

 Mulliken charges:
               1
     1  C   -0.378739
     2  C   -0.172323
     3  C   -0.294403
     4  C    0.382846
     5  C   -0.290489
     6  C   -0.217046
     7  C   -0.087040
     8  C   -0.320699
     9  H    0.109881
    10  H    0.113607
    11  H    0.113971
    12  H    0.097584
    13  H    0.099812
    14  H    0.094256
    15  H    0.090483
    16  H    0.089544
    17  H    0.097166
    18  H    0.091746
    19  H    0.098997
    20  H    0.078499
    21  H    0.095261
    22  H    0.107087
 Sum of Mulliken charges =   0.00000

 Dipole moment (field-independent basis, Debye):
    X=              0.3107    Y=             -0.0886    Z=             -0.1356  Tot=              0.3504
 Quadrupole moment (field-independent basis, Debye-Ang):
   XX=            -52.0276   YY=            -51.4070   ZZ=            -50.8043
   XY=              0.7645   XZ=             -0.0346   YZ=              0.2897

  Exact polarizability:  95.943   0.286  77.997   0.862   0.441  73.430
 Approx polarizability: 115.666  -1.255 116.220   2.105   0.173 114.046

                      1                      2                      3
                      A                      A                      A
 Frequencies --     68.7635                87.7627               155.0772
 Red. masses --      1.7745                 2.4466                 2.9218
 Frc consts  --      0.0049                 0.0111                 0.0414
 IR Inten    --      0.0149                 0.0167                 0.0166

                      4                      5                      6
                      A                      A                      A
 Frequencies --    215.5230               245.9757               312.5259
 Red. masses --      1.8589                 1.1014                 2.7492
 Frc consts  --      0.0509                 0.0393                 0.1582
 IR Inten    --      0.1908                 0.0115                 0.0758

                      7                      8                      9
                      A                      A                      A
 Frequencies --    354.5494               384.2051               451.0151
 Red. masses --      2.4795                 2.2581                 2.2244
 Frc consts  --      0.1836                 0.1964                 0.2666
 IR Inten    --      0.3693                 0.5358                 0.3668

                     10                     11                     12
                      A                      A                      A
 Frequencies --    653.1851               716.5947               747.0434
 Red. masses --      2.7310                 3.1363                 1.1388
 Frc consts  --      0.6865                 0.9489                 0.3745
 IR Inten    --      0.6329                 1.3779                 1.1877

                     13                     14                     15
                      A                      A                      A
 Frequencies --    786.8380               814.2497               867.4558
 Red. masses --      1.2500                 2.1034                 1.6910
 Frc consts  --      0.4560                 0.8217                 0.7497
 IR Inten    --      0.9042                 5.6732                 4.5370

                     16                     17                     18
                      A                      A                      A
 Frequencies --    897.9918               909.7281               930.4278
 Red. masses --      1.4298                 1.7886                 1.8495
 Frc consts  --      0.6793                 0.8722                 0.9433
 IR Inten    --      0.4517                 1.9848                 1.4039

                     19                     20                     21
                      A                      A                      A
 Frequencies --    958.8368               971.8126              1019.0826
 Red. masses --      2.3488                 1.5301                 1.3641
 Frc consts  --      1.2723                 0.8514                 0.8347
 IR Inten    --      1.2539                 0.5645                 0.5190

                     22                     23                     24
                      A                      A                      A
 Frequencies --   1025.5217              1053.9280              1072.5855
 Red. masses --      1.8001                 2.1305                 1.4256
 Frc consts  --      1.1154                 1.3943                 0.9663
 IR Inten    --      4.5919                 1.7128                 1.2976

                     25                     26                     27
                      A                      A                      A
 Frequencies --   1086.6269              1110.7705              1156.4713
 Red. masses --      1.5783                 1.7815                 1.9960
 Frc consts  --      1.0980                 1.2950                 1.5728
 IR Inten    --      1.1047                 0.8831                 1.3878

                     28                     29                     30
                      A                      A                      A
 Frequencies --   1159.3612              1201.6112              1222.2298
 Red. masses --      1.5520                 1.9127                 1.1871
 Frc consts  --      1.2291                 1.6271                 1.0448
 IR Inten    --      0.1976                 4.8264                 0.0806

                     31                     32                     33
                      A                      A                      A
 Frequencies --   1240.8388              1272.2410              1273.9310
 Red. masses --      1.5756                 1.5382                 1.5413
 Frc consts  --      1.4293                 1.4669                 1.4738
 IR Inten    --      0.4848                 0.6915                 3.6807

                     34                     35                     36
                      A                      A                      A
 Frequencies --   1285.8953              1328.3327              1331.4255
 Red. masses --      1.5358                 1.2217                 1.3575
 Frc consts  --      1.4963                 1.2701                 1.4179
 IR Inten    --      4.2232                 1.4491                 0.5839

                     37                     38                     39
                      A                      A                      A
 Frequencies --   1393.8207              1405.4850              1412.5948
 Red. masses --      1.7634                 2.1510                 1.2412
 Frc consts  --      2.0185                 2.5035                 1.4593
 IR Inten    --      2.0375                 0.5090                 0.7217

                     40                     41                     42
                      A                      A                      A
 Frequencies --   1480.8405              1485.3076              1486.1078
 Red. masses --      1.0952                 1.0879                 1.1797
 Frc consts  --      1.4150                 1.4140                 1.5351
 IR Inten    --      0.5261                 0.9760                 3.4759

                     43                     44                     45
                      A                      A                      A
 Frequencies --   1494.6280              1499.5962              1509.8839
 Red. masses --      1.0613                 1.0405                 1.1228
 Frc consts  --      1.3968                 1.3786                 1.5082
 IR Inten    --      0.6304                 5.3132                 2.3793

                     46                     47                     48
                      A                      A                      A
 Frequencies --   1514.6875              2987.4798              3013.4365
 Red. masses --      1.1976                 1.0587                 1.0991
 Frc consts  --      1.6188                 5.5670                 5.8803
 IR Inten    --      1.5547                30.8919                17.1645

                     49                     50                     51
                      A                      A                      A
 Frequencies --   3021.4111              3028.5809              3034.1450
 Red. masses --      1.0601                 1.0356                 1.0603
 Frc consts  --      5.7018                 5.5967                 5.7512
 IR Inten    --     24.4586                40.0028                54.6377

                     52                     53                     54
                      A                      A                      A
 Frequencies --   3042.8204              3057.3483              3084.8853
 Red. masses --      1.0634                 1.1016                 1.1038
 Frc consts  --      5.8010                 6.0667                 6.1890
 IR Inten    --     68.7120                16.1682                 3.2773

                     55                     56                     57
                      A                      A                      A
 Frequencies --   3093.8301              3096.0491              3100.8186
 Red. masses --      1.0633                 1.0996                 1.1009
 Frc consts  --      5.9963                 6.2104                 6.2368
 IR Inten    --     12.1374                59.9860                35.0460

                     58                     59                     60
                      A                      A                      A
 Frequencies --   3105.0825              3168.8617              3197.7217
 Red. masses --      1.1027                 1.0928                 1.1077
 Frc consts  --      6.2643                 6.4654                 6.6732
 IR Inten    --     53.8970                18.1113                17.5549

 - Thermochemistry -
 -------------------
 Temperature   298.150 Kelvin.  Pressure   1.00000 Atm.
 Atom     1 has atomic number  6 and mass  12.00000

 Molecular mass:   110.10955 amu.
 Principal axes and moments of inertia in atomic units:
                           1         2         3
     Eigenvalues --   369.774141628.735831748.77774
           X            0.99999   0.00221  -0.00307
           Y           -0.00217   0.99990   0.01374
           Z            0.00310  -0.01374   0.99990
 This molecule is an asymmetric top.
 Rotational symmetry number  1.
 Rotational temperatures (Kelvin)      0.23423     0.05318     0.04953
 Rotational constants (GHZ):           4.88066     1.10806     1.03200
 Zero-point vibrational energy     526870.3 (Joules/Mol)
                                  125.92503 (Kcal/Mol)
 Warning -- explicit consideration of   9 degrees of freedom as
           vibrations may cause significant error
 Vibrational temperatures:     98.94   126.27   223.12   310.09   353.90
          (Kelvin)            449.66   510.12   552.79   648.91   939.79
                             1031.02  1074.83  1132.08  1171.52  1248.08
                             1292.01  1308.90  1338.68  1379.55  1398.22
                             1466.23  1475.50  1516.37  1543.21  1563.41
                             1598.15  1663.90  1668.06  1728.85  1758.52
                             1785.29  1830.47  1832.90  1850.12  1911.17
                             1915.62  2005.40  2022.18  2032.41  2130.60
                             2137.03  2138.18  2150.44  2157.58  2172.39
                             2179.30  4298.32  4335.66  4347.14  4357.45
                             4365.46  4377.94  4398.84  4438.46  4451.33
                             4454.52  4461.39  4467.52  4559.29  4600.81

 Zero-point correction=                           0.200674 (Hartree/Particle)
 Thermal correction to Energy=                    0.209240
 Thermal correction to Enthalpy=                  0.210184
 Thermal correction to Gibbs Free Energy=         0.167399
 Sum of electronic and zero-point Energies=           -313.050308
 Sum of electronic and thermal Energies=              -313.041743
 Sum of electronic and thermal Enthalpies=            -313.040798
 Sum of electronic and thermal Free Energies=         -313.083583

                     E (Thermal)             CV                S
                      KCal/Mol        Cal/Mol-Kelvin    Cal/Mol-Kelvin
 Total                  131.300             32.573             90.047
 Electronic               0.000              0.000              0.000
 Translational            0.889              2.981             40.005
 Rotational               0.889              2.981             28.445
 Vibrational            129.522             26.612             21.597
 Vibration     1          0.598              1.969              4.188
 Vibration     2          0.601              1.958              3.709
 Vibration     3          0.620              1.897              2.609
 Vibration     4          0.645              1.817              1.996
 Vibration     5          0.660              1.769              1.759
 Vibration     6          0.701              1.650              1.349
 Vibration     7          0.730              1.566              1.146
 Vibration     8          0.753              1.504              1.023
 Vibration     9          0.810              1.359              0.793

                           ! Non-Optimized Parameters !
 Normal termination of Gaussian 16 at Thu Aug  4 00:36:46 2022.
