 Gaussian 16, Revision A.03,
 Gaussian 16:  ES64L-G16RevA.03 25-Dec-2016

 -----------------------------
 # opt freq b3lyp/6-31g(2df,p)
 -----------------------------

 -------------------
 Title Card Required
 -------------------
 Symbolic Z-matrix:
 Charge =  0 Multiplicity = 1

 SCF Done:  E(RB3LYP) =  -350.968055107     A.U. after   19 cycles
 SCF Done:  E(RB3LYP) =  -351.091468428     A.U. after   15 cycles
 SCF Done:  E(RB3LYP) =  -351.207864792     A.U. after   14 cycles
 SCF Done:  E(RB3LYP) =  -351.308414105     A.U. after   12 cycles
 SCF Done:  E(RB3LYP) =  -351.366300830     A.U. after   12 cycles
 SCF Done:  E(RB3LYP) =  -351.385654997     A.U. after   12 cycles
 SCF Done:  E(RB3LYP) =  -351.389242407     A.U. after   11 cycles
 SCF Done:  E(RB3LYP) =  -351.391120835     A.U. after   11 cycles
 SCF Done:  E(RB3LYP) =  -351.391834741     A.U. after   11 cycles
 SCF Done:  E(RB3LYP) =  -351.392035530     A.U. after   10 cycles
 SCF Done:  E(RB3LYP) =  -351.392155061     A.U. after   10 cycles
 SCF Done:  E(RB3LYP) =  -351.392231360     A.U. after    9 cycles
 SCF Done:  E(RB3LYP) =  -351.392290531     A.U. after    9 cycles
 SCF Done:  E(RB3LYP) =  -351.392305055     A.U. after    9 cycles
 SCF Done:  E(RB3LYP) =  -351.392306077     A.U. after    8 cycles
 SCF Done:  E(RB3LYP) =  -351.392306300     A.U. after    7 cycles
 Optimization completed.
    -- Stationary point found.
 Normal termination of Gaussian 16 at Thu Aug  4 02:36:53 2022.

 ----------------------------------------------------------------------
 #N Geom=AllCheck Guess=TCheck SCRF=Check GenChk RB3LYP/6-31G(2df,p) Fr
 eq
 ----------------------------------------------------------------------

 Structure from the checkpoint file:  "CCCC1dCC2CCC12.chk"
 -------------------
 Title Card Required
 -------------------
 Charge =  0 Multiplicity = 1

                         Standard orientation:
 ---------------------------------------------------------------------
 Center     Atomic      Atomic             Coordinates (Angstroms)
 Number     Number       Type             X           Y           Z
 ---------------------------------------------------------------------
      1          6           0       -3.791883    0.080086   -0.281686
      2          6           0       -2.287151    0.221322   -0.522984
      3          6           0       -1.438622   -0.422256    0.589874
      4          6           0        0.046072   -0.254299    0.384726
      5          6           0        0.618839    1.095214    0.523980
      6          6           0        1.851460    1.384108    0.090809
      7          6           0        2.687944    0.329024   -0.591368
      8          6           0        2.351792   -1.076084   -0.066436
      9          6           0        0.863573   -1.277232    0.091628
     10          1           0       -4.370608    0.539644   -1.089093
     11          1           0       -4.089831    0.560728    0.657047
     12          1           0       -4.086301   -0.973640   -0.219167
     13          1           0       -2.025126    1.282956   -0.612174
     14          1           0       -2.016753   -0.238449   -1.481528
     15          1           0       -1.682368   -1.489035    0.658302
     16          1           0       -1.726330    0.025491    1.552757
     17          1           0        0.000574    1.863972    0.980834
     18          1           0        2.248979    2.391320    0.175291
     19          1           0        3.755836    0.534708   -0.464505
     20          1           0        2.496668    0.375953   -1.676021
     21          1           0        2.835221   -1.227708    0.913019
     22          1           0        2.776284   -1.836242   -0.730610
     23          1           0        0.471614   -2.289001    0.024585
 ---------------------------------------------------------------------

 SCF Done:  E(RB3LYP) =  -351.392306300     A.U. after    1 cycles

 The electronic state is 1-A.
 Alpha  occ. eigenvalues --  -10.18096 -10.17992 -10.17740 -10.17705 -10.17681
 Alpha  occ. eigenvalues --  -10.17637 -10.17307 -10.17035 -10.17007  -0.83627
 Alpha  occ. eigenvalues --   -0.78530  -0.73705  -0.73287  -0.66994  -0.60860
 Alpha  occ. eigenvalues --   -0.58428  -0.56928  -0.49043  -0.47229  -0.45778
 Alpha  occ. eigenvalues --   -0.43582  -0.41819  -0.41279  -0.40222  -0.38698
 Alpha  occ. eigenvalues --   -0.36875  -0.36033  -0.35529  -0.33751  -0.32761
 Alpha  occ. eigenvalues --   -0.31418  -0.30505  -0.28544  -0.20246
 Alpha virt. eigenvalues --   -0.01380   0.08048   0.09651   0.10723   0.12751
 Alpha virt. eigenvalues --    0.13991   0.14667   0.15007   0.15889   0.15928
 Alpha virt. eigenvalues --    0.17265   0.18272   0.18706   0.20051   0.20615

 Mulliken charges:
               1
     1  C   -0.377413
     2  C   -0.152749
     3  C   -0.296969
     4  C    0.331627
     5  C   -0.114110
     6  C   -0.078898
     7  C   -0.256461
     8  C   -0.248616
     9  C   -0.190191
    10  H    0.110719
    11  H    0.112449
    12  H    0.113171
    13  H    0.099363
    14  H    0.098510
    15  H    0.093976
    16  H    0.095650
    17  H    0.079540
    18  H    0.087680
    19  H    0.099815
    20  H    0.108261
    21  H    0.106925
    22  H    0.099466
    23  H    0.078254
 Sum of Mulliken charges =  -0.00000

 Dipole moment (field-independent basis, Debye):
    X=              0.1506    Y=             -0.0037    Z=             -0.1474  Tot=              0.2108
 Quadrupole moment (field-independent basis, Debye-Ang):
   XX=            -54.3670   YY=            -54.6707   ZZ=            -57.4355
   XY=             -0.0048   XZ=             -0.9800   YZ=              0.7237

  Exact polarizability: 120.797  -0.624  95.401  -7.396   2.207  69.904
 Approx polarizability: 155.421  -1.358 151.773 -14.146   5.222 108.885

                      1                      2                      3
                      A                      A                      A
 Frequencies --     70.2932                84.6377                92.5984
 Red. masses --      2.7662                 1.8383                 2.7377
 Frc consts  --      0.0081                 0.0078                 0.0138
 IR Inten    --      0.1031                 0.0181                 0.2025

                      4                      5                      6
                      A                      A                      A
 Frequencies --    189.5981               243.5996               282.3138
 Red. masses --      2.1046                 1.1238                 2.0978
 Frc consts  --      0.0446                 0.0393                 0.0985
 IR Inten    --      0.4703                 0.0492                 0.6491

                      7                      8                      9
                      A                      A                      A
 Frequencies --    301.3765               343.3086               359.0219
 Red. masses --      2.8908                 2.3093                 3.0763
 Frc consts  --      0.1547                 0.1604                 0.2336
 IR Inten    --      0.3656                 0.8518                 1.2459

                     10                     11                     12
                      A                      A                      A
 Frequencies --    486.2759               565.0402               601.3039
 Red. masses --      2.9839                 3.4384                 2.3339
 Frc consts  --      0.4157                 0.6468                 0.4972
 IR Inten    --      2.4726                 3.2577                 9.3531

                     13                     14                     15
                      A                      A                      A
 Frequencies --    710.4825               746.4226               762.7015
 Red. masses --      2.2016                 1.1043                 1.9535
 Frc consts  --      0.6548                 0.3625                 0.6695
 IR Inten    --      2.6109                 1.8884                15.3379

                     16                     17                     18
                      A                      A                      A
 Frequencies --    813.9709               833.9248               866.6059
 Red. masses --      1.5385                 1.8454                 1.7080
 Frc consts  --      0.6006                 0.7561                 0.7557
 IR Inten    --      1.2766                 7.3934                 0.5101

                     19                     20                     21
                      A                      A                      A
 Frequencies --    887.7470               906.2331               955.8314
 Red. masses --      1.6332                 1.9045                 2.2098
 Frc consts  --      0.7583                 0.9215                 1.1895
 IR Inten    --      0.7055                 0.5970                 6.7056

                     22                     23                     24
                      A                      A                      A
 Frequencies --    979.0257               996.2000              1043.5736
 Red. masses --      1.9345                 1.6080                 2.6931
 Frc consts  --      1.0925                 0.9402                 1.7280
 IR Inten    --      1.5355                 0.3220                 0.2859

                     25                     26                     27
                      A                      A                      A
 Frequencies --   1044.2246              1074.4336              1109.2933
 Red. masses --      2.1836                 1.5655                 2.1107
 Frc consts  --      1.4028                 1.0648                 1.5303
 IR Inten    --      1.8862                 0.4497                 5.5956

                     28                     29                     30
                      A                      A                      A
 Frequencies --   1121.3367              1178.5870              1186.9077
 Red. masses --      1.5710                 1.5047                 1.1715
 Frc consts  --      1.1638                 1.2315                 0.9724
 IR Inten    --      3.4810                 1.5795                 4.4549

                     31                     32                     33
                      A                      A                      A
 Frequencies --   1197.7028              1252.9341              1266.2021
 Red. masses --      1.3754                 1.3748                 1.2873
 Frc consts  --      1.1625                 1.2716                 1.2160
 IR Inten    --      2.4274                 0.0983                 3.3965

                     34                     35                     36
                      A                      A                      A
 Frequencies --   1307.1306              1318.3082              1338.4251
 Red. masses --      1.4235                 1.1652                 1.2380
 Frc consts  --      1.4330                 1.1931                 1.3066
 IR Inten    --      4.5028                 0.2457                 2.0803

                     37                     38                     39
                      A                      A                      A
 Frequencies --   1359.3843              1379.4261              1384.3670
 Red. masses --      1.5216                 1.5881                 1.5251
 Frc consts  --      1.6567                 1.7804                 1.7221
 IR Inten    --      4.2692                 1.6182                 1.1489

                     40                     41                     42
                      A                      A                      A
 Frequencies --   1411.2610              1431.6579              1467.9675
 Red. masses --      1.2352                 1.7396                 1.0798
 Frc consts  --      1.4494                 2.1008                 1.3710
 IR Inten    --      0.3292                 0.6230                 2.1897

                     43                     44                     45
                      A                      A                      A
 Frequencies --   1478.8149              1480.1260              1492.5453
 Red. masses --      1.0862                 1.1068                 1.0584
 Frc consts  --      1.3996                 1.4286                 1.3892
 IR Inten    --      1.2848                 1.4612                 0.2968

                     46                     47                     48
                      A                      A                      A
 Frequencies --   1499.0654              1509.6879              1656.6133
 Red. masses --      1.0408                 1.0820                 7.2852
 Frc consts  --      1.3780                 1.4530                11.7796
 IR Inten    --      5.1183                 3.2799                 0.9132

                     49                     50                     51
                      A                      A                      A
 Frequencies --   1719.8525              2965.3135              2977.8952
 Red. masses --      6.5184                 1.0737                 1.0696
 Frc consts  --     11.3600                 5.5626                 5.5885
 IR Inten    --      2.8502                22.1462                53.8571

                     52                     53                     54
                      A                      A                      A
 Frequencies --   2996.8430              3025.2568              3027.7385
 Red. masses --      1.0646                 1.0560                 1.0399
 Frc consts  --      5.6332                 5.6941                 5.6167
 IR Inten    --     23.0524                13.5199                50.8658

                     55                     56                     57
                      A                      A                      A
 Frequencies --   3045.5032              3062.4176              3064.9468
 Red. masses --      1.0946                 1.0886                 1.0883
 Frc consts  --      5.9818                 6.0151                 6.0234
 IR Inten    --      6.4412                30.6585                37.0425

                     58                     59                     60
                      A                      A                      A
 Frequencies --   3065.1342              3094.9020              3100.1115
 Red. masses --      1.1013                 1.1024                 1.1008
 Frc consts  --      6.0963                 6.2215                 6.2333
 IR Inten    --     17.2183                55.5726                35.8188

                     61                     62                     63
                      A                      A                      A
 Frequencies --   3149.4949              3155.1132              3175.6253
 Red. masses --      1.0840                 1.0899                 1.0968
 Frc consts  --      6.3352                 6.3923                 6.5170
 IR Inten    --      9.1175                21.3084                24.9776

 - Thermochemistry -
 -------------------
 Temperature   298.150 Kelvin.  Pressure   1.00000 Atm.
 Atom     1 has atomic number  6 and mass  12.00000

 Molecular mass:   122.10955 amu.
 Principal axes and moments of inertia in atomic units:
                           1         2         3
     Eigenvalues --   469.993602167.241952419.58188
           X            0.99999  -0.00342  -0.00273
           Y            0.00342   0.99999   0.00231
           Z            0.00272  -0.00232   0.99999
 This molecule is an asymmetric top.
 Rotational symmetry number  1.
 Warning -- assumption of classical behavior for rotation
           may cause significant error
 Rotational temperatures (Kelvin)      0.18429     0.03997     0.03580
 Rotational constants (GHZ):           3.83993     0.83274     0.74589
 Zero-point vibrational energy     542474.4 (Joules/Mol)
                                  129.65449 (Kcal/Mol)
 Warning -- explicit consideration of  12 degrees of freedom as
           vibrations may cause significant error
 Vibrational temperatures:    101.14   121.77   133.23   272.79   350.49
          (Kelvin)            406.19   433.61   493.94   516.55   699.64
                              812.97   865.14  1022.23  1073.94  1097.36
                             1171.12  1199.83  1246.85  1277.27  1303.87
                             1375.23  1408.60  1433.31  1501.47  1502.41
                             1545.87  1596.03  1613.35  1695.72  1707.70
                             1723.23  1802.69  1821.78  1880.67  1896.75
                             1925.70  1955.85  1984.69  1991.80  2030.49
                             2059.84  2112.08  2127.68  2129.57  2147.44
                             2156.82  2172.10  2383.50  2474.48  4266.42
                             4284.53  4311.79  4352.67  4356.24  4381.80
                             4406.14  4409.77  4410.04  4452.87  4460.37
                             4531.42  4539.50  4569.02

 Zero-point correction=                           0.206618 (Hartree/Particle)
 Thermal correction to Energy=                    0.216034
 Thermal correction to Enthalpy=                  0.216978
 Thermal correction to Gibbs Free Energy=         0.171956
 Sum of electronic and zero-point Energies=           -351.185689
 Sum of electronic and thermal Energies=              -351.176272
 Sum of electronic and thermal Enthalpies=            -351.175328
 Sum of electronic and thermal Free Energies=         -351.220350

                     E (Thermal)             CV                S
                      KCal/Mol        Cal/Mol-Kelvin    Cal/Mol-Kelvin
 Total                  135.564             35.652             94.757
 Electronic               0.000              0.000              0.000
 Translational            0.889              2.981             40.313
 Rotational               0.889              2.981             29.290
 Vibrational            133.786             29.690             25.154
 Vibration     1          0.598              1.968              4.145
 Vibration     2          0.601              1.960              3.780
 Vibration     3          0.602              1.954              3.604
 Vibration     4          0.633              1.854              2.232
 Vibration     5          0.659              1.773              1.776
 Vibration     6          0.681              1.706              1.520
 Vibration     7          0.693              1.671              1.409
 Vibration     8          0.722              1.589              1.197
 Vibration     9          0.734              1.557              1.126
 Vibration    10          0.842              1.280              0.693
 Vibration    11          0.921              1.107              0.514
 Vibration    12          0.960              1.029              0.447

 Optimization completed.
    -- Stationary point found.
 Normal termination of Gaussian 16 at Thu Aug  4 03:09:33 2022.
