 Gaussian 16, Revision A.03,
 Gaussian 16:  ES64L-G16RevA.03 25-Dec-2016

 -----------------------------
 # opt freq b3lyp/6-31g(2df,p)
 -----------------------------

 -------------------
 Title Card Required
 -------------------
 Symbolic Z-matrix:
 Charge =  0 Multiplicity = 1

 SCF Done:  E(RB3LYP) =  -424.339292355     A.U. after   13 cycles
 SCF Done:  E(RB3LYP) =  -424.351928511     A.U. after   12 cycles
 SCF Done:  E(RB3LYP) =  -424.353511082     A.U. after   11 cycles
 SCF Done:  E(RB3LYP) =  -424.354712882     A.U. after   11 cycles
 SCF Done:  E(RB3LYP) =  -424.355748347     A.U. after   11 cycles
 SCF Done:  E(RB3LYP) =  -424.356356897     A.U. after   10 cycles
 SCF Done:  E(RB3LYP) =  -424.356801045     A.U. after   10 cycles
 SCF Done:  E(RB3LYP) =  -424.356886381     A.U. after    9 cycles
 SCF Done:  E(RB3LYP) =  -424.356975047     A.U. after   10 cycles
 SCF Done:  E(RB3LYP) =  -424.357007961     A.U. after    9 cycles
 SCF Done:  E(RB3LYP) =  -424.357059892     A.U. after    8 cycles
 SCF Done:  E(RB3LYP) =  -424.357070642     A.U. after    9 cycles
 SCF Done:  E(RB3LYP) =  -424.357072005     A.U. after    8 cycles
 SCF Done:  E(RB3LYP) =  -424.357072784     A.U. after    8 cycles
 SCF Done:  E(RB3LYP) =  -424.357073303     A.U. after    7 cycles
 SCF Done:  E(RB3LYP) =  -424.357073748     A.U. after    7 cycles
 SCF Done:  E(RB3LYP) =  -424.357073897     A.U. after    7 cycles
 SCF Done:  E(RB3LYP) =  -424.357073945     A.U. after    6 cycles
 SCF Done:  E(RB3LYP) =  -424.357073961     A.U. after    6 cycles
 Optimization completed.
    -- Stationary point found.
 Normal termination of Gaussian 16 at Thu Aug  4 07:22:16 2022.

 ----------------------------------------------------------------------
 #N Geom=AllCheck Guess=TCheck SCRF=Check GenChk RB3LYP/6-31G(2df,p) Fr
 eq
 ----------------------------------------------------------------------

 Structure from the checkpoint file:  "CCCC1OC12CC2O.chk"
 -------------------
 Title Card Required
 -------------------
 Charge =  0 Multiplicity = 1

                         Standard orientation:
 ---------------------------------------------------------------------
 Center     Atomic      Atomic             Coordinates (Angstroms)
 Number     Number       Type             X           Y           Z
 ---------------------------------------------------------------------
      1          6           0       -3.330159    0.773928   -0.133768
      2          6           0       -1.832561    0.483231   -0.007121
      3          6           0       -1.506178   -0.996807   -0.231521
      4          6           0       -0.068244   -1.401620    0.003740
      5          8           0        0.613698   -0.844949    1.167140
      6          6           0        1.087047   -0.533413   -0.129506
      7          6           0        2.493056   -0.428972   -0.586494
      8          6           0        1.556589    0.796738   -0.557837
      9          8           0        1.731469    1.773290    0.421537
     10          1           0       -3.542176    1.834815    0.029599
     11          1           0       -3.909305    0.201541    0.599424
     12          1           0       -3.705189    0.509374   -1.128935
     13          1           0       -1.479264    0.774423    0.987749
     14          1           0       -1.278465    1.097657   -0.724706
     15          1           0       -1.770475   -1.293780   -1.256272
     16          1           0       -2.134799   -1.612111    0.427158
     17          1           0        0.118536   -2.471669   -0.107238
     18          1           0        2.773393   -0.840000   -1.551678
     19          1           0        3.263671   -0.461459    0.177675
     20          1           0        1.243487    1.206267   -1.515690
     21          1           0        1.261963    1.469702    1.208546
 ---------------------------------------------------------------------

 SCF Done:  E(RB3LYP) =  -424.357073961     A.U. after    1 cycles

 The electronic state is 1-A.
 Alpha  occ. eigenvalues --  -19.15809 -19.14071 -10.24703 -10.24260 -10.23884
 Alpha  occ. eigenvalues --  -10.19225 -10.18656 -10.18364 -10.17661  -1.07656
 Alpha  occ. eigenvalues --   -1.02510  -0.83638  -0.79674  -0.72069  -0.63640
 Alpha  occ. eigenvalues --   -0.61095  -0.59635  -0.56849  -0.51127  -0.49563
 Alpha  occ. eigenvalues --   -0.47683  -0.46548  -0.42843  -0.41381  -0.40293
 Alpha  occ. eigenvalues --   -0.39442  -0.38301  -0.36488  -0.35272  -0.34246
 Alpha  occ. eigenvalues --   -0.33560  -0.31447  -0.30655  -0.25275  -0.24854
 Alpha virt. eigenvalues --    0.06620   0.08105   0.09283   0.10813   0.11998
 Alpha virt. eigenvalues --    0.13063   0.13694   0.14889   0.15591   0.16950
 Alpha virt. eigenvalues --    0.17560   0.18386   0.18971   0.19498   0.21614

 Mulliken charges:
               1
     1  C   -0.385567
     2  C   -0.171971
     3  C   -0.217743
     4  C   -0.044843
     5  O   -0.295028
     6  C    0.385008
     7  C   -0.411897
     8  C    0.047981
     9  O   -0.435285
    10  H    0.115796
    11  H    0.115774
    12  H    0.113308
    13  H    0.109545
    14  H    0.107757
    15  H    0.106634
    16  H    0.109893
    17  H    0.099005
    18  H    0.118227
    19  H    0.132447
    20  H    0.101855
    21  H    0.299104
 Sum of Mulliken charges =  -0.00000

 Dipole moment (field-independent basis, Debye):
    X=             -1.3213    Y=             -1.2754    Z=             -1.2850  Tot=              2.2414
 Quadrupole moment (field-independent basis, Debye-Ang):
   XX=            -55.3876   YY=            -56.7636   ZZ=            -53.6569
   XY=             -2.3991   XZ=             -1.2950   YZ=              1.8762

  Exact polarizability:  93.878   0.807  77.224  -2.813   1.257  67.762
 Approx polarizability: 114.914   5.522 111.729  -3.490   1.114 109.740

                      1                      2                      3
                      A                      A                      A
 Frequencies --     42.0687                85.8763                88.3583
 Red. masses --      1.6514                 3.1519                 4.3731
 Frc consts  --      0.0017                 0.0137                 0.0201
 IR Inten    --      0.0760                 1.3522                 0.5870

                      4                      5                      6
                      A                      A                      A
 Frequencies --    166.9186               204.6049               217.8627
 Red. masses --      4.4552                 3.1730                 3.4142
 Frc consts  --      0.0731                 0.0783                 0.0955
 IR Inten    --      4.9728                 5.7295                 0.7556

                      7                      8                      9
                      A                      A                      A
 Frequencies --    246.8215               274.2235               323.3797
 Red. masses --      1.1041                 1.1862                 3.0658
 Frc consts  --      0.0396                 0.0526                 0.1889
 IR Inten    --      1.1558                62.4627                 0.4524

                     10                     11                     12
                      A                      A                      A
 Frequencies --    404.5346               453.5266               533.7322
 Red. masses --      2.1120                 2.6909                 3.2190
 Frc consts  --      0.2036                 0.3261                 0.5403
 IR Inten    --      8.4479                 3.3804                 5.6599

                     13                     14                     15
                      A                      A                      A
 Frequencies --    633.2778               652.1096               743.9269
 Red. masses --      4.6583                 4.3550                 1.1612
 Frc consts  --      1.1007                 1.0911                 0.3786
 IR Inten    --      9.4702                17.4262                 0.9813

                     16                     17                     18
                      A                      A                      A
 Frequencies --    772.9489               797.5460               862.9238
 Red. masses --      2.9386                 2.1368                 1.4373
 Frc consts  --      1.0344                 0.8008                 0.6306
 IR Inten    --      8.3601                 6.9198                14.6361

                     19                     20                     21
                      A                      A                      A
 Frequencies --    877.2640               914.5615               969.5698
 Red. masses --      1.8847                 2.2042                 1.9893
 Frc consts  --      0.8546                 1.0862                 1.1018
 IR Inten    --      2.5295                35.5692                15.8339

                     22                     23                     24
                      A                      A                      A
 Frequencies --    994.6219              1020.1210              1047.4661
 Red. masses --      2.2612                 1.3823                 2.8941
 Frc consts  --      1.3180                 0.8475                 1.8709
 IR Inten    --      6.6164                19.8860                 2.5626

                     25                     26                     27
                      A                      A                      A
 Frequencies --   1081.9847              1103.9399              1113.0820
 Red. masses --      1.5831                 1.6715                 1.9611
 Frc consts  --      1.0919                 1.2002                 1.4316
 IR Inten    --      8.9715                33.2447                24.9121

                     28                     29                     30
                      A                      A                      A
 Frequencies --   1121.6074              1128.1305              1170.7248
 Red. masses --      1.7667                 2.2433                 2.3907
 Frc consts  --      1.3095                 1.6821                 1.9306
 IR Inten    --     17.2785                13.0988                36.9313

                     31                     32                     33
                      A                      A                      A
 Frequencies --   1206.4911              1270.3038              1313.2079
 Red. masses --      1.8020                 1.3197                 1.4638
 Frc consts  --      1.5454                 1.2547                 1.4873
 IR Inten    --      4.6282                 2.2204                 1.2656

                     34                     35                     36
                      A                      A                      A
 Frequencies --   1323.1621              1332.0325              1356.1406
 Red. masses --      1.3764                 1.1351                 1.2577
 Frc consts  --      1.4197                 1.1867                 1.3628
 IR Inten    --      3.2650                 0.4498                37.7199

                     37                     38                     39
                      A                      A                      A
 Frequencies --   1394.5462              1410.8234              1416.0766
 Red. masses --      1.4509                 1.3133                 1.2393
 Frc consts  --      1.6625                 1.5401                 1.4642
 IR Inten    --     39.5075                10.4922                 1.7023

                     40                     41                     42
                      A                      A                      A
 Frequencies --   1441.9660              1475.7191              1493.5840
 Red. masses --      1.2328                 1.0815                 1.0522
 Frc consts  --      1.5103                 1.3876                 1.3830
 IR Inten    --     11.6031                 1.8315                 2.0960

                     43                     44                     45
                      A                      A                      A
 Frequencies --   1500.5239              1510.2201              1609.5683
 Red. masses --      1.0404                 1.0839                 7.9292
 Frc consts  --      1.3802                 1.4565                12.1032
 IR Inten    --      5.7261                 3.1290                14.9308

                     46                     47                     48
                      A                      A                      A
 Frequencies --   3008.0192              3028.8651              3037.5116
 Red. masses --      1.0591                 1.0363                 1.0995
 Frc consts  --      5.6460                 5.6016                 5.9768
 IR Inten    --     18.5631                28.9012                12.6495

                     49                     50                     51
                      A                      A                      A
 Frequencies --   3046.2793              3076.3150              3092.2541
 Red. masses --      1.0596                 1.1014                 1.0871
 Frc consts  --      5.7932                 6.1413                 6.1245
 IR Inten    --     27.4145                 0.2511                37.0106

                     52                     53                     54
                      A                      A                      A
 Frequencies --   3101.3257              3104.7644              3120.2748
 Red. masses --      1.1033                 1.1006                 1.0539
 Frc consts  --      6.2524                 6.2506                 6.0457
 IR Inten    --     50.5690                31.0565                 7.1673

                     55                     56                     57
                      A                      A                      A
 Frequencies --   3127.9388              3214.5582              3773.2693
 Red. masses --      1.0885                 1.1166                 1.0662
 Frc consts  --      6.2747                 6.7982                 8.9440
 IR Inten    --     24.7501                 4.7740                27.0908

 - Thermochemistry -
 -------------------
 Temperature   298.150 Kelvin.  Pressure   1.00000 Atm.
 Atom     1 has atomic number  6 and mass  12.00000

 Molecular mass:   128.08373 amu.
 Principal axes and moments of inertia in atomic units:
                           1         2         3
     Eigenvalues --   662.499771756.156452099.84262
           X            0.99975  -0.02188  -0.00373
           Y            0.02195   0.99956   0.02013
           Z            0.00328  -0.02021   0.99979
 This molecule is an asymmetric top.
 Rotational symmetry number  1.
 Warning -- assumption of classical behavior for rotation
           may cause significant error
 Rotational temperatures (Kelvin)      0.13074     0.04932     0.04125
 Rotational constants (GHZ):           2.72414     1.02767     0.85946
 Zero-point vibrational energy     471528.8 (Joules/Mol)
                                  112.69808 (Kcal/Mol)
 Warning -- explicit consideration of  12 degrees of freedom as
           vibrations may cause significant error
 Vibrational temperatures:     60.53   123.56   127.13   240.16   294.38
          (Kelvin)            313.46   355.12   394.55   465.27   582.04
                              652.52   767.92   911.15   938.24  1070.34
                             1112.10  1147.49  1241.55  1262.19  1315.85
                             1394.99  1431.04  1467.73  1507.07  1556.73
                             1588.32  1601.48  1613.74  1623.13  1684.41
                             1735.87  1827.68  1889.41  1903.74  1916.50
                             1951.18  2006.44  2029.86  2037.42  2074.67
                             2123.23  2148.93  2158.92  2172.87  2315.81
                             4327.87  4357.86  4370.30  4382.92  4426.13
                             4449.06  4462.12  4467.06  4489.38  4500.41
                             4625.03  5428.89

 Zero-point correction=                           0.179596 (Hartree/Particle)
 Thermal correction to Energy=                    0.189715
 Thermal correction to Enthalpy=                  0.190659
 Thermal correction to Gibbs Free Energy=         0.143755
 Sum of electronic and zero-point Energies=           -424.177478
 Sum of electronic and thermal Energies=              -424.167359
 Sum of electronic and thermal Enthalpies=            -424.166415
 Sum of electronic and thermal Free Energies=         -424.213319

                     E (Thermal)             CV                S
                      KCal/Mol        Cal/Mol-Kelvin    Cal/Mol-Kelvin
 Total                  119.048             36.766             98.718
 Electronic               0.000              0.000              0.000
 Translational            0.889              2.981             40.456
 Rotational               0.889              2.981             29.281
 Vibrational            117.270             30.804             28.981
 Vibration     1          0.595              1.980              5.159
 Vibration     2          0.601              1.959              3.752
 Vibration     3          0.601              1.957              3.696
 Vibration     4          0.624              1.883              2.470
 Vibration     5          0.640              1.833              2.091
 Vibration     6          0.646              1.814              1.977
 Vibration     7          0.661              1.768              1.753
 Vibration     8          0.677              1.721              1.569
 Vibration     9          0.708              1.629              1.293
 Vibration    10          0.770              1.460              0.946
 Vibration    11          0.812              1.353              0.785
 Vibration    12          0.889              1.175              0.579

 Optimization completed.
    -- Stationary point found.
 Normal termination of Gaussian 16 at Thu Aug  4 07:53:44 2022.
