 Gaussian 16, Revision A.03,
 Gaussian 16:  ES64L-G16RevA.03 25-Dec-2016

 -----------------------------
 # opt freq b3lyp/6-31g(2df,p)
 -----------------------------

 -------------------
 Title Card Required
 -------------------
 Symbolic Z-matrix:
 Charge =  0 Multiplicity = 1

 SCF Done:  E(RB3LYP) =  -429.021733515     A.U. after   12 cycles
 SCF Done:  E(RB3LYP) =  -429.027468176     A.U. after   10 cycles
 SCF Done:  E(RB3LYP) =  -429.029552713     A.U. after   10 cycles
 SCF Done:  E(RB3LYP) =  -429.030323349     A.U. after   11 cycles
 SCF Done:  E(RB3LYP) =  -429.030621322     A.U. after   10 cycles
 SCF Done:  E(RB3LYP) =  -429.030757583     A.U. after    9 cycles
 SCF Done:  E(RB3LYP) =  -429.030810813     A.U. after    9 cycles
 SCF Done:  E(RB3LYP) =  -429.030836429     A.U. after    9 cycles
 SCF Done:  E(RB3LYP) =  -429.030844371     A.U. after    8 cycles
 SCF Done:  E(RB3LYP) =  -429.030845104     A.U. after    8 cycles
 SCF Done:  E(RB3LYP) =  -429.030845443     A.U. after    7 cycles
 SCF Done:  E(RB3LYP) =  -429.030845485     A.U. after    7 cycles
 Optimization completed.
    -- Stationary point found.
 Normal termination of Gaussian 16 at Wed Aug  3 04:22:03 2022.

 ----------------------------------------------------------------------
 #N Geom=AllCheck Guess=TCheck SCRF=Check GenChk RB3LYP/6-31G(2df,p) Fr
 eq
 ----------------------------------------------------------------------

 Structure from the checkpoint file:  "CCCCpCpC1OCC1C.chk"
 -------------------
 Title Card Required
 -------------------
 Charge =  0 Multiplicity = 1

                         Standard orientation:
 ---------------------------------------------------------------------
 Center     Atomic      Atomic             Coordinates (Angstroms)
 Number     Number       Type             X           Y           Z
 ---------------------------------------------------------------------
      1          6           0       -3.618397   -1.337908    0.145082
      2          6           0       -2.750357   -0.208899   -0.418788
      3          6           0       -1.312568   -0.249000    0.114570
      4          6           0       -0.368292    0.806487   -0.490641
      5          6           0       -0.789863    2.239566   -0.123604
      6          6           0        1.092015    0.596621   -0.080970
      7          8           0        1.271264    0.489449    1.355630
      8          6           0        2.084766   -0.691002    1.209305
      9          6           0        1.815440   -0.755381   -0.310034
     10          6           0        3.010007   -0.766220   -1.252268
     11          1           0       -4.640038   -1.290670   -0.245038
     12          1           0       -3.676284   -1.283045    1.237896
     13          1           0       -3.208299   -2.320856   -0.113169
     14          1           0       -3.216086    0.753763   -0.178279
     15          1           0       -2.733845   -0.273360   -1.515466
     16          1           0       -0.910643   -1.251904   -0.078709
     17          1           0       -1.316712   -0.131524    1.204746
     18          1           0       -0.392230    0.708338   -1.587752
     19          1           0       -0.738702    2.384741    0.960707
     20          1           0       -1.809197    2.462162   -0.449088
     21          1           0       -0.126023    2.974713   -0.590753
     22          1           0        1.688222    1.437502   -0.471271
     23          1           0        1.712621   -1.523413    1.818111
     24          1           0        3.134422   -0.498737    1.473531
     25          1           0        1.124462   -1.560688   -0.571983
     26          1           0        3.720542    0.028404   -0.998911
     27          1           0        2.696278   -0.615593   -2.291163
     28          1           0        3.544884   -1.721020   -1.204361
 ---------------------------------------------------------------------

 SCF Done:  E(RB3LYP) =  -429.030845485     A.U. after    1 cycles

 The electronic state is 1-A.
 Alpha  occ. eigenvalues --  -19.12370 -10.22344 -10.22256 -10.18834 -10.18255
 Alpha  occ. eigenvalues --  -10.17963 -10.17513 -10.17031 -10.16920 -10.16686
 Alpha  occ. eigenvalues --   -1.02831  -0.80587  -0.77354  -0.75385  -0.67497
 Alpha  occ. eigenvalues --   -0.67261  -0.66094  -0.59625  -0.57050  -0.53241
 Alpha  occ. eigenvalues --   -0.48524  -0.47024  -0.45752  -0.44860  -0.42517
 Alpha  occ. eigenvalues --   -0.40936  -0.40587  -0.39804  -0.39179  -0.38294
 Alpha  occ. eigenvalues --   -0.37239  -0.35836  -0.35132  -0.33852  -0.32449
 Alpha  occ. eigenvalues --   -0.31912  -0.31360  -0.29527  -0.28686  -0.23901
 Alpha virt. eigenvalues --    0.08364   0.08681   0.10564   0.10668   0.12004
 Alpha virt. eigenvalues --    0.13187   0.13434   0.14765   0.15699   0.16025
 Alpha virt. eigenvalues --    0.16536   0.16896   0.17460   0.17887   0.18249

 Mulliken charges:
               1
     1  C   -0.379909
     2  C   -0.175796
     3  C   -0.164176
     4  C   -0.014148
     5  C   -0.399950
     6  C    0.154574
     7  O   -0.299555
     8  C   -0.073579
     9  C   -0.056476
    10  C   -0.415866
    11  H    0.109244
    12  H    0.114957
    13  H    0.110865
    14  H    0.099471
    15  H    0.089611
    16  H    0.086140
    17  H    0.109186
    18  H    0.066865
    19  H    0.132638
    20  H    0.112873
    21  H    0.108039
    22  H    0.059093
    23  H    0.099837
    24  H    0.093204
    25  H    0.078818
    26  H    0.118657
    27  H    0.118186
    28  H    0.117200
 Sum of Mulliken charges =  -0.00000

 Dipole moment (field-independent basis, Debye):
    X=              0.3422    Y=             -0.8793    Z=             -1.3277  Tot=              1.6289
 Quadrupole moment (field-independent basis, Debye-Ang):
   XX=            -62.6950   YY=            -64.2189   ZZ=            -66.2663
   XY=             -1.9908   XZ=             -1.0842   YZ=             -1.7574

  Exact polarizability: 114.535  -1.652  96.487  -0.086  -3.108  90.092
 Approx polarizability: 138.595  -2.239 137.124   0.907  -2.310 136.782

                      1                      2                      3
                      A                      A                      A
 Frequencies --     41.4484                50.3701                74.5233
 Red. masses --      1.8750                 2.1253                 3.1862
 Frc consts  --      0.0019                 0.0032                 0.0104
 IR Inten    --      0.1143                 0.0631                 1.6084

                      4                      5                      6
                      A                      A                      A
 Frequencies --     92.1724               136.1699               177.0132
 Red. masses --      2.5784                 3.0943                 1.8639
 Frc consts  --      0.0129                 0.0338                 0.0344
 IR Inten    --      0.1380                 0.9557                 1.7942

                      7                      8                      9
                      A                      A                      A
 Frequencies --    215.2103               240.0495               248.1426
 Red. masses --      1.1767                 1.2042                 1.9082
 Frc consts  --      0.0321                 0.0409                 0.0692
 IR Inten    --      0.0540                 0.1615                 1.0760

                     10                     11                     12
                      A                      A                      A
 Frequencies --    253.1857               279.9664               328.1693
 Red. masses --      1.3925                 2.9415                 2.6077
 Frc consts  --      0.0526                 0.1358                 0.1655
 IR Inten    --      0.2515                 1.6731                 0.1883

                     13                     14                     15
                      A                      A                      A
 Frequencies --    381.0550               421.8117               469.5822
 Red. masses --      2.3809                 2.6501                 2.3491
 Frc consts  --      0.2037                 0.2778                 0.3052
 IR Inten    --      0.3715                 0.5657                 0.0080

                     16                     17                     18
                      A                      A                      A
 Frequencies --    632.4382               703.7895               742.3013
 Red. masses --      3.0398                 4.2232                 1.1209
 Frc consts  --      0.7164                 1.2325                 0.3639
 IR Inten    --      1.4732                 1.4420                 2.9562

                     19                     20                     21
                      A                      A                      A
 Frequencies --    807.0418               858.9361               879.0744
 Red. masses --      2.1319                 1.3259                 2.0566
 Frc consts  --      0.8181                 0.5763                 0.9364
 IR Inten    --      1.0153                 0.2009                 5.1964

                     22                     23                     24
                      A                      A                      A
 Frequencies --    897.2273               924.8367               928.9398
 Red. masses --      1.9795                 1.3168                 1.6935
 Frc consts  --      0.9389                 0.6636                 0.8610
 IR Inten    --      7.7737                 0.3631                 2.5484

                     25                     26                     27
                      A                      A                      A
 Frequencies --    944.6427              1002.3352              1011.3846
 Red. masses --      2.3316                 1.3822                 1.7436
 Frc consts  --      1.2259                 0.8182                 1.0508
 IR Inten    --     17.5758                 6.0669                26.2860

                     28                     29                     30
                      A                      A                      A
 Frequencies --   1020.0916              1037.8781              1070.4932
 Red. masses --      5.0343                 2.5563                 2.3436
 Frc consts  --      3.0865                 1.6224                 1.5823
 IR Inten    --     66.4457                19.7580                 3.0027

                     31                     32                     33
                      A                      A                      A
 Frequencies --   1098.4144              1120.7397              1137.4277
 Red. masses --      2.0837                 1.9889                 2.0867
 Frc consts  --      1.4812                 1.4719                 1.5906
 IR Inten    --      6.1917                 0.7546                 5.0048

                     34                     35                     36
                      A                      A                      A
 Frequencies --   1146.0449              1157.7567              1190.3072
 Red. masses --      1.9381                 1.4437                 1.6128
 Frc consts  --      1.4998                 1.1401                 1.3464
 IR Inten    --      1.2982                 0.5010                 0.2983

                     37                     38                     39
                      A                      A                      A
 Frequencies --   1203.2474              1254.6997              1263.8315
 Red. masses --      1.9302                 1.4416                 1.4053
 Frc consts  --      1.6465                 1.3371                 1.3225
 IR Inten    --      2.0961                 0.1815                 1.0368

                     40                     41                     42
                      A                      A                      A
 Frequencies --   1279.7592              1300.1037              1318.7218
 Red. masses --      1.3040                 1.3018                 1.2067
 Frc consts  --      1.2583                 1.2964                 1.2364
 IR Inten    --      1.4932                 0.5867                 4.9256

                     43                     44                     45
                      A                      A                      A
 Frequencies --   1336.6742              1345.1739              1348.9351
 Red. masses --      1.1423                 1.3428                 1.5511
 Frc consts  --      1.2024                 1.4316                 1.6629
 IR Inten    --      2.1787                 2.2506                 2.0227

                     46                     47                     48
                      A                      A                      A
 Frequencies --   1381.0779              1398.5186              1407.0490
 Red. masses --      1.4511                 1.4523                 1.3886
 Frc consts  --      1.6308                 1.6736                 1.6198
 IR Inten    --      0.7780                 8.1705                 2.4803

                     49                     50                     51
                      A                      A                      A
 Frequencies --   1412.9778              1413.8508              1415.2969
 Red. masses --      1.2790                 1.2523                 1.3853
 Frc consts  --      1.5045                 1.4750                 1.6348
 IR Inten    --      0.9656                 3.3637                11.1688

                     52                     53                     54
                      A                      A                      A
 Frequencies --   1482.5437              1494.1900              1496.3259
 Red. masses --      1.0699                 1.0600                 1.0500
 Frc consts  --      1.3856                 1.3943                 1.3851
 IR Inten    --      0.0253                 0.7841                 3.5304

                     55                     56                     57
                      A                      A                      A
 Frequencies --   1497.5447              1499.2006              1501.9337
 Red. masses --      1.0470                 1.0422                 1.0449
 Frc consts  --      1.3834                 1.3802                 1.3887
 IR Inten    --      5.2469                 6.7903                 3.4667

                     58                     59                     60
                      A                      A                      A
 Frequencies --   1503.6038              1512.2106              1524.9737
 Red. masses --      1.0619                 1.0828                 1.1058
 Frc consts  --      1.4145                 1.4589                 1.5151
 IR Inten    --      0.9744                 4.0689                 1.2564

                     61                     62                     63
                      A                      A                      A
 Frequencies --   2960.7140              2982.7720              2997.9449
 Red. masses --      1.0828                 1.0816                 1.0608
 Frc consts  --      5.5926                 5.6696                 5.6171
 IR Inten    --     51.1602                32.0661                77.2932

                     64                     65                     66
                      A                      A                      A
 Frequencies --   3012.8342              3020.5446              3025.8969
 Red. masses --      1.0624                 1.0632                 1.0356
 Frc consts  --      5.6820                 5.7155                 5.5868
 IR Inten    --     14.3400                32.4471                30.4279

                     67                     68                     69
                      A                      A                      A
 Frequencies --   3027.7541              3035.2871              3047.1768
 Red. masses --      1.0377                 1.0370                 1.1020
 Frc consts  --      5.6047                 5.6290                 6.0289
 IR Inten    --     38.5116                14.5398                22.4260

                     70                     71                     72
                      A                      A                      A
 Frequencies --   3049.4370              3067.8037              3072.9720
 Red. masses --      1.0904                 1.0952                 1.0946
 Frc consts  --      5.9743                 6.0729                 6.0900
 IR Inten    --     16.1335                21.2290                20.4218

                     73                     74                     75
                      A                      A                      A
 Frequencies --   3093.1505              3095.0816              3098.8994
 Red. masses --      1.1010                 1.1022                 1.1000
 Frc consts  --      6.2062                 6.2208                 6.2236
 IR Inten    --     24.5550                42.0502                63.7020

                     76                     77                     78
                      A                      A                      A
 Frequencies --   3099.4757              3100.0436              3115.9322
 Red. masses --      1.1009                 1.1007                 1.1004
 Frc consts  --      6.2310                 6.2324                 6.2947
 IR Inten    --     32.2815                39.7897                32.8650

 - Thermochemistry -
 -------------------
 Temperature   298.150 Kelvin.  Pressure   1.00000 Atm.
 Atom     1 has atomic number  6 and mass  12.00000

 Molecular mass:   142.13577 amu.
 Principal axes and moments of inertia in atomic units:
                           1         2         3
     Eigenvalues --   917.459312624.665582859.18949
           X            0.99992  -0.00084  -0.01236
           Y            0.00041   0.99941  -0.03434
           Z            0.01238   0.03434   0.99933
 This molecule is an asymmetric top.
 Rotational symmetry number  1.
 Warning -- assumption of classical behavior for rotation
           may cause significant error
 Rotational temperatures (Kelvin)      0.09441     0.03300     0.03029
 Rotational constants (GHZ):           1.96711     0.68761     0.63121
 Zero-point vibrational energy     671207.5 (Joules/Mol)
                                  160.42245 (Kcal/Mol)
 Warning -- explicit consideration of  15 degrees of freedom as
           vibrations may cause significant error
 Vibrational temperatures:     59.64    72.47   107.22   132.62   195.92
          (Kelvin)            254.68   309.64   345.38   357.02   364.28
                              402.81   472.16   548.25   606.89   675.62
                              909.94  1012.60  1068.01  1161.15  1235.82
                             1264.79  1290.91  1330.63  1336.54  1359.13
                             1442.14  1455.16  1467.68  1493.28  1540.20
                             1580.37  1612.49  1636.50  1648.90  1665.75
                             1712.59  1731.20  1805.23  1818.37  1841.29
                             1870.56  1897.35  1923.18  1935.41  1940.82
                             1987.06  2012.16  2024.43  2032.96  2034.22
                             2036.30  2133.05  2149.81  2152.88  2154.63
                             2157.02  2160.95  2163.35  2175.73  2194.10
                             4259.81  4291.54  4313.37  4334.80  4345.89
                             4353.59  4356.26  4367.10  4384.21  4387.46
                             4413.89  4421.32  4450.35  4453.13  4458.63
                             4459.45  4460.27  4483.13

 Zero-point correction=                           0.255649 (Hartree/Particle)
 Thermal correction to Energy=                    0.267906
 Thermal correction to Enthalpy=                  0.268851
 Thermal correction to Gibbs Free Energy=         0.216665
 Sum of electronic and zero-point Energies=           -428.775196
 Sum of electronic and thermal Energies=              -428.762939
 Sum of electronic and thermal Enthalpies=            -428.761995
 Sum of electronic and thermal Free Energies=         -428.814180

                     E (Thermal)             CV                S
                      KCal/Mol        Cal/Mol-Kelvin    Cal/Mol-Kelvin
 Total                  168.114             44.358            109.833
 Electronic               0.000              0.000              0.000
 Translational            0.889              2.981             40.766
 Rotational               0.889              2.981             30.311
 Vibrational            166.336             38.397             38.757
 Vibration     1          0.594              1.981              5.189
 Vibration     2          0.595              1.977              4.803
 Vibration     3          0.599              1.966              4.030
 Vibration     4          0.602              1.955              3.613
 Vibration     5          0.614              1.917              2.857
 Vibration     6          0.628              1.871              2.360
 Vibration     7          0.645              1.818              1.999
 Vibration     8          0.657              1.779              1.803
 Vibration     9          0.662              1.766              1.744
 Vibration    10          0.664              1.757              1.708
 Vibration    11          0.680              1.711              1.534
 Vibration    12          0.711              1.619              1.269
 Vibration    13          0.751              1.511              1.035
 Vibration    14          0.784              1.423              0.886
 Vibration    15          0.827              1.318              0.739

                           ! Non-Optimized Parameters !
 Normal termination of Gaussian 16 at Wed Aug  3 05:13:43 2022.
