 Gaussian 16, Revision A.03,
 Gaussian 16:  ES64L-G16RevA.03 25-Dec-2016

 -----------------------------
 # opt freq b3lyp/6-31g(2df,p)
 -----------------------------

 -------------------
 Title Card Required
 -------------------
 Symbolic Z-matrix:
 Charge =  0 Multiplicity = 1

 SCF Done:  E(RB3LYP) =  -389.735937379     A.U. after   12 cycles
 SCF Done:  E(RB3LYP) =  -389.740167236     A.U. after   10 cycles
 SCF Done:  E(RB3LYP) =  -389.741414522     A.U. after   10 cycles
 SCF Done:  E(RB3LYP) =  -389.741752699     A.U. after   10 cycles
 SCF Done:  E(RB3LYP) =  -389.741803578     A.U. after    9 cycles
 SCF Done:  E(RB3LYP) =  -389.741811848     A.U. after    8 cycles
 SCF Done:  E(RB3LYP) =  -389.741813269     A.U. after    7 cycles
 SCF Done:  E(RB3LYP) =  -389.741813396     A.U. after    6 cycles
 Optimization completed.
    -- Stationary point found.
 Normal termination of Gaussian 16 at Thu Aug  4 03:47:33 2022.

 ----------------------------------------------------------------------
 #N Geom=AllCheck Guess=TCheck SCRF=Check GenChk RB3LYP/6-31G(2df,p) Fr
 eq
 ----------------------------------------------------------------------

 Structure from the checkpoint file:  "CCCC1OCCC1C.chk"
 -------------------
 Title Card Required
 -------------------
 Charge =  0 Multiplicity = 1

                         Standard orientation:
 ---------------------------------------------------------------------
 Center     Atomic      Atomic             Coordinates (Angstroms)
 Number     Number       Type             X           Y           Z
 ---------------------------------------------------------------------
      1          6           0        3.575165    0.084170    0.337846
      2          6           0        2.071265   -0.160776    0.489833
      3          6           0        1.278283    0.283755   -0.745611
      4          6           0       -0.221051   -0.007784   -0.697849
      5          8           0       -0.422691   -1.395107   -0.449598
      6          6           0       -1.778780   -1.538697   -0.065077
      7          6           0       -2.085380   -0.326772    0.836366
      8          6           0       -1.050148    0.740797    0.382267
      9          6           0       -1.670275    2.038987   -0.137768
     10          1           0        4.124256   -0.244154    1.226007
     11          1           0        3.793676    1.147605    0.186473
     12          1           0        3.979966   -0.459864   -0.522961
     13          1           0        1.710257    0.367076    1.381184
     14          1           0        1.879562   -1.224080    0.664296
     15          1           0        1.692544   -0.216472   -1.630091
     16          1           0        1.411863    1.360938   -0.914459
     17          1           0       -0.653166    0.242310   -1.684935
     18          1           0       -1.889768   -2.504968    0.433876
     19          1           0       -2.430983   -1.534958   -0.954497
     20          1           0       -1.943650   -0.582843    1.889543
     21          1           0       -3.116596    0.018551    0.717979
     22          1           0       -0.397006    0.982878    1.225888
     23          1           0       -2.366910    1.840931   -0.960779
     24          1           0       -0.903035    2.726665   -0.511141
     25          1           0       -2.223960    2.559160    0.650360
 ---------------------------------------------------------------------

 SCF Done:  E(RB3LYP) =  -389.741813396     A.U. after    1 cycles

 The electronic state is 1-A.
 Alpha  occ. eigenvalues --  -19.12895 -10.22045 -10.21976 -10.18375 -10.17786
 Alpha  occ. eigenvalues --  -10.17548 -10.17404 -10.17140 -10.16772  -1.02929
 Alpha  occ. eigenvalues --   -0.79830  -0.78114  -0.73522  -0.69159  -0.64651
 Alpha  occ. eigenvalues --   -0.60091  -0.57710  -0.54914  -0.48444  -0.46770
 Alpha  occ. eigenvalues --   -0.45849  -0.44689  -0.42110  -0.41079  -0.40638
 Alpha  occ. eigenvalues --   -0.38800  -0.37920  -0.36986  -0.34406  -0.33809
 Alpha  occ. eigenvalues --   -0.32901  -0.32478  -0.31951  -0.30561  -0.29663
 Alpha  occ. eigenvalues --   -0.24574
 Alpha virt. eigenvalues --    0.07890   0.10184   0.10560   0.11549   0.13414
 Alpha virt. eigenvalues --    0.13744   0.14930   0.15519   0.16166   0.16855
 Alpha virt. eigenvalues --    0.17171   0.17296   0.18475   0.19596   0.20121

 Mulliken charges:
               1
     1  C   -0.379967
     2  C   -0.160279
     3  C   -0.212861
     4  C    0.128956
     5  O   -0.258714
     6  C   -0.076505
     7  C   -0.241819
     8  C    0.015401
     9  C   -0.407552
    10  H    0.109096
    11  H    0.109277
    12  H    0.113838
    13  H    0.092746
    14  H    0.116174
    15  H    0.100586
    16  H    0.092585
    17  H    0.051030
    18  H    0.103803
    19  H    0.084307
    20  H    0.105074
    21  H    0.096686
    22  H    0.075294
    23  H    0.113746
    24  H    0.114581
    25  H    0.114517
 Sum of Mulliken charges =  -0.00000

 Dipole moment (field-independent basis, Debye):
    X=             -0.7963    Y=              0.9279    Z=              0.3843  Tot=              1.2817
 Quadrupole moment (field-independent basis, Debye-Ang):
   XX=            -56.2599   YY=            -59.0497   ZZ=            -57.3975
   XY=              1.0697   XZ=             -0.2906   YZ=             -1.0388

  Exact polarizability: 101.260   1.717  86.300  -0.552  -1.677  79.142
 Approx polarizability: 124.424   1.281 122.125  -0.238  -1.490 119.222

 ******    1 imaginary frequencies (negative Signs) ******

                      1                      2                      3
                      A                      A                      A
 Frequencies --    -13.1262                65.8421                98.0745
 Red. masses --      2.3719                 1.7728                 2.4328
 Frc consts  --      0.0002                 0.0045                 0.0138
 IR Inten    --      0.1694                 0.0135                 0.6361

                      4                      5                      6
                      A                      A                      A
 Frequencies --    138.7015               229.2804               245.1172
 Red. masses --      2.7908                 1.3836                 1.7782
 Frc consts  --      0.0316                 0.0429                 0.0629
 IR Inten    --      0.5640                 0.0587                 1.9477

                      7                      8                      9
                      A                      A                      A
 Frequencies --    247.3070               258.9642               313.3704
 Red. masses --      1.4486                 1.5040                 2.8492
 Frc consts  --      0.0522                 0.0594                 0.1648
 IR Inten    --      1.5963                 0.0388                 0.6058

                     10                     11                     12
                      A                      A                      A
 Frequencies --    347.0737               399.5953               590.6684
 Red. masses --      2.3558                 2.3228                 4.6600
 Frc consts  --      0.1672                 0.2185                 0.9579
 IR Inten    --      0.8972                 0.1356                 4.5472

                     13                     14                     15
                      A                      A                      A
 Frequencies --    651.8027               653.0579               737.7693
 Red. masses --      3.6583                 2.5814                 1.1623
 Frc consts  --      0.9157                 0.6486                 0.3727
 IR Inten    --      1.4378                 1.8909                 0.2907

                     16                     17                     18
                      A                      A                      A
 Frequencies --    790.8368               842.9533               850.6664
 Red. masses --      2.0916                 1.8919                 1.5326
 Frc consts  --      0.7707                 0.7921                 0.6534
 IR Inten    --      5.3400                 0.8129                 6.9612

                     19                     20                     21
                      A                      A                      A
 Frequencies --    894.3033               918.5582               956.2277
 Red. masses --      1.7651                 1.8321                 2.0643
 Frc consts  --      0.8317                 0.9108                 1.1121
 IR Inten    --      1.8887                 3.4643                 0.5060

                     22                     23                     24
                      A                      A                      A
 Frequencies --    963.5952              1014.5970              1027.6063
 Red. masses --      1.6563                 1.7068                 2.0356
 Frc consts  --      0.9061                 1.0352                 1.2665
 IR Inten    --     11.4876                 8.1363                 7.3327

                     25                     26                     27
                      A                      A                      A
 Frequencies --   1046.9789              1082.0197              1089.0190
 Red. masses --      2.2535                 2.5822                 2.0535
 Frc consts  --      1.4554                 1.7812                 1.4349
 IR Inten    --      4.8906                27.0184                17.4238

                     28                     29                     30
                      A                      A                      A
 Frequencies --   1130.5660              1148.8040              1155.1985
 Red. masses --      2.7176                 2.3729                 2.0446
 Frc consts  --      2.0465                 1.8451                 1.6076
 IR Inten    --     50.8131                24.2903                 1.6485

                     31                     32                     33
                      A                      A                      A
 Frequencies --   1180.5353              1233.9477              1243.5304
 Red. masses --      2.0914                 1.3128                 1.2363
 Frc consts  --      1.7173                 1.1777                 1.1264
 IR Inten    --      4.4136                 4.1212                 8.8073

                     34                     35                     36
                      A                      A                      A
 Frequencies --   1270.4527              1286.7904              1320.0199
 Red. masses --      1.3197                 1.2701                 1.4414
 Frc consts  --      1.2550                 1.2391                 1.4798
 IR Inten    --      3.0080                 1.4735                 0.0346

                     37                     38                     39
                      A                      A                      A
 Frequencies --   1322.9008              1331.1398              1347.1354
 Red. masses --      1.3278                 1.1071                 1.3020
 Frc consts  --      1.3691                 1.1558                 1.3921
 IR Inten    --      0.3597                 0.0768                 6.0844

                     40                     41                     42
                      A                      A                      A
 Frequencies --   1364.1041              1392.5689              1402.0029
 Red. masses --      1.2660                 1.5847                 1.3836
 Frc consts  --      1.3880                 1.8107                 1.6023
 IR Inten    --     11.3683                 3.5328                 5.8723

                     43                     44                     45
                      A                      A                      A
 Frequencies --   1407.0659              1412.3335              1418.5369
 Red. masses --      1.3488                 1.2335                 1.2919
 Frc consts  --      1.5733                 1.4496                 1.5316
 IR Inten    --      2.2068                 2.9187                 8.6386

                     46                     47                     48
                      A                      A                      A
 Frequencies --   1475.5789              1493.2280              1493.9077
 Red. masses --      1.0827                 1.0705                 1.0542
 Frc consts  --      1.3889                 1.4064                 1.3862
 IR Inten    --      2.1440                 4.3886                 0.9868

                     49                     50                     51
                      A                      A                      A
 Frequencies --   1498.0553              1500.1268              1500.6415
 Red. masses --      1.0679                 1.0410                 1.0434
 Frc consts  --      1.4120                 1.3802                 1.3844
 IR Inten    --      0.2409                 5.4057                 5.4350

                     52                     53                     54
                      A                      A                      A
 Frequencies --   1511.1012              1518.7680              2917.2664
 Red. masses --      1.0846                 1.0996                 1.0815
 Frc consts  --      1.4591                 1.4944                 5.4228
 IR Inten    --      2.5171                 0.9219                51.4833

                     55                     56                     57
                      A                      A                      A
 Frequencies --   2962.2811              3016.6142              3023.8651
 Red. masses --      1.0723                 1.0587                 1.0360
 Frc consts  --      5.5438                 5.6764                 5.5813
 IR Inten    --     82.1797                15.2114                28.2816

                     58                     59                     60
                      A                      A                      A
 Frequencies --   3026.1505              3029.5734              3050.3002
 Red. masses --      1.0388                 1.0677                 1.0848
 Frc consts  --      5.6049                 5.7736                 5.9470
 IR Inten    --     23.6209                41.2622                27.9058

                     61                     62                     63
                      A                      A                      A
 Frequencies --   3051.8501              3059.5035              3075.5861
 Red. masses --      1.0837                 1.0706                 1.0978
 Frc consts  --      5.9470                 5.9044                 6.1181
 IR Inten    --      8.9827                21.8243                 0.0357

                     64                     65                     66
                      A                      A                      A
 Frequencies --   3085.8259              3089.7459              3098.0418
 Red. masses --      1.0948                 1.0986                 1.1012
 Frc consts  --      6.1420                 6.1794                 6.2270
 IR Inten    --      9.4672                48.6757                 6.9463

                     67                     68                     69
                      A                      A                      A
 Frequencies --   3098.9399              3099.7003              3104.6662
 Red. masses --      1.1017                 1.1002                 1.1034
 Frc consts  --      6.2336                 6.2284                 6.2666
 IR Inten    --     62.0113                60.0851                52.3006

 - Thermochemistry -
 -------------------
 Temperature   298.150 Kelvin.  Pressure   1.00000 Atm.
 Atom     1 has atomic number  6 and mass  12.00000

 Molecular mass:   128.12012 amu.
 Principal axes and moments of inertia in atomic units:
                           1         2         3
     Eigenvalues --   716.296711814.958142179.21950
           X            0.99998  -0.00647   0.00196
           Y            0.00652   0.99970  -0.02348
           Z           -0.00181   0.02349   0.99972
 This molecule is an asymmetric top.
 Rotational symmetry number  1.
 Warning -- assumption of classical behavior for rotation
           may cause significant error
 Rotational temperatures (Kelvin)      0.12092     0.04772     0.03975
 Rotational constants (GHZ):           2.51954     0.99437     0.82816
    1 imaginary frequencies ignored.
 Zero-point vibrational energy     601739.2 (Joules/Mol)
                                  143.81912 (Kcal/Mol)
 Warning -- explicit consideration of  11 degrees of freedom as
           vibrations may cause significant error
 Vibrational temperatures:     94.73   141.11   199.56   329.88   352.67
          (Kelvin)            355.82   372.59   450.87   499.36   574.93
                              849.84   937.80   939.60  1061.49  1137.84
                             1212.82  1223.92  1286.70  1321.60  1375.80
                             1386.40  1459.78  1478.50  1506.37  1556.79
                             1566.86  1626.63  1652.87  1662.07  1698.53
                             1775.38  1789.16  1827.90  1851.40  1899.21
                             1903.36  1915.21  1938.23  1962.64  2003.60
                             2017.17  2024.45  2032.03  2040.96  2123.03
                             2148.42  2149.40  2155.37  2158.35  2159.09
                             2174.14  2185.17  4197.30  4262.06  4340.23
                             4350.67  4353.96  4358.88  4388.70  4390.93
                             4401.94  4425.08  4439.82  4445.46  4457.39
                             4458.68  4459.78  4466.92

 Zero-point correction=                           0.229190 (Hartree/Particle)
 Thermal correction to Energy=                    0.238622
 Thermal correction to Enthalpy=                  0.239567
 Thermal correction to Gibbs Free Energy=         0.194638
 Sum of electronic and zero-point Energies=           -389.512623
 Sum of electronic and thermal Energies=              -389.503191
 Sum of electronic and thermal Enthalpies=            -389.502247
 Sum of electronic and thermal Free Energies=         -389.547175

                     E (Thermal)             CV                S
                      KCal/Mol        Cal/Mol-Kelvin    Cal/Mol-Kelvin
 Total                  149.738             35.915             94.559
 Electronic               0.000              0.000              0.000
 Translational            0.889              2.981             40.457
 Rotational               0.889              2.981             29.428
 Vibrational            147.960             29.954             24.674
 Vibration     1          0.597              1.971              4.274
 Vibration     2          0.604              1.951              3.492
 Vibration     3          0.614              1.915              2.822
 Vibration     4          0.652              1.796              1.885
 Vibration     5          0.660              1.771              1.765
 Vibration     6          0.661              1.767              1.750
 Vibration     7          0.668              1.748              1.669
 Vibration     8          0.701              1.648              1.344
 Vibration     9          0.725              1.581              1.179
 Vibration    10          0.766              1.471              0.964
 Vibration    11          0.948              1.052              0.466

                           ! Non-Optimized Parameters !
 Normal termination of Gaussian 16 at Thu Aug  4 04:30:21 2022.
