 Gaussian 16, Revision A.03,
 Gaussian 16:  ES64L-G16RevA.03 25-Dec-2016

 -----------------------------
 # opt freq b3lyp/6-31g(2df,p)
 -----------------------------

 -------------------
 Title Card Required
 -------------------
 Symbolic Z-matrix:
 Charge =  0 Multiplicity = 1

 SCF Done:  E(RB3LYP) =  -405.768489208     A.U. after   12 cycles
 SCF Done:  E(RB3LYP) =  -405.771454373     A.U. after   11 cycles
 SCF Done:  E(RB3LYP) =  -405.771775502     A.U. after    9 cycles
 SCF Done:  E(RB3LYP) =  -405.771828726     A.U. after    9 cycles
 SCF Done:  E(RB3LYP) =  -405.771833769     A.U. after    7 cycles
 SCF Done:  E(RB3LYP) =  -405.771834515     A.U. after    7 cycles
 Optimization completed.
    -- Stationary point found.
 Normal termination of Gaussian 16 at Wed Aug  3 23:43:23 2022.

 ----------------------------------------------------------------------
 #N Geom=AllCheck Guess=TCheck SCRF=Check GenChk RB3LYP/6-31G(2df,p) Fr
 eq
 ----------------------------------------------------------------------

 Structure from the checkpoint file:  "CCCC1CNCCO1.chk"
 -------------------
 Title Card Required
 -------------------
 Charge =  0 Multiplicity = 1

                         Standard orientation:
 ---------------------------------------------------------------------
 Center     Atomic      Atomic             Coordinates (Angstroms)
 Number     Number       Type             X           Y           Z
 ---------------------------------------------------------------------
      1          6           0       -3.908320   -0.032509   -0.120356
      2          6           0       -2.506906    0.390982    0.329396
      3          6           0       -1.409081   -0.522464   -0.228433
      4          6           0       -0.001592   -0.194539    0.263437
      5          6           0        0.551660    1.144970   -0.248146
      6          7           0        1.958827    1.365924    0.100013
      7          6           0        2.776855    0.204764   -0.260656
      8          6           0        2.184702   -1.108034    0.255421
      9          8           0        0.841710   -1.260715   -0.170862
     10          1           0       -4.676503    0.630897    0.288930
     11          1           0       -4.136994   -1.052298    0.208235
     12          1           0       -3.996277   -0.010991   -1.212201
     13          1           0       -2.459530    0.389031    1.426624
     14          1           0       -2.328220    1.427886    0.019240
     15          1           0       -1.414334   -0.489715   -1.325896
     16          1           0       -1.618885   -1.562832    0.047990
     17          1           0        0.003166   -0.169919    1.370769
     18          1           0       -0.039610    1.980252    0.140500
     19          1           0        0.465780    1.159532   -1.343446
     20          1           0        2.030348    1.521604    1.102534
     21          1           0        3.793381    0.346246    0.122943
     22          1           0        2.838530    0.160718   -1.355802
     23          1           0        2.236847   -1.129395    1.359407
     24          1           0        2.732918   -1.975779   -0.127004
 ---------------------------------------------------------------------

 SCF Done:  E(RB3LYP) =  -405.771834515     A.U. after    1 cycles

 The electronic state is 1-A.
 Alpha  occ. eigenvalues --  -19.13230 -14.31285 -10.22347 -10.22084 -10.20142
 Alpha  occ. eigenvalues --  -10.19960 -10.18139 -10.17457 -10.17272  -1.02833
 Alpha  occ. eigenvalues --   -0.89694  -0.80023  -0.75511  -0.69442  -0.66013
 Alpha  occ. eigenvalues --   -0.62749  -0.58372  -0.57099  -0.49009  -0.47807
 Alpha  occ. eigenvalues --   -0.46903  -0.45071  -0.44561  -0.43567  -0.40906
 Alpha  occ. eigenvalues --   -0.38799  -0.37612  -0.36666  -0.36098  -0.34540
 Alpha  occ. eigenvalues --   -0.33530  -0.32850  -0.32168  -0.31072  -0.26726
 Alpha  occ. eigenvalues --   -0.20717
 Alpha virt. eigenvalues --    0.08377   0.09142   0.11268   0.12431   0.12853
 Alpha virt. eigenvalues --    0.13549   0.13697   0.14366   0.16173   0.17005
 Alpha virt. eigenvalues --    0.17429   0.17868   0.18697   0.19519   0.20028

 Mulliken charges:
               1
     1  C   -0.379650
     2  C   -0.174285
     3  C   -0.188693
     4  C    0.119059
     5  C   -0.172048
     6  N   -0.291748
     7  C   -0.162147
     8  C   -0.070604
     9  O   -0.262815
    10  H    0.110708
    11  H    0.115800
    12  H    0.115765
    13  H    0.095003
    14  H    0.100741
    15  H    0.098810
    16  H    0.102047
    17  H    0.048655
    18  H    0.099048
    19  H    0.104836
    20  H    0.210346
    21  H    0.096410
    22  H    0.109434
    23  H    0.073847
    24  H    0.101479
 Sum of Mulliken charges =   0.00000

 Dipole moment (field-independent basis, Debye):
    X=             -0.0601    Y=              0.2329    Z=              1.0877  Tot=              1.1139
 Quadrupole moment (field-independent basis, Debye-Ang):
   XX=            -54.5445   YY=            -61.1353   ZZ=            -55.4302
   XY=             -2.8506   XZ=              1.8125   YZ=              0.8521

  Exact polarizability: 106.572  -3.352  78.177   0.732   0.739  75.134
 Approx polarizability: 123.496  -3.408 115.213   1.154   2.928 118.178

                      1                      2                      3
                      A                      A                      A
 Frequencies --     70.9036                75.5304               119.0660
 Red. masses --      1.7394                 2.6622                 3.1611
 Frc consts  --      0.0052                 0.0089                 0.0264
 IR Inten    --      0.0928                 0.2227                 0.3012

                      4                      5                      6
                      A                      A                      A
 Frequencies --    189.3205               246.2882               253.3629
 Red. masses --      2.4087                 1.3418                 1.6805
 Frc consts  --      0.0509                 0.0480                 0.0636
 IR Inten    --      0.4687                 2.7604                 5.2722

                      7                      8                      9
                      A                      A                      A
 Frequencies --    294.2327               334.1651               369.5947
 Red. masses --      3.1792                 2.2143                 2.5068
 Frc consts  --      0.1622                 0.1457                 0.2018
 IR Inten    --      0.0373                 4.3757                 2.8649

                     10                     11                     12
                      A                      A                      A
 Frequencies --    458.6784               486.3898               509.6473
 Red. masses --      6.0851                 2.2259                 2.6164
 Frc consts  --      0.7543                 0.3103                 0.4004
 IR Inten    --      0.3671                 2.7809                 1.2675

                     13                     14                     15
                      A                      A                      A
 Frequencies --    615.6252               743.2241               789.2739
 Red. masses --      1.7123                 1.1343                 1.8069
 Frc consts  --      0.3824                 0.3692                 0.6632
 IR Inten    --      1.7811                 2.6736               118.4531

                     16                     17                     18
                      A                      A                      A
 Frequencies --    831.0533               860.0942               875.9950
 Red. masses --      1.9880                 1.5560                 2.2463
 Frc consts  --      0.8089                 0.6782                 1.0156
 IR Inten    --     28.4562                 0.6240                 9.7106

                     19                     20                     21
                      A                      A                      A
 Frequencies --    907.9767               930.6936               977.0928
 Red. masses --      1.9114                 1.7951                 1.6495
 Frc consts  --      0.9285                 0.9161                 0.9279
 IR Inten    --      9.0616                 4.7232                 3.0966

                     22                     23                     24
                      A                      A                      A
 Frequencies --    994.4619              1028.5531              1055.9587
 Red. masses --      2.3400                 2.4266                 2.2861
 Frc consts  --      1.3634                 1.5125                 1.5019
 IR Inten    --      1.5867                 4.8301                 3.3347

                     25                     26                     27
                      A                      A                      A
 Frequencies --   1084.8386              1112.8299              1134.5889
 Red. masses --      1.6150                 2.2655                 5.2079
 Frc consts  --      1.1198                 1.6530                 3.9499
 IR Inten    --     17.3900                 6.9765               140.6786

                     28                     29                     30
                      A                      A                      A
 Frequencies --   1146.2564              1151.4513              1185.6927
 Red. masses --      2.2876                 3.9652                 2.2668
 Frc consts  --      1.7709                 3.0975                 1.8776
 IR Inten    --      8.5157                 0.2971                 8.8083

                     31                     32                     33
                      A                      A                      A
 Frequencies --   1226.7831              1258.7810              1285.6754
 Red. masses --      1.3041                 1.3204                 1.2126
 Frc consts  --      1.1563                 1.2327                 1.1810
 IR Inten    --      3.9567                 6.3762                13.1559

                     34                     35                     36
                      A                      A                      A
 Frequencies --   1305.6780              1320.4236              1338.0673
 Red. masses --      1.3130                 1.1615                 1.1658
 Frc consts  --      1.3188                 1.1931                 1.2298
 IR Inten    --      3.1174                 0.9196                 0.5811

                     37                     38                     39
                      A                      A                      A
 Frequencies --   1346.7535              1370.7462              1378.0315
 Red. masses --      1.2695                 1.2622                 1.3341
 Frc consts  --      1.3566                 1.3973                 1.4927
 IR Inten    --      2.9489                 6.5912                 7.7617

                     40                     41                     42
                      A                      A                      A
 Frequencies --   1392.4567              1405.1975              1412.2050
 Red. masses --      1.4323                 1.5351                 1.2611
 Frc consts  --      1.6363                 1.7859                 1.4819
 IR Inten    --      9.1490                 4.9420                 0.3069

                     43                     44                     45
                      A                      A                      A
 Frequencies --   1417.5920              1466.5792              1477.6715
 Red. masses --      1.3394                 1.0743                 1.1045
 Frc consts  --      1.5859                 1.3613                 1.4210
 IR Inten    --      2.2324                 0.0801                 3.9425

                     46                     47                     48
                      A                      A                      A
 Frequencies --   1482.7141              1488.0103              1494.7709
 Red. masses --      1.1221                 1.0899                 1.1184
 Frc consts  --      1.4535                 1.4219                 1.4722
 IR Inten    --      3.6973                 2.1526                 1.7473

                     49                     50                     51
                      A                      A                      A
 Frequencies --   1495.7720              1499.6715              1511.8537
 Red. masses --      1.0875                 1.0404                 1.0867
 Frc consts  --      1.4335                 1.3786                 1.4635
 IR Inten    --      5.5768                 5.1472                 2.6008

                     52                     53                     54
                      A                      A                      A
 Frequencies --   2910.1778              2940.6289              3013.2216
 Red. masses --      1.0806                 1.0706                 1.0605
 Frc consts  --      5.3919                 5.4543                 5.6732
 IR Inten    --     35.9679                75.4928                17.6352

                     55                     56                     57
                      A                      A                      A
 Frequencies --   3016.6263              3023.0832              3024.8561
 Red. masses --      1.0630                 1.0610                 1.0576
 Frc consts  --      5.6992                 5.7130                 5.7011
 IR Inten    --     18.6256                25.9131                38.4218

                     58                     59                     60
                      A                      A                      A
 Frequencies --   3030.6133              3042.7221              3068.0949
 Red. masses --      1.0380                 1.0987                 1.0907
 Frc consts  --      5.6170                 5.9929                 6.0490
 IR Inten    --     46.7761                 1.8519                61.4027

                     61                     62                     63
                      A                      A                      A
 Frequencies --   3068.9103              3074.9614              3079.7194
 Red. masses --      1.1028                 1.1045                 1.0996
 Frc consts  --      6.1197                 6.1530                 6.1448
 IR Inten    --     30.7432                34.1822                31.5677

                     64                     65                     66
                      A                      A                      A
 Frequencies --   3098.0064              3102.4562              3488.6075
 Red. masses --      1.1022                 1.1011                 1.0733
 Frc consts  --      6.2327                 6.2446                 7.6965
 IR Inten    --     54.1328                38.1146                 0.7525

 - Thermochemistry -
 -------------------
 Temperature   298.150 Kelvin.  Pressure   1.00000 Atm.
 Atom     1 has atomic number  6 and mass  12.00000

 Molecular mass:   129.11536 amu.
 Principal axes and moments of inertia in atomic units:
                           1         2         3
     Eigenvalues --   455.467512256.640912569.20798
           X            0.99999  -0.00450   0.00296
           Y            0.00451   0.99999  -0.00182
           Z           -0.00295   0.00183   0.99999
 This molecule is an asymmetric top.
 Rotational symmetry number  1.
 Warning -- assumption of classical behavior for rotation
           may cause significant error
 Rotational temperatures (Kelvin)      0.19016     0.03838     0.03371
 Rotational constants (GHZ):           3.96239     0.79975     0.70245
 Zero-point vibrational energy     575349.7 (Joules/Mol)
                                  137.51188 (Kcal/Mol)
 Warning -- explicit consideration of  13 degrees of freedom as
           vibrations may cause significant error
 Vibrational temperatures:    102.01   108.67   171.31   272.39   354.35
          (Kelvin)            364.53   423.34   480.79   531.76   659.94
                              699.81   733.27   885.75  1069.33  1135.59
                             1195.70  1237.48  1260.36  1306.38  1339.06
                             1405.82  1430.81  1479.86  1519.29  1560.84
                             1601.11  1632.42  1649.21  1656.68  1705.95
                             1765.07  1811.11  1849.80  1878.58  1899.80
                             1925.18  1937.68  1972.20  1982.68  2003.43
                             2021.77  2031.85  2039.60  2110.08  2126.04
                             2133.29  2140.91  2150.64  2152.08  2157.69
                             2175.22  4187.10  4230.91  4335.35  4340.25
                             4349.54  4352.09  4360.38  4377.80  4414.30
                             4415.48  4424.18  4431.03  4457.34  4463.74
                             5019.33

 Zero-point correction=                           0.219139 (Hartree/Particle)
 Thermal correction to Energy=                    0.228711
 Thermal correction to Enthalpy=                  0.229655
 Thermal correction to Gibbs Free Energy=         0.184329
 Sum of electronic and zero-point Energies=           -405.552695
 Sum of electronic and thermal Energies=              -405.543124
 Sum of electronic and thermal Enthalpies=            -405.542180
 Sum of electronic and thermal Free Energies=         -405.587506

                     E (Thermal)             CV                S
                      KCal/Mol        Cal/Mol-Kelvin    Cal/Mol-Kelvin
 Total                  143.518             36.228             95.397
 Electronic               0.000              0.000              0.000
 Translational            0.889              2.981             40.480
 Rotational               0.889              2.981             29.358
 Vibrational            141.741             30.266             25.558
 Vibration     1          0.598              1.968              4.128
 Vibration     2          0.599              1.965              4.004
 Vibration     3          0.609              1.933              3.115
 Vibration     4          0.633              1.855              2.234
 Vibration     5          0.661              1.769              1.757
 Vibration     6          0.665              1.757              1.707
 Vibration     7          0.689              1.684              1.449
 Vibration     8          0.716              1.607              1.240
 Vibration     9          0.742              1.535              1.081
 Vibration    10          0.817              1.342              0.770
 Vibration    11          0.842              1.280              0.693
 Vibration    12          0.865              1.229              0.634
 Vibration    13          0.975              0.999              0.424

 Optimization completed.
    -- Stationary point found.
 Normal termination of Gaussian 16 at Thu Aug  4 00:23:58 2022.
