 Gaussian 16, Revision A.03,
 Gaussian 16:  ES64L-G16RevA.03 25-Dec-2016

 -----------------------------
 # opt freq b3lyp/6-31g(2df,p)
 -----------------------------

 -------------------
 Title Card Required
 -------------------
 Symbolic Z-matrix:
 Charge =  0 Multiplicity = 1

 SCF Done:  E(RB3LYP) =  -385.873036214     A.U. after   13 cycles
 SCF Done:  E(RB3LYP) =  -385.877033115     A.U. after   12 cycles
 SCF Done:  E(RB3LYP) =  -385.877705600     A.U. after   10 cycles
 SCF Done:  E(RB3LYP) =  -385.877744857     A.U. after    8 cycles
 SCF Done:  E(RB3LYP) =  -385.877747488     A.U. after    7 cycles
 SCF Done:  E(RB3LYP) =  -385.877748045     A.U. after    6 cycles
 Optimization completed.
    -- Stationary point found.
 Normal termination of Gaussian 16 at Sun Jul  3 20:58:54 2022.

 ----------------------------------------------------------------------
 #N Geom=AllCheck Guess=TCheck SCRF=Check GenChk RB3LYP/6-31G(2df,p) Fr
 eq
 ----------------------------------------------------------------------

 Structure from the checkpoint file:  "CCCCCCpCpdNN.chk"
 -------------------
 Title Card Required
 -------------------
 Charge =  0 Multiplicity = 1

                         Standard orientation:
 ---------------------------------------------------------------------
 Center     Atomic      Atomic             Coordinates (Angstroms)
 Number     Number       Type             X           Y           Z
 ---------------------------------------------------------------------
      1          6           0       -4.622747   -0.256117   -0.000001
      2          6           0       -3.288002    0.494014   -0.000001
      3          6           0       -2.071969   -0.438265    0.000001
      4          6           0       -0.730830    0.304069   -0.000000
      5          6           0        0.466319   -0.652502    0.000002
      6          6           0        1.854952   -0.020860    0.000001
      7          6           0        2.068395    1.474779    0.000001
      8          7           0        2.837539   -0.847338   -0.000000
      9          7           0        4.102426   -0.383254    0.000003
     10          1           0       -5.471451    0.435164   -0.000002
     11          1           0       -4.716110   -0.897767    0.883362
     12          1           0       -4.716110   -0.897769   -0.883362
     13          1           0       -3.238313    1.153587    0.876731
     14          1           0       -3.238312    1.153584   -0.876736
     15          1           0       -2.121052   -1.099147   -0.876778
     16          1           0       -2.121053   -1.099143    0.876781
     17          1           0       -0.688160    0.962381    0.878352
     18          1           0       -0.688159    0.962378   -0.878355
     19          1           0        0.387111   -1.314700   -0.871991
     20          1           0        0.387111   -1.314695    0.871998
     21          1           0        1.135689    2.036659    0.000003
     22          1           0        2.644173    1.790861   -0.882157
     23          1           0        2.644175    1.790859    0.882159
     24          1           0        4.825657   -1.074636   -0.000019
     25          1           0        4.338349    0.595825   -0.000018
 ---------------------------------------------------------------------

 SCF Done:  E(RB3LYP) =  -385.877748045     A.U. after    1 cycles

 The electronic state is 1-A.
 Alpha  occ. eigenvalues --  -14.34256 -14.33308 -10.19378 -10.17912 -10.17470
 Alpha  occ. eigenvalues --  -10.17410 -10.17242 -10.17125 -10.16865  -0.97476
 Alpha  occ. eigenvalues --   -0.81357  -0.78914  -0.74135  -0.70928  -0.67095
 Alpha  occ. eigenvalues --   -0.60410  -0.57242  -0.55090  -0.51294  -0.47152
 Alpha  occ. eigenvalues --   -0.46581  -0.43710  -0.42728  -0.41254  -0.40373
 Alpha  occ. eigenvalues --   -0.39312  -0.37377  -0.36322  -0.35090  -0.34192
 Alpha  occ. eigenvalues --   -0.32806  -0.32203  -0.31681  -0.31349  -0.25088
 Alpha  occ. eigenvalues --   -0.19281
 Alpha virt. eigenvalues --    0.03313   0.07959   0.09319   0.11287   0.12545
 Alpha virt. eigenvalues --    0.12734   0.13612   0.15782   0.16429   0.17145
 Alpha virt. eigenvalues --    0.17800   0.18571   0.18727   0.19805   0.20222

 Mulliken charges:
               1
     1  C   -0.378857
     2  C   -0.166241
     3  C   -0.159466
     4  C   -0.195448
     5  C   -0.246438
     6  C    0.290361
     7  C   -0.502081
     8  N   -0.194657
     9  N   -0.437212
    10  H    0.109249
    11  H    0.113011
    12  H    0.113011
    13  H    0.092319
    14  H    0.092319
    15  H    0.092448
    16  H    0.092448
    17  H    0.094290
    18  H    0.094290
    19  H    0.110798
    20  H    0.110798
    21  H    0.126772
    22  H    0.125347
    23  H    0.125348
    24  H    0.261029
    25  H    0.236562
 Sum of Mulliken charges =  -0.00000

 Dipole moment (field-independent basis, Debye):
    X=              0.8105    Y=              1.4635    Z=             -0.0001  Tot=              1.6729
 Quadrupole moment (field-independent basis, Debye-Ang):
   XX=            -48.8084   YY=            -58.5041   ZZ=            -58.5280
   XY=              3.1960   XZ=             -0.0003   YZ=              0.0000

  Exact polarizability: 129.564  -3.247  85.469  -0.000  -0.000  69.438
 Approx polarizability: 154.743 -10.063 128.272   0.000  -0.000 108.844

 ******    2 imaginary frequencies (negative Signs) ******

                      1                      2                      3
                      A                      A                      A
 Frequencies --   -627.2566               -87.3424                58.9577
 Red. masses --      1.2639                 2.2159                 2.5415
 Frc consts  --      0.2930                 0.0100                 0.0052
 IR Inten    --    175.7601                 0.2365                 0.5958

                      4                      5                      6
                      A                      A                      A
 Frequencies --     87.6587                90.4266               130.6513
 Red. masses --      3.3987                 1.6983                 1.5453
 Frc consts  --      0.0154                 0.0082                 0.0155
 IR Inten    --      0.5472                 0.0264                 1.1607

                      7                      8                      9
                      A                      A                      A
 Frequencies --    177.1097               222.7697               246.8237
 Red. masses --      1.3559                 3.2130                 1.1106
 Frc consts  --      0.0251                 0.0939                 0.0399
 IR Inten    --      0.0039                 1.7439                 0.0431

                     10                     11                     12
                      A                      A                      A
 Frequencies --    272.4734               289.2084               344.8271
 Red. masses --      4.1806                 2.9259                 2.9359
 Frc consts  --      0.1829                 0.1442                 0.2057
 IR Inten    --      2.6211                 8.4698                 2.3717

                     13                     14                     15
                      A                      A                      A
 Frequencies --    393.8514               413.9860               492.1521
 Red. masses --      2.8553                 1.3369                 3.2841
 Frc consts  --      0.2610                 0.1350                 0.4687
 IR Inten    --      1.5008                 0.5032                 4.9407

                     16                     17                     18
                      A                      A                      A
 Frequencies --    594.0609               624.7594               733.8616
 Red. masses --      1.9045                 2.7629                 1.0748
 Frc consts  --      0.3960                 0.6354                 0.3410
 IR Inten    --      2.5274                 6.4768                 3.5882

                     19                     20                     21
                      A                      A                      A
 Frequencies --    748.9603               785.2901               838.5243
 Red. masses --      1.1387                 3.4398                 1.2156
 Frc consts  --      0.3763                 1.2498                 0.5036
 IR Inten    --      0.1951                 1.2140                 0.3425

                     22                     23                     24
                      A                      A                      A
 Frequencies --    904.4056               967.7651               999.8762
 Red. masses --      1.8511                 1.2227                 1.7059
 Frc consts  --      0.8921                 0.6747                 1.0049
 IR Inten    --      1.1869                 0.2429                 8.6469

                     25                     26                     27
                      A                      A                      A
 Frequencies --   1017.6136              1028.6928              1056.3521
 Red. masses --      3.6588                 1.3441                 2.7092
 Frc consts  --      2.2323                 0.8380                 1.7812
 IR Inten    --      7.6869                 0.0430                 4.0174

                     28                     29                     30
                      A                      A                      A
 Frequencies --   1069.7329              1120.1249              1132.4661
 Red. masses --      2.2931                 2.2955                 1.4478
 Frc consts  --      1.5461                 1.6969                 1.0940
 IR Inten    --      1.1467                12.3152                 0.3491

                     31                     32                     33
                      A                      A                      A
 Frequencies --   1175.1385              1205.9465              1232.8932
 Red. masses --      3.4491                 1.7884                 1.5308
 Frc consts  --      2.8063                 1.5324                 1.3709
 IR Inten    --    116.2888                 6.5245                 0.0440

                     34                     35                     36
                      A                      A                      A
 Frequencies --   1267.6066              1295.3317              1298.4710
 Red. masses --      1.3694                 1.2375                 2.4761
 Frc consts  --      1.2964                 1.2234                 2.4597
 IR Inten    --      2.8861                 0.1278                13.2146

                     37                     38                     39
                      A                      A                      A
 Frequencies --   1331.5542              1332.0324              1337.2208
 Red. masses --      1.0518                 1.1209                 1.4490
 Frc consts  --      1.0988                 1.1718                 1.5266
 IR Inten    --      0.0107                 0.7325                 2.4408

                     40                     41                     42
                      A                      A                      A
 Frequencies --   1387.7534              1398.4670              1404.3126
 Red. masses --      1.5296                 1.5061                 1.3609
 Frc consts  --      1.7356                 1.7354                 1.5813
 IR Inten    --      1.8615                 5.1869                10.4588

                     43                     44                     45
                      A                      A                      A
 Frequencies --   1413.5108              1477.5145              1483.7101
 Red. masses --      1.2547                 1.0758                 1.0686
 Frc consts  --      1.4770                 1.3837                 1.3860
 IR Inten    --      0.3891                 0.0797                 0.4204

                     46                     47                     48
                      A                      A                      A
 Frequencies --   1488.6975              1489.9062              1498.0740
 Red. masses --      1.0440                 1.0681                 1.0695
 Frc consts  --      1.3632                 1.3969                 1.4142
 IR Inten    --      3.0603                 0.8223                 6.5937

                     49                     50                     51
                      A                      A                      A
 Frequencies --   1499.8097              1505.3515              1514.8568
 Red. masses --      1.0402                 1.0755                 1.0931
 Frc consts  --      1.3787                 1.4359                 1.4779
 IR Inten    --      4.9945                 2.5240                 1.2633

                     52                     53                     54
                      A                      A                      A
 Frequencies --   1639.8188              1686.7869              2993.7986
 Red. masses --      1.2683                 4.7639                 1.0445
 Frc consts  --      2.0094                 7.9861                 5.5160
 IR Inten    --     53.2147                 8.4917                20.5377

                     55                     56                     57
                      A                      A                      A
 Frequencies --   3000.9367              3004.2769              3012.7602
 Red. masses --      1.0574                 1.0583                 1.0597
 Frc consts  --      5.6105                 5.6277                 5.6670
 IR Inten    --      0.2683                 3.6708                 6.2177

                     58                     59                     60
                      A                      A                      A
 Frequencies --   3018.3754              3022.6122              3028.1097
 Red. masses --      1.0593                 1.0983                 1.0357
 Frc consts  --      5.6861                 5.9120                 5.5953
 IR Inten    --     93.9906                 0.2108                42.3004

                     61                     62                     63
                      A                      A                      A
 Frequencies --   3030.6855              3031.6278              3046.0899
 Red. masses --      1.1013                 1.0981                 1.1040
 Frc consts  --      5.9597                 5.9464                 6.0352
 IR Inten    --      3.0925                19.1980                 0.0006

                     64                     65                     66
                      A                      A                      A
 Frequencies --   3062.7406              3094.3535              3099.3739
 Red. masses --      1.1051                 1.1020                 1.1010
 Frc consts  --      6.1074                 6.2169                 6.2314
 IR Inten    --     87.6600                59.2217                39.3541

                     67                     68                     69
                      A                      A                      A
 Frequencies --   3153.4394              3584.9922              3763.9335
 Red. masses --      1.0910                 1.0450                 1.1016
 Frc consts  --      6.3920                 7.9133                 9.1951
 IR Inten    --     11.4144                13.1264                48.3596

 - Thermochemistry -
 -------------------
 Temperature   298.150 Kelvin.  Pressure   1.00000 Atm.
 Atom     1 has atomic number  6 and mass  12.00000

 Molecular mass:   128.13135 amu.
 Principal axes and moments of inertia in atomic units:
                           1         2         3
     Eigenvalues --   300.173393787.471834021.02305
           X            0.99995   0.01003  -0.00000
           Y           -0.01003   0.99995   0.00000
           Z            0.00000  -0.00000   1.00000
 This molecule is an asymmetric top.
 Rotational symmetry number  1.
 Rotational temperatures (Kelvin)      0.28855     0.02287     0.02154
 Rotational constants (GHZ):           6.01233     0.47650     0.44883
    2 imaginary frequencies ignored.
 Zero-point vibrational energy     593086.1 (Joules/Mol)
                                  141.75098 (Kcal/Mol)
 Warning -- explicit consideration of  14 degrees of freedom as
           vibrations may cause significant error
 Vibrational temperatures:     84.83   126.12   130.10   187.98   254.82
          (Kelvin)            320.52   355.12   392.03   416.11   496.13
                              566.66   595.63   708.10   854.72   898.89
                             1055.86  1077.59  1129.86  1206.45  1301.24
                             1392.40  1438.60  1464.12  1480.06  1519.86
                             1539.11  1611.61  1629.37  1690.76  1735.09
                             1773.86  1823.80  1863.69  1868.21  1915.81
                             1916.50  1923.96  1996.67  2012.08  2020.49
                             2033.73  2125.81  2134.73  2141.90  2143.64
                             2155.39  2157.89  2165.87  2179.54  2359.33
                             2426.91  4307.41  4317.68  4322.48  4334.69
                             4342.77  4348.86  4356.77  4360.48  4361.84
                             4382.64  4406.60  4452.08  4459.31  4537.10
                             5158.00  5415.46

 Zero-point correction=                           0.225895 (Hartree/Particle)
 Thermal correction to Energy=                    0.236591
 Thermal correction to Enthalpy=                  0.237535
 Thermal correction to Gibbs Free Energy=         0.189529
 Sum of electronic and zero-point Energies=           -385.651853
 Sum of electronic and thermal Energies=              -385.641157
 Sum of electronic and thermal Enthalpies=            -385.640213
 Sum of electronic and thermal Free Energies=         -385.688219

                     E (Thermal)             CV                S
                      KCal/Mol        Cal/Mol-Kelvin    Cal/Mol-Kelvin
 Total                  148.463             38.925            101.037
 Electronic               0.000              0.000              0.000
 Translational            0.889              2.981             40.457
 Rotational               0.889              2.981             29.904
 Vibrational            146.686             32.963             30.677
 Vibration     1          0.596              1.974              4.492
 Vibration     2          0.601              1.958              3.712
 Vibration     3          0.602              1.956              3.651
 Vibration     4          0.612              1.923              2.936
 Vibration     5          0.628              1.871              2.359
 Vibration     6          0.648              1.806              1.936
 Vibration     7          0.661              1.768              1.753
 Vibration     8          0.675              1.724              1.580
 Vibration     9          0.686              1.694              1.479
 Vibration    10          0.723              1.586              1.190
 Vibration    11          0.761              1.483              0.986
 Vibration    12          0.778              1.440              0.913
 Vibration    13          0.848              1.267              0.678
 Vibration    14          0.952              1.044              0.460

 Optimization completed.
    -- Stationary point found.
 Normal termination of Gaussian 16 at Sun Jul  3 21:29:27 2022.
