 Gaussian 16, Revision A.03,
 Gaussian 16:  ES64L-G16RevA.03 25-Dec-2016

 -----------------------------
 # opt freq b3lyp/6-31g(2df,p)
 -----------------------------

 -------------------
 Title Card Required
 -------------------
 Symbolic Z-matrix:
 Charge =  0 Multiplicity = 1

 SCF Done:  E(RB3LYP) =  -405.716192948     A.U. after   12 cycles
 SCF Done:  E(RB3LYP) =  -405.720356597     A.U. after   11 cycles
 SCF Done:  E(RB3LYP) =  -405.722456595     A.U. after   11 cycles
 SCF Done:  E(RB3LYP) =  -405.723480617     A.U. after   10 cycles
 SCF Done:  E(RB3LYP) =  -405.723623918     A.U. after   10 cycles
 SCF Done:  E(RB3LYP) =  -405.723644620     A.U. after    8 cycles
 SCF Done:  E(RB3LYP) =  -405.723648504     A.U. after    7 cycles
 SCF Done:  E(RB3LYP) =  -405.723647514     A.U. after    7 cycles
 SCF Done:  E(RB3LYP) =  -405.723647707     A.U. after    6 cycles
 Optimization completed.
    -- Stationary point found.
 Normal termination of Gaussian 16 at Thu Aug  4 03:27:30 2022.

 ----------------------------------------------------------------------
 #N Geom=AllCheck Guess=TCheck SCRF=Check GenChk RB3LYP/6-31G(2df,p) Fr
 eq
 ----------------------------------------------------------------------

 Structure from the checkpoint file:  "CCCC1CCONC1.chk"
 -------------------
 Title Card Required
 -------------------
 Charge =  0 Multiplicity = 1

                         Standard orientation:
 ---------------------------------------------------------------------
 Center     Atomic      Atomic             Coordinates (Angstroms)
 Number     Number       Type             X           Y           Z
 ---------------------------------------------------------------------
      1          6           0       -3.337443    0.055726   -0.646610
      2          6           0       -1.813318    0.156433   -0.526584
      3          6           0       -1.333872   -0.107756    0.907987
      4          6           0        0.183434   -0.136725    1.198793
      5          6           0        0.944378    1.171392    0.866777
      6          6           0        1.481889    1.212135   -0.570592
      7          8           0        2.188864    0.019737   -0.874351
      8          7           0        1.219826   -1.054340   -0.843735
      9          6           0        0.929194   -1.329734    0.567495
     10          1           0       -3.672002    0.261563   -1.668289
     11          1           0       -3.838696    0.769448    0.017636
     12          1           0       -3.690960   -0.946161   -0.376912
     13          1           0       -1.496953    1.157561   -0.843997
     14          1           0       -1.332298   -0.544110   -1.215220
     15          1           0       -1.751119   -1.069296    1.241195
     16          1           0       -1.782777    0.649160    1.567069
     17          1           0        0.258734   -0.277646    2.284766
     18          1           0        1.804074    1.252994    1.542572
     19          1           0        0.308455    2.044952    1.053409
     20          1           0        2.212736    2.018865   -0.687247
     21          1           0        0.678593    1.358644   -1.302768
     22          1           0        1.760356   -1.824901   -1.229332
     23          1           0        1.855070   -1.521994    1.132529
     24          1           0        0.311528   -2.235430    0.601957
 ---------------------------------------------------------------------

 SCF Done:  E(RB3LYP) =  -405.723647707     A.U. after    1 cycles

 The electronic state is 1-A.
 Alpha  occ. eigenvalues --  -19.15351 -14.35949 -10.21834 -10.20378 -10.18651
 Alpha  occ. eigenvalues --  -10.17779 -10.17428 -10.16855 -10.16644  -1.05463
 Alpha  occ. eigenvalues --   -0.84403  -0.80614  -0.75968  -0.69220  -0.65660
 Alpha  occ. eigenvalues --   -0.63094  -0.58035  -0.53251  -0.51307  -0.47225
 Alpha  occ. eigenvalues --   -0.45824  -0.45578  -0.42269  -0.41638  -0.41221
 Alpha  occ. eigenvalues --   -0.40388  -0.37173  -0.36604  -0.36044  -0.34337
 Alpha  occ. eigenvalues --   -0.33183  -0.32050  -0.30826  -0.30086  -0.26885
 Alpha  occ. eigenvalues --   -0.21707
 Alpha virt. eigenvalues --    0.07549   0.09668   0.10429   0.11769   0.11966
 Alpha virt. eigenvalues --    0.13073   0.13983   0.15832   0.16606   0.16944
 Alpha virt. eigenvalues --    0.17501   0.18199   0.19194   0.19715   0.20183

 Mulliken charges:
               1
     1  C   -0.377732
     2  C   -0.161094
     3  C   -0.180846
     4  C    0.015379
     5  C   -0.222345
     6  C   -0.051371
     7  O   -0.262979
     8  N   -0.217016
     9  C   -0.141210
    10  H    0.108858
    11  H    0.108703
    12  H    0.109978
    13  H    0.092116
    14  H    0.117938
    15  H    0.085438
    16  H    0.086892
    17  H    0.071536
    18  H    0.098482
    19  H    0.092391
    20  H    0.100792
    21  H    0.101994
    22  H    0.239546
    23  H    0.088569
    24  H    0.095984
 Sum of Mulliken charges =  -0.00000

 Dipole moment (field-independent basis, Debye):
    X=             -0.2361    Y=             -0.3508    Z=              1.0181  Tot=              1.1024
 Quadrupole moment (field-independent basis, Debye-Ang):
   XX=            -60.4587   YY=            -52.2040   ZZ=            -57.9470
   XY=             -1.0381   XZ=              1.0364   YZ=              0.2816

  Exact polarizability:  93.215   1.657  85.160   0.532  -1.023  79.276
 Approx polarizability: 120.401   2.818 125.645  -1.621  -0.742 115.806

                      1                      2                      3
                      A                      A                      A
 Frequencies --     86.8642                93.5464               131.7726
 Red. masses --      1.9923                 2.3652                 3.3053
 Frc consts  --      0.0089                 0.0122                 0.0338
 IR Inten    --      0.0741                 0.2117                 1.0315

                      4                      5                      6
                      A                      A                      A
 Frequencies --    202.0893               227.6472               250.6708
 Red. masses --      2.6933                 2.0407                 1.2029
 Frc consts  --      0.0648                 0.0623                 0.0445
 IR Inten    --      0.7011                 0.8827                 0.1108

                      7                      8                      9
                      A                      A                      A
 Frequencies --    287.4200               368.5199               411.5902
 Red. masses --      2.9496                 1.9331                 2.8587
 Frc consts  --      0.1436                 0.1547                 0.2853
 IR Inten    --      0.9959                 2.6571                 8.5584

                     10                     11                     12
                      A                      A                      A
 Frequencies --    452.1637               474.7305               532.9447
 Red. masses --      2.9220                 3.0104                 2.2897
 Frc consts  --      0.3520                 0.3997                 0.3832
 IR Inten    --      6.7356                 1.1708                 6.1995

                     13                     14                     15
                      A                      A                      A
 Frequencies --    736.5543               744.8405               752.8195
 Red. masses --      2.5810                 1.9085                 1.4592
 Frc consts  --      0.8250                 0.6238                 0.4872
 IR Inten    --      4.9914                 0.9575                 3.8588

                     16                     17                     18
                      A                      A                      A
 Frequencies --    818.9999               855.0440               862.0137
 Red. masses --      2.2378                 2.0867                 1.7978
 Frc consts  --      0.8844                 0.8988                 0.7871
 IR Inten    --     17.4285                 3.8808                 1.3499

                     19                     20                     21
                      A                      A                      A
 Frequencies --    892.4710               901.9049               976.8804
 Red. masses --      1.9510                 2.0556                 2.4960
 Frc consts  --      0.9156                 0.9852                 1.4034
 IR Inten    --      5.8151                 1.3218                 1.6928

                     22                     23                     24
                      A                      A                      A
 Frequencies --   1015.6441              1025.7402              1045.3271
 Red. masses --      1.6841                 2.0140                 2.7231
 Frc consts  --      1.0235                 1.2485                 1.7532
 IR Inten    --     27.0911                 2.3071                 1.6531

                     25                     26                     27
                      A                      A                      A
 Frequencies --   1058.1743              1074.2609              1092.8391
 Red. masses --      1.8011                 2.5422                 1.5886
 Frc consts  --      1.1882                 1.7285                 1.1178
 IR Inten    --      7.6474                15.0458                34.4552

                     28                     29                     30
                      A                      A                      A
 Frequencies --   1103.8627              1159.8919              1172.0222
 Red. masses --      1.9122                 2.1670                 1.6393
 Frc consts  --      1.3728                 1.7177                 1.3267
 IR Inten    --      4.5480                 4.9425                 1.9873

                     31                     32                     33
                      A                      A                      A
 Frequencies --   1229.7127              1252.3443              1273.5661
 Red. masses --      1.4788                 1.2449                 1.2241
 Frc consts  --      1.3176                 1.1504                 1.1698
 IR Inten    --      6.8413                 1.2440                 0.2673

                     34                     35                     36
                      A                      A                      A
 Frequencies --   1290.3532              1322.7336              1327.2166
 Red. masses --      1.1865                 1.3660                 1.2151
 Frc consts  --      1.1640                 1.4082                 1.2611
 IR Inten    --      7.3443                 1.8546                 1.1922

                     37                     38                     39
                      A                      A                      A
 Frequencies --   1360.7800              1366.0419              1372.1578
 Red. masses --      1.4364                 1.3884                 1.3224
 Frc consts  --      1.5672                 1.5265                 1.4670
 IR Inten    --      1.7650                 1.7697                 0.2855

                     40                     41                     42
                      A                      A                      A
 Frequencies --   1404.1748              1405.9366              1407.5850
 Red. masses --      1.3573                 1.3971                 1.2895
 Frc consts  --      1.5767                 1.6271                 1.5053
 IR Inten    --      7.4106                 4.4730                 3.6770

                     43                     44                     45
                      A                      A                      A
 Frequencies --   1416.7278              1469.4528              1471.1998
 Red. masses --      1.2865                 1.1153                 1.0951
 Frc consts  --      1.5213                 1.4190                 1.3965
 IR Inten    --      2.5279                 8.4014                 2.0204

                     46                     47                     48
                      A                      A                      A
 Frequencies --   1475.8812              1486.3363              1491.6796
 Red. masses --      1.1433                 1.0956                 1.1137
 Frc consts  --      1.4673                 1.4261                 1.4600
 IR Inten    --      1.5699                 2.6752                 2.3951

                     49                     50                     51
                      A                      A                      A
 Frequencies --   1496.0704              1499.6790              1514.1993
 Red. masses --      1.0507                 1.0414                 1.0906
 Frc consts  --      1.3856                 1.3799                 1.4732
 IR Inten    --      2.1260                 5.1362                 2.7177

                     52                     53                     54
                      A                      A                      A
 Frequencies --   2972.0719              2990.9360              3012.9870
 Red. masses --      1.0671                 1.0615                 1.0763
 Frc consts  --      5.5536                 5.5946                 5.7565
 IR Inten    --     52.2931                16.2759                36.5521

                     55                     56                     57
                      A                      A                      A
 Frequencies --   3020.5618              3024.2783              3027.4816
 Red. masses --      1.0896                 1.0370                 1.0681
 Frc consts  --      5.8575                 5.5881                 5.7682
 IR Inten    --     13.5173                36.6556                19.8751

                     58                     59                     60
                      A                      A                      A
 Frequencies --   3030.5455              3037.3485              3054.9793
 Red. masses --      1.0666                 1.0680                 1.0944
 Frc consts  --      5.7716                 5.8049                 6.0177
 IR Inten    --     50.8336                57.0549                33.9483

                     61                     62                     63
                      A                      A                      A
 Frequencies --   3066.6199              3076.8133              3087.4685
 Red. masses --      1.0998                 1.0969                 1.1053
 Frc consts  --      6.0938                 6.1179                 6.2079
 IR Inten    --     33.5940                 3.8469                46.0275

                     64                     65                     66
                      A                      A                      A
 Frequencies --   3097.9450              3102.6371              3495.1558
 Red. masses --      1.1013                 1.0992                 1.0757
 Frc consts  --      6.2274                 6.2346                 7.7426
 IR Inten    --     41.2000                45.3576                 0.7795

 - Thermochemistry -
 -------------------
 Temperature   298.150 Kelvin.  Pressure   1.00000 Atm.
 Atom     1 has atomic number  6 and mass  12.00000

 Molecular mass:   129.11536 amu.
 Principal axes and moments of inertia in atomic units:
                           1         2         3
     Eigenvalues --   701.910751801.004551810.67300
           X            0.99977   0.01279   0.01717
           Y           -0.00232   0.86193  -0.50703
           Z           -0.02128   0.50687   0.86176
 This molecule is an asymmetric top.
 Rotational symmetry number  1.
 Warning -- assumption of classical behavior for rotation
           may cause significant error
 Rotational temperatures (Kelvin)      0.12340     0.04809     0.04784
 Rotational constants (GHZ):           2.57118     1.00207     0.99672
 Zero-point vibrational energy     575648.5 (Joules/Mol)
                                  137.58329 (Kcal/Mol)
 Warning -- explicit consideration of  12 degrees of freedom as
           vibrations may cause significant error
 Vibrational temperatures:    124.98   134.59   189.59   290.76   327.53
          (Kelvin)            360.66   413.53   530.22   592.19   650.56
                              683.03   766.79  1059.74  1071.66  1083.14
                             1178.36  1230.22  1240.25  1284.07  1297.64
                             1405.51  1461.29  1475.81  1503.99  1522.48
                             1545.62  1572.35  1588.21  1668.83  1686.28
                             1769.28  1801.84  1832.38  1856.53  1903.12
                             1909.57  1957.86  1965.43  1974.23  2020.29
                             2022.83  2025.20  2038.36  2114.21  2116.73
                             2123.46  2138.51  2146.19  2152.51  2157.70
                             2178.60  4276.15  4303.29  4335.02  4345.91
                             4351.26  4355.87  4360.28  4370.07  4395.43
                             4412.18  4426.85  4442.18  4457.25  4464.00
                             5028.75

 Zero-point correction=                           0.219253 (Hartree/Particle)
 Thermal correction to Energy=                    0.228661
 Thermal correction to Enthalpy=                  0.229606
 Thermal correction to Gibbs Free Energy=         0.184963
 Sum of electronic and zero-point Energies=           -405.504395
 Sum of electronic and thermal Energies=              -405.494986
 Sum of electronic and thermal Enthalpies=            -405.494042
 Sum of electronic and thermal Free Energies=         -405.538685

                     E (Thermal)             CV                S
                      KCal/Mol        Cal/Mol-Kelvin    Cal/Mol-Kelvin
 Total                  143.487             36.120             93.959
 Electronic               0.000              0.000              0.000
 Translational            0.889              2.981             40.480
 Rotational               0.889              2.981             29.216
 Vibrational            141.710             30.159             24.263
 Vibration     1          0.601              1.958              3.729
 Vibration     2          0.603              1.954              3.585
 Vibration     3          0.612              1.922              2.920
 Vibration     4          0.639              1.837              2.114
 Vibration     5          0.651              1.799              1.897
 Vibration     6          0.663              1.762              1.726
 Vibration     7          0.685              1.697              1.489
 Vibration     8          0.741              1.537              1.086
 Vibration     9          0.776              1.445              0.921
 Vibration    10          0.811              1.356              0.789
 Vibration    11          0.831              1.306              0.724
 Vibration    12          0.888              1.177              0.581

 Optimization completed.
    -- Stationary point found.
 Normal termination of Gaussian 16 at Thu Aug  4 04:11:08 2022.
