 Gaussian 16, Revision A.03,
 Gaussian 16:  ES64L-G16RevA.03 25-Dec-2016

 -----------------------------
 # opt freq b3lyp/6-31g(2df,p)
 -----------------------------

 -------------------
 Title Card Required
 -------------------
 Symbolic Z-matrix:
 Charge =  0 Multiplicity = 1

 SCF Done:  E(RB3LYP) =  -404.484344713     A.U. after   12 cycles
 SCF Done:  E(RB3LYP) =  -404.502088887     A.U. after   11 cycles
 SCF Done:  E(RB3LYP) =  -404.509527324     A.U. after   11 cycles
 SCF Done:  E(RB3LYP) =  -404.512529671     A.U. after   11 cycles
 SCF Done:  E(RB3LYP) =  -404.513697195     A.U. after   10 cycles
 SCF Done:  E(RB3LYP) =  -404.514151801     A.U. after   10 cycles
 SCF Done:  E(RB3LYP) =  -404.514644575     A.U. after   11 cycles
 SCF Done:  E(RB3LYP) =  -404.511782297     A.U. after   11 cycles
 SCF Done:  E(RB3LYP) =  -404.516561254     A.U. after   11 cycles
 SCF Done:  E(RB3LYP) =  -404.520479490     A.U. after   12 cycles
 SCF Done:  E(RB3LYP) =  -404.523415119     A.U. after   10 cycles
 SCF Done:  E(RB3LYP) =  -404.523827321     A.U. after    6 cycles
 SCF Done:  E(RB3LYP) =  -404.525011827     A.U. after   11 cycles
 SCF Done:  E(RB3LYP) =  -404.524625120     A.U. after   11 cycles
 SCF Done:  E(RB3LYP) =  -404.525479442     A.U. after    9 cycles
 SCF Done:  E(RB3LYP) =  -404.525555958     A.U. after    9 cycles
 SCF Done:  E(RB3LYP) =  -404.525569812     A.U. after    8 cycles
 SCF Done:  E(RB3LYP) =  -404.525571181     A.U. after    7 cycles
 SCF Done:  E(RB3LYP) =  -404.525571401     A.U. after    6 cycles
 Optimization completed.
    -- Stationary point found.
 Normal termination of Gaussian 16 at Thu Aug  4 09:44:44 2022.

 ----------------------------------------------------------------------
 #N Geom=AllCheck Guess=TCheck SCRF=Check GenChk RB3LYP/6-31G(2df,p) Fr
 eq
 ----------------------------------------------------------------------

 Structure from the checkpoint file:  "CCCC1CN2CC2O1.chk"
 -------------------
 Title Card Required
 -------------------
 Charge =  0 Multiplicity = 1

                         Standard orientation:
 ---------------------------------------------------------------------
 Center     Atomic      Atomic             Coordinates (Angstroms)
 Number     Number       Type             X           Y           Z
 ---------------------------------------------------------------------
      1          6           0        3.814685   -0.108400   -0.142706
      2          6           0        2.399106   -0.441489    0.334903
      3          6           0        1.363329    0.602926   -0.095643
      4          6           0       -0.053009    0.281742    0.360977
      5          6           0       -1.135438    1.305544   -0.071191
      6          7           0       -2.327725    0.524239   -0.433691
      7          6           0       -2.753967   -0.433632    0.621629
      8          6           0       -1.854147   -0.854253   -0.481558
      9          8           0       -0.484446   -0.948076   -0.242970
     10          1           0        4.532435   -0.869669    0.178212
     11          1           0        4.152671    0.855901    0.253749
     12          1           0        3.859952   -0.048976   -1.235865
     13          1           0        2.390753   -0.527681    1.429699
     14          1           0        2.093635   -1.419555   -0.052109
     15          1           0        1.360456    0.698541   -1.189166
     16          1           0        1.638115    1.587310    0.307655
     17          1           0       -0.059304    0.160504    1.454506
     18          1           0       -0.812801    1.855164   -0.962145
     19          1           0       -1.362886    2.030095    0.715306
     20          1           0       -3.812187   -0.676383    0.598680
     21          1           0       -2.328309   -0.343150    1.617760
     22          1           0       -2.166243   -1.501785   -1.295145
 ---------------------------------------------------------------------

 SCF Done:  E(RB3LYP) =  -404.525571401     A.U. after    1 cycles

 The electronic state is 1-A.
 Alpha  occ. eigenvalues --  -19.14715 -14.32807 -10.25561 -10.23408 -10.20990
 Alpha  occ. eigenvalues --  -10.20629 -10.18253 -10.17820 -10.17224  -1.06286
 Alpha  occ. eigenvalues --   -0.93866  -0.80313  -0.76016  -0.69897  -0.63912
 Alpha  occ. eigenvalues --   -0.60581  -0.59221  -0.56513  -0.51416  -0.48935
 Alpha  occ. eigenvalues --   -0.45983  -0.45086  -0.42972  -0.42049  -0.40577
 Alpha  occ. eigenvalues --   -0.39140  -0.37313  -0.36721  -0.34831  -0.33769
 Alpha  occ. eigenvalues --   -0.33076  -0.31983  -0.31151  -0.26530  -0.22764
 Alpha virt. eigenvalues --    0.08695   0.09724   0.11237   0.11746   0.12473
 Alpha virt. eigenvalues --    0.13614   0.13923   0.14859   0.15628   0.16081
 Alpha virt. eigenvalues --    0.16339   0.18236   0.18811   0.19265   0.20036

 Mulliken charges:
               1
     1  C   -0.381972
     2  C   -0.166963
     3  C   -0.194314
     4  C    0.107069
     5  C   -0.198587
     6  N   -0.126752
     7  C   -0.281330
     8  C    0.127029
     9  O   -0.267890
    10  H    0.112556
    11  H    0.111066
    12  H    0.115359
    13  H    0.091550
    14  H    0.118801
    15  H    0.101711
    16  H    0.095090
    17  H    0.073409
    18  H    0.110664
    19  H    0.111817
    20  H    0.118775
    21  H    0.115141
    22  H    0.107769
 Sum of Mulliken charges =   0.00000

 Dipole moment (field-independent basis, Debye):
    X=              0.5848    Y=              0.4191    Z=              1.0437  Tot=              1.2677
 Quadrupole moment (field-independent basis, Debye-Ang):
   XX=            -56.9642   YY=            -55.9500   ZZ=            -54.4549
   XY=              3.1534   XZ=             -2.0880   YZ=              1.4686

  Exact polarizability: 100.504   3.818  74.296  -2.391   0.948  71.963
 Approx polarizability: 118.815   3.154 113.270  -2.607   1.907 113.032

                      1                      2                      3
                      A                      A                      A
 Frequencies --     71.9933                95.1370               104.7922
 Red. masses --      3.0597                 1.8633                 3.5107
 Frc consts  --      0.0093                 0.0099                 0.0227
 IR Inten    --      0.4390                 0.2788                 0.0663

                      4                      5                      6
                      A                      A                      A
 Frequencies --    176.9995               247.7653               301.2485
 Red. masses --      2.5428                 1.1258                 2.8260
 Frc consts  --      0.0469                 0.0407                 0.1511
 IR Inten    --      0.8015                 0.0323                 0.6330

                      7                      8                      9
                      A                      A                      A
 Frequencies --    316.9168               364.9250               460.5316
 Red. masses --      2.7014                 2.9034                 2.6226
 Frc consts  --      0.1599                 0.2278                 0.3277
 IR Inten    --      4.2285                 2.3854                 0.7312

                     10                     11                     12
                      A                      A                      A
 Frequencies --    495.2687               683.5337               694.7270
 Red. masses --      2.1678                 3.1727                 3.1336
 Frc consts  --      0.3133                 0.8734                 0.8911
 IR Inten    --      4.1363                 4.0026                 8.5993

                     13                     14                     15
                      A                      A                      A
 Frequencies --    740.5704               751.2657               838.7390
 Red. masses --      1.7995                 1.7401                 2.0945
 Frc consts  --      0.5815                 0.5786                 0.8681
 IR Inten    --     13.0436                11.2188                 7.3778

                     16                     17                     18
                      A                      A                      A
 Frequencies --    862.3044               888.9995               903.3012
 Red. masses --      3.8924                 1.7422                 2.1109
 Frc consts  --      1.7052                 0.8113                 1.0148
 IR Inten    --     17.2658                 6.6173                 2.5114

                     19                     20                     21
                      A                      A                      A
 Frequencies --    940.6329               986.0402              1000.9239
 Red. masses --      2.4685                 1.8245                 1.6272
 Frc consts  --      1.2869                 1.0452                 0.9605
 IR Inten    --      3.9593                 6.8075                22.9536

                     22                     23                     24
                      A                      A                      A
 Frequencies --   1036.2744              1052.6746              1081.8372
 Red. masses --      2.0130                 2.7398                 1.3960
 Frc consts  --      1.2737                 1.7888                 0.9626
 IR Inten    --      4.8692                 2.7212                 1.3630

                     25                     26                     27
                      A                      A                      A
 Frequencies --   1095.3531              1106.0377              1134.9832
 Red. masses --      1.9980                 1.9337                 1.6353
 Frc consts  --      1.4124                 1.3937                 1.2412
 IR Inten    --      6.2697                 9.0477                 0.5456

                     28                     29                     30
                      A                      A                      A
 Frequencies --   1137.5336              1170.9904              1182.9990
 Red. masses --      2.0657                 3.1332                 2.1484
 Frc consts  --      1.5749                 2.5313                 1.7714
 IR Inten    --     10.8567               158.5499                 4.9340

                     31                     32                     33
                      A                      A                      A
 Frequencies --   1236.9462              1265.6572              1269.7137
 Red. masses --      1.2821                 2.0947                 1.3940
 Frc consts  --      1.1558                 1.9770                 1.3241
 IR Inten    --      0.5309                14.0224                 2.0975

                     34                     35                     36
                      A                      A                      A
 Frequencies --   1288.3485              1320.0663              1329.1191
 Red. masses --      1.2661                 1.3009                 1.1098
 Frc consts  --      1.2381                 1.3356                 1.1552
 IR Inten    --      6.2189                 7.5164                 0.5539

                     37                     38                     39
                      A                      A                      A
 Frequencies --   1352.9647              1374.5208              1401.5875
 Red. masses --      1.2124                 1.4667                 1.5799
 Frc consts  --      1.3076                 1.6327                 1.8287
 IR Inten    --      9.0424                10.5961                13.5233

                     40                     41                     42
                      A                      A                      A
 Frequencies --   1411.0564              1417.6373              1471.9572
 Red. masses --      1.3244                 1.4079                 1.0848
 Frc consts  --      1.5536                 1.6670                 1.3847
 IR Inten    --      1.9722                 0.7353                 0.4838

                     43                     44                     45
                      A                      A                      A
 Frequencies --   1492.9699              1494.4245              1500.1589
 Red. masses --      1.0569                 1.1287                 1.0405
 Frc consts  --      1.3880                 1.4852                 1.3797
 IR Inten    --      0.4257                 3.3838                 5.5891

                     46                     47                     48
                      A                      A                      A
 Frequencies --   1503.5399              1509.8685              2983.0646
 Red. masses --      1.1528                 1.0822                 1.0826
 Frc consts  --      1.5354                 1.4535                 5.6762
 IR Inten    --      5.6681                 3.1691                25.8122

                     49                     50                     51
                      A                      A                      A
 Frequencies --   3011.8497              3020.9749              3027.9587
 Red. masses --      1.0587                 1.0677                 1.0370
 Frc consts  --      5.6585                 5.7412                 5.6016
 IR Inten    --      6.9662                25.2031                36.3385

                     52                     53                     54
                      A                      A                      A
 Frequencies --   3044.2096              3052.0864              3072.3542
 Red. masses --      1.0625                 1.0942                 1.0991
 Frc consts  --      5.8016                 6.0056                 6.1129
 IR Inten    --     40.3378                20.8342                 5.4161

                     55                     56                     57
                      A                      A                      A
 Frequencies --   3097.1599              3099.0920              3101.7190
 Red. masses --      1.1023                 1.1040                 1.1006
 Frc consts  --      6.2301                 6.2470                 6.2384
 IR Inten    --     39.1457                42.8286                35.6466

                     58                     59                     60
                      A                      A                      A
 Frequencies --   3109.1509              3161.3421              3196.5255
 Red. masses --      1.0517                 1.0928                 1.1183
 Frc consts  --      5.9901                 6.4349                 6.7322
 IR Inten    --     19.2776                23.9252                19.5257

 - Thermochemistry -
 -------------------
 Temperature   298.150 Kelvin.  Pressure   1.00000 Atm.
 Atom     1 has atomic number  6 and mass  12.00000

 Molecular mass:   127.09971 amu.
 Principal axes and moments of inertia in atomic units:
                           1         2         3
     Eigenvalues --   366.256732198.743712366.75731
           X            0.99997   0.00237  -0.00727
           Y           -0.00237   1.00000   0.00008
           Z            0.00727  -0.00007   0.99997
 This molecule is an asymmetric top.
 Rotational symmetry number  1.
 Rotational temperatures (Kelvin)      0.23648     0.03939     0.03660
 Rotational constants (GHZ):           4.92753     0.82081     0.76254
 Zero-point vibrational energy     511662.7 (Joules/Mol)
                                  122.29032 (Kcal/Mol)
 Warning -- explicit consideration of  10 degrees of freedom as
           vibrations may cause significant error
 Vibrational temperatures:    103.58   136.88   150.77   254.66   356.48
          (Kelvin)            433.43   455.97   525.05   662.60   712.58
                              983.45   999.56  1065.52  1080.90  1206.76
                             1240.66  1279.07  1299.65  1353.36  1418.69
                             1440.11  1490.97  1514.56  1556.52  1575.97
                             1591.34  1632.99  1636.66  1684.79  1702.07
                             1779.69  1821.00  1826.83  1853.65  1899.28
                             1912.31  1946.61  1977.63  2016.57  2030.20
                             2039.66  2117.82  2148.05  2150.14  2158.39
                             2163.26  2172.36  4291.96  4333.38  4346.51
                             4356.56  4379.94  4391.27  4420.43  4456.12
                             4458.90  4462.68  4473.37  4548.47  4599.09

 Zero-point correction=                           0.194882 (Hartree/Particle)
 Thermal correction to Energy=                    0.203853
 Thermal correction to Enthalpy=                  0.204797
 Thermal correction to Gibbs Free Energy=         0.160690
 Sum of electronic and zero-point Energies=           -404.330689
 Sum of electronic and thermal Energies=              -404.321718
 Sum of electronic and thermal Enthalpies=            -404.320774
 Sum of electronic and thermal Free Energies=         -404.364882

                     E (Thermal)             CV                S
                      KCal/Mol        Cal/Mol-Kelvin    Cal/Mol-Kelvin
 Total                  127.920             33.879             92.832
 Electronic               0.000              0.000              0.000
 Translational            0.889              2.981             40.433
 Rotational               0.889              2.981             29.034
 Vibrational            126.142             27.917             23.364
 Vibration     1          0.598              1.967              4.098
 Vibration     2          0.603              1.953              3.552
 Vibration     3          0.605              1.945              3.363
 Vibration     4          0.628              1.871              2.360
 Vibration     5          0.661              1.766              1.746
 Vibration     6          0.693              1.671              1.410
 Vibration     7          0.704              1.641              1.326
 Vibration     8          0.738              1.544              1.101
 Vibration     9          0.818              1.338              0.765
 Vibration    10          0.851              1.261              0.670

 Optimization completed.
    -- Stationary point found.
 Normal termination of Gaussian 16 at Thu Aug  4 10:18:38 2022.
