 Gaussian 16, Revision A.03,
 Gaussian 16:  ES64L-G16RevA.03 25-Dec-2016

 -----------------------------
 # opt freq b3lyp/6-31g(2df,p)
 -----------------------------

 -------------------
 Title Card Required
 -------------------
 Symbolic Z-matrix:
 Charge =  0 Multiplicity = 1

 SCF Done:  E(RB3LYP) =  -466.142935341     A.U. after   12 cycles
 SCF Done:  E(RB3LYP) =  -466.149236397     A.U. after   11 cycles
 SCF Done:  E(RB3LYP) =  -466.152675265     A.U. after   10 cycles
 SCF Done:  E(RB3LYP) =  -466.154515071     A.U. after   10 cycles
 SCF Done:  E(RB3LYP) =  -466.155305339     A.U. after   10 cycles
 SCF Done:  E(RB3LYP) =  -466.155562730     A.U. after   10 cycles
 SCF Done:  E(RB3LYP) =  -466.155849650     A.U. after   10 cycles
 SCF Done:  E(RB3LYP) =  -466.155708443     A.U. after   12 cycles
 SCF Done:  E(RB3LYP) =  -466.156215908     A.U. after   11 cycles
 SCF Done:  E(RB3LYP) =  -466.156175890     A.U. after    9 cycles
 SCF Done:  E(RB3LYP) =  -466.156292775     A.U. after   10 cycles
 SCF Done:  E(RB3LYP) =  -466.156278291     A.U. after   10 cycles
 SCF Done:  E(RB3LYP) =  -466.156306494     A.U. after    9 cycles
 SCF Done:  E(RB3LYP) =  -466.156305210     A.U. after    8 cycles
 SCF Done:  E(RB3LYP) =  -466.156307851     A.U. after    8 cycles
 SCF Done:  E(RB3LYP) =  -466.156307793     A.U. after    7 cycles
 SCF Done:  E(RB3LYP) =  -466.156307965     A.U. after    7 cycles
 SCF Done:  E(RB3LYP) =  -466.156308069     A.U. after    6 cycles
 Optimization completed.
    -- Stationary point found.
 Normal termination of Gaussian 16 at Wed Aug  3 05:46:16 2022.

 ----------------------------------------------------------------------
 #N Geom=AllCheck Guess=TCheck SCRF=Check GenChk RB3LYP/6-31G(2df,p) Fr
 eq
 ----------------------------------------------------------------------

 Structure from the checkpoint file:  "CCCCpCCOpCOC.chk"
 -------------------
 Title Card Required
 -------------------
 Charge =  0 Multiplicity = 1

                         Standard orientation:
 ---------------------------------------------------------------------
 Center     Atomic      Atomic             Coordinates (Angstroms)
 Number     Number       Type             X           Y           Z
 ---------------------------------------------------------------------
      1          6           0       -3.650728   -1.548474    0.064520
      2          6           0       -2.471047   -0.628374   -0.263920
      3          6           0       -1.124499   -1.216779    0.172901
      4          6           0        0.115163   -0.378142   -0.188923
      5          6           0        0.138496    1.020566    0.474983
      6          6           0       -0.304518    2.155484   -0.452325
      7          8           0       -0.225319    3.431541    0.164695
      8          6           0        1.379280   -1.165744    0.163676
      9          8           0        2.508019   -0.464751   -0.312444
     10          6           0        3.724890   -1.087316    0.018800
     11          1           0       -4.600952   -1.109209   -0.254665
     12          1           0       -3.716779   -1.738357    1.141733
     13          1           0       -3.547366   -2.518342   -0.434700
     14          1           0       -2.628519    0.343605    0.218864
     15          1           0       -2.448259   -0.432790   -1.344031
     16          1           0       -1.019825   -2.213480   -0.277819
     17          1           0       -1.140864   -1.378628    1.260730
     18          1           0        0.133163   -0.245255   -1.280350
     19          1           0        1.155343    1.252256    0.804145
     20          1           0       -0.496478    1.016773    1.373137
     21          1           0       -1.315517    1.967893   -0.846480
     22          1           0        0.370895    2.202374   -1.313548
     23          1           0       -0.824837    3.429234    0.917596
     24          1           0        1.340160   -2.172190   -0.287230
     25          1           0        1.448749   -1.303883    1.258058
     26          1           0        4.530500   -0.470710   -0.387400
     27          1           0        3.799005   -2.098085   -0.413556
     28          1           0        3.857755   -1.172838    1.109237
 ---------------------------------------------------------------------

 SCF Done:  E(RB3LYP) =  -466.156308069     A.U. after    1 cycles

 The electronic state is 1-A.
 Alpha  occ. eigenvalues --  -19.13828 -19.12521 -10.22321 -10.22280 -10.21663
 Alpha  occ. eigenvalues --  -10.18548 -10.18167 -10.18029 -10.17441 -10.17114
 Alpha  occ. eigenvalues --   -1.03161  -1.00590  -0.81591  -0.76575  -0.72190
 Alpha  occ. eigenvalues --   -0.69301  -0.64538  -0.61722  -0.58841  -0.56405
 Alpha  occ. eigenvalues --   -0.49731  -0.48543  -0.47757  -0.46293  -0.45319
 Alpha  occ. eigenvalues --   -0.44069  -0.42332  -0.41538  -0.39537  -0.38632
 Alpha  occ. eigenvalues --   -0.37988  -0.36523  -0.35452  -0.33705  -0.33538
 Alpha  occ. eigenvalues --   -0.32243  -0.31967  -0.30914  -0.30301  -0.25705
 Alpha  occ. eigenvalues --   -0.25339
 Alpha virt. eigenvalues --    0.07466   0.08661   0.09454   0.11159   0.11734
 Alpha virt. eigenvalues --    0.12522   0.13589   0.14933   0.15280   0.16164
 Alpha virt. eigenvalues --    0.16274   0.16873   0.17032   0.17824   0.18107

 Mulliken charges:
               1
     1  C   -0.381869
     2  C   -0.173869
     3  C   -0.173759
     4  C   -0.010388
     5  C   -0.207685
     6  C   -0.062635
     7  O   -0.420278
     8  C   -0.070128
     9  O   -0.232828
    10  C   -0.227264
    11  H    0.112207
    12  H    0.113484
    13  H    0.114458
    14  H    0.096525
    15  H    0.096976
    16  H    0.089752
    17  H    0.091225
    18  H    0.079271
    19  H    0.118730
    20  H    0.073696
    21  H    0.085347
    22  H    0.117032
    23  H    0.277426
    24  H    0.081811
    25  H    0.080597
    26  H    0.127333
    27  H    0.102101
    28  H    0.102734
 Sum of Mulliken charges =  -0.00000

 Dipole moment (field-independent basis, Debye):
    X=             -0.6780    Y=             -2.1133    Z=              1.0022  Tot=              2.4352
 Quadrupole moment (field-independent basis, Debye-Ang):
   XX=            -60.2921   YY=            -70.6491   ZZ=            -62.8306
   XY=             -5.0289   XZ=             -0.0759   YZ=              2.5612

  Exact polarizability: 113.215   0.293  98.087  -0.723   0.880  83.023
 Approx polarizability: 133.473   0.482 132.419  -2.455   1.528 130.049

                      1                      2                      3
                      A                      A                      A
 Frequencies --     46.7380                67.3128                75.1078
 Red. masses --      2.8632                 2.8440                 2.4400
 Frc consts  --      0.0037                 0.0076                 0.0081
 IR Inten    --      0.9504                 0.0298                 3.5843

                      4                      5                      6
                      A                      A                      A
 Frequencies --     91.8248                96.7209               119.0071
 Red. masses --      2.2705                 1.7118                 2.5126
 Frc consts  --      0.0113                 0.0094                 0.0210
 IR Inten    --      1.0188                 0.7673                 0.8115

                      7                      8                      9
                      A                      A                      A
 Frequencies --    143.3779               207.8164               235.0366
 Red. masses --      2.0370                 2.8935                 1.6427
 Frc consts  --      0.0247                 0.0736                 0.0535
 IR Inten    --      0.9202                 4.7450                 1.7342

                     10                     11                     12
                      A                      A                      A
 Frequencies --    239.3097               248.5278               295.3779
 Red. masses --      2.0037                 1.1348                 1.3348
 Frc consts  --      0.0676                 0.0413                 0.0686
 IR Inten    --      2.9478                 0.0598                69.3169

                     13                     14                     15
                      A                      A                      A
 Frequencies --    304.2655               331.5269               337.6462
 Red. masses --      2.4689                 2.9198                 3.4415
 Frc consts  --      0.1347                 0.1891                 0.2312
 IR Inten    --     27.8952                 0.0656                 7.5439

                     16                     17                     18
                      A                      A                      A
 Frequencies --    469.8830               485.1948               562.5625
 Red. masses --      3.0146                 2.5410                 2.6442
 Frc consts  --      0.3922                 0.3524                 0.4930
 IR Inten    --      6.9173                 1.6987                 0.3939

                     19                     20                     21
                      A                      A                      A
 Frequencies --    748.4531               773.8112               862.0581
 Red. masses --      1.1029                 1.1801                 1.4668
 Frc consts  --      0.3640                 0.4163                 0.6422
 IR Inten    --      2.5029                 4.4107                 0.9517

                     22                     23                     24
                      A                      A                      A
 Frequencies --    889.3090               912.3732               978.6921
 Red. masses --      1.8819                 1.8731                 2.2455
 Frc consts  --      0.8769                 0.9187                 1.2672
 IR Inten    --      3.8099                 1.4276                18.0974

                     25                     26                     27
                      A                      A                      A
 Frequencies --    991.6631              1015.2935              1023.6963
 Red. masses --      2.7716                 3.0954                 1.4578
 Frc consts  --      1.6059                 1.8800                 0.9001
 IR Inten    --     14.8500                15.4823                 6.4377

                     28                     29                     30
                      A                      A                      A
 Frequencies --   1049.1352              1077.6214              1084.4657
 Red. masses --      2.3762                 3.5278                 2.6116
 Frc consts  --      1.5410                 2.4137                 1.8096
 IR Inten    --      1.1925                96.4531                17.0852

                     31                     32                     33
                      A                      A                      A
 Frequencies --   1123.2469              1136.1300              1148.4919
 Red. masses --      1.3629                 2.1473                 2.4600
 Frc consts  --      1.0131                 1.6331                 1.9118
 IR Inten    --      6.3581                10.5698                49.7192

                     34                     35                     36
                      A                      A                      A
 Frequencies --   1171.3741              1185.8748              1208.9797
 Red. masses --      4.5291                 1.3090                 1.5454
 Frc consts  --      3.6614                 1.0846                 1.3309
 IR Inten    --    118.0899                 1.5975                 7.8961

                     37                     38                     39
                      A                      A                      A
 Frequencies --   1226.7292              1254.8961              1267.8459
 Red. masses --      1.6292                 1.2567                 1.3051
 Frc consts  --      1.4445                 1.1660                 1.2360
 IR Inten    --     36.2339                 6.1850                 0.9227

                     40                     41                     42
                      A                      A                      A
 Frequencies --   1293.5098              1309.5822              1319.8625
 Red. masses --      1.2282                 1.1992                 1.1759
 Frc consts  --      1.2108                 1.2117                 1.2069
 IR Inten    --      0.7506                 0.3294                 8.2725

                     43                     44                     45
                      A                      A                      A
 Frequencies --   1336.5446              1350.9721              1380.7533
 Red. masses --      1.1226                 1.3435                 1.2730
 Frc consts  --      1.1815                 1.4448                 1.4299
 IR Inten    --      1.4205                 0.7406                11.1982

                     46                     47                     48
                      A                      A                      A
 Frequencies --   1395.5017              1407.3561              1413.6454
 Red. masses --      1.4797                 1.3745                 1.2493
 Frc consts  --      1.6978                 1.6039                 1.4709
 IR Inten    --      0.5321                 3.7094                 0.8558

                     49                     50                     51
                      A                      A                      A
 Frequencies --   1420.2419              1421.9699              1479.5186
 Red. masses --      1.3201                 1.3245                 1.0794
 Frc consts  --      1.5689                 1.5779                 1.3921
 IR Inten    --     45.6564                29.5035                 0.2577

                     52                     53                     54
                      A                      A                      A
 Frequencies --   1479.8651              1485.4809              1489.2616
 Red. masses --      1.1479                 1.0481                 1.0761
 Frc consts  --      1.4812                 1.3627                 1.4062
 IR Inten    --      2.3542                 4.1023                 4.7190

                     55                     56                     57
                      A                      A                      A
 Frequencies --   1493.5066              1499.8309              1502.9986
 Red. masses --      1.0676                 1.0405                 1.0621
 Frc consts  --      1.4030                 1.3790                 1.4136
 IR Inten    --      1.8995                 5.6846                 9.0932

                     58                     59                     60
                      A                      A                      A
 Frequencies --   1509.9799              1514.6350              1527.3380
 Red. masses --      1.0813                 1.0916                 1.0937
 Frc consts  --      1.4525                 1.4755                 1.5033
 IR Inten    --      3.3720                 0.3156                 0.8735

                     61                     62                     63
                      A                      A                      A
 Frequencies --   2936.2496              2966.5337              2969.5252
 Red. masses --      1.0556                 1.0674                 1.0689
 Frc consts  --      5.3619                 5.5343                 5.5534
 IR Inten    --     33.0201                55.7597                72.5016

                     64                     65                     66
                      A                      A                      A
 Frequencies --   2983.4155              2995.9240              2998.6610
 Red. masses --      1.0692                 1.0616                 1.0721
 Frc consts  --      5.6073                 5.6141                 5.6798
 IR Inten    --     51.0259                20.9427                 7.3240

                     67                     68                     69
                      A                      A                      A
 Frequencies --   3006.7870              3009.9246              3020.0911
 Red. masses --      1.0785                 1.1030                 1.0631
 Frc consts  --      5.7446                 5.8876                 5.7129
 IR Inten    --     41.0076                52.9391                39.3649

                     70                     71                     72
                      A                      A                      A
 Frequencies --   3028.7548              3031.0674              3058.4026
 Red. masses --      1.0361                 1.0960                 1.1019
 Frc consts  --      5.5997                 5.9329                 6.0729
 IR Inten    --     40.0350                31.3479                29.0982

                     73                     74                     75
                      A                      A                      A
 Frequencies --   3067.8374              3092.2020              3095.8544
 Red. masses --      1.0894                 1.0955                 1.1022
 Frc consts  --      6.0409                 6.1717                 6.2240
 IR Inten    --     26.4456                27.8064                54.7763

                     76                     77                     78
                      A                      A                      A
 Frequencies --   3101.7361              3112.1986              3814.2290
 Red. masses --      1.1009                 1.0957                 1.0661
 Frc consts  --      6.2406                 6.2526                 9.1379
 IR Inten    --     36.3721                29.5523                12.7781

 - Thermochemistry -
 -------------------
 Temperature   298.150 Kelvin.  Pressure   1.00000 Atm.
 Atom     1 has atomic number  6 and mass  12.00000

 Molecular mass:   146.13068 amu.
 Principal axes and moments of inertia in atomic units:
                           1         2         3
     Eigenvalues --  1506.732492453.756943781.87793
           X            0.99998   0.00595   0.00361
           Y           -0.00594   0.99998  -0.00289
           Z           -0.00362   0.00287   0.99999
 This molecule is an asymmetric top.
 Rotational symmetry number  1.
 Warning -- assumption of classical behavior for rotation
           may cause significant error
 Rotational temperatures (Kelvin)      0.05748     0.03530     0.02290
 Rotational constants (GHZ):           1.19778     0.73550     0.47721
 Zero-point vibrational energy     668767.1 (Joules/Mol)
                                  159.83917 (Kcal/Mol)
 Warning -- explicit consideration of  18 degrees of freedom as
           vibrations may cause significant error
 Vibrational temperatures:     67.25    96.85   108.06   132.12   139.16
          (Kelvin)            171.22   206.29   299.00   338.17   344.31
                              357.58   424.98   437.77   476.99   485.80
                              676.06   698.09   809.40  1076.86  1113.34
                             1240.31  1279.52  1312.70  1408.12  1426.78
                             1460.78  1472.87  1509.47  1550.46  1560.30
                             1616.10  1634.64  1652.42  1685.35  1706.21
                             1739.45  1764.99  1805.52  1824.15  1861.07
                             1884.20  1898.99  1922.99  1943.75  1986.60
                             2007.82  2024.87  2033.92  2043.41  2045.90
                             2128.70  2129.20  2137.28  2142.72  2148.82
                             2157.92  2162.48  2172.52  2179.22  2197.50
                             4224.61  4268.18  4272.48  4292.47  4310.47
                             4314.40  4326.10  4330.61  4345.24  4357.70
                             4361.03  4400.36  4413.93  4448.99  4454.24
                             4462.71  4477.76  5487.82

 Zero-point correction=                           0.254720 (Hartree/Particle)
 Thermal correction to Energy=                    0.268016
 Thermal correction to Enthalpy=                  0.268960
 Thermal correction to Gibbs Free Energy=         0.214301
 Sum of electronic and zero-point Energies=           -465.901588
 Sum of electronic and thermal Energies=              -465.888292
 Sum of electronic and thermal Enthalpies=            -465.887348
 Sum of electronic and thermal Free Energies=         -465.942007

                     E (Thermal)             CV                S
                      KCal/Mol        Cal/Mol-Kelvin    Cal/Mol-Kelvin
 Total                  168.183             46.449            115.040
 Electronic               0.000              0.000              0.000
 Translational            0.889              2.981             40.849
 Rotational               0.889              2.981             31.014
 Vibrational            166.405             40.487             43.177
 Vibration     1          0.595              1.979              4.951
 Vibration     2          0.598              1.970              4.230
 Vibration     3          0.599              1.966              4.015
 Vibration     4          0.602              1.955              3.621
 Vibration     5          0.603              1.952              3.519
 Vibration     6          0.609              1.933              3.116
 Vibration     7          0.616              1.910              2.758
 Vibration     8          0.641              1.829              2.063
 Vibration     9          0.655              1.787              1.840
 Vibration    10          0.657              1.780              1.808
 Vibration    11          0.662              1.765              1.741
 Vibration    12          0.690              1.682              1.443
 Vibration    13          0.695              1.666              1.393
 Vibration    14          0.714              1.613              1.253
 Vibration    15          0.718              1.600              1.223
 Vibration    16          0.827              1.317              0.738
 Vibration    17          0.841              1.283              0.696
 Vibration    18          0.918              1.112              0.519

                           ! Non-Optimized Parameters !
 Normal termination of Gaussian 16 at Wed Aug  3 06:34:04 2022.
