 Gaussian 16, Revision A.03,
 Gaussian 16:  ES64L-G16RevA.03 25-Dec-2016

 -----------------------------
 # opt freq b3lyp/6-31g(2df,p)
 -----------------------------

 -------------------
 Title Card Required
 -------------------
 Symbolic Z-matrix:
 Charge =  0 Multiplicity = 1

 SCF Done:  E(RB3LYP) =  -426.769674513     A.U. after   12 cycles
 SCF Done:  E(RB3LYP) =  -426.772016388     A.U. after   10 cycles
 SCF Done:  E(RB3LYP) =  -426.772342246     A.U. after    9 cycles
 SCF Done:  E(RB3LYP) =  -426.772384258     A.U. after    9 cycles
 SCF Done:  E(RB3LYP) =  -426.772409385     A.U. after   10 cycles
 SCF Done:  E(RB3LYP) =  -426.772431591     A.U. after   12 cycles
 SCF Done:  E(RB3LYP) =  -426.772685471     A.U. after   10 cycles
 SCF Done:  E(RB3LYP) =  -426.772570787     A.U. after   11 cycles
 SCF Done:  E(RB3LYP) =  -426.772658288     A.U. after   13 cycles
 SCF Done:  E(RB3LYP) =  -426.773288236     A.U. after   12 cycles
 SCF Done:  E(RB3LYP) =  -426.770747693     A.U. after   12 cycles
 SCF Done:  E(RB3LYP) =  -426.772719777     A.U. after   12 cycles
 SCF Done:  E(RB3LYP) =  -426.773390706     A.U. after    8 cycles
 SCF Done:  E(RB3LYP) =  -426.773433946     A.U. after   11 cycles
 SCF Done:  E(RB3LYP) =  -426.773482146     A.U. after    9 cycles
 SCF Done:  E(RB3LYP) =  -426.773483316     A.U. after    7 cycles
 SCF Done:  E(RB3LYP) =  -426.773483416     A.U. after    7 cycles
 SCF Done:  E(RB3LYP) =  -426.773483423     A.U. after    6 cycles
 Optimization completed.
    -- Stationary point found.
 Normal termination of Gaussian 16 at Thu Aug  4 09:42:16 2022.

 ----------------------------------------------------------------------
 #N Geom=AllCheck Guess=TCheck SCRF=Check GenChk RB3LYP/6-31G(2df,p) Fr
 eq
 ----------------------------------------------------------------------

 Structure from the checkpoint file:  "CCCCCpCpCOO.chk"
 -------------------
 Title Card Required
 -------------------
 Charge =  0 Multiplicity = 1

                         Standard orientation:
 ---------------------------------------------------------------------
 Center     Atomic      Atomic             Coordinates (Angstroms)
 Number     Number       Type             X           Y           Z
 ---------------------------------------------------------------------
      1          6           0       -4.504254   -0.056210   -0.248881
      2          6           0       -3.181645   -0.641254    0.253481
      3          6           0       -1.956162    0.157276   -0.205850
      4          6           0       -0.633891   -0.430594    0.301122
      5          6           0        0.629230    0.287111   -0.210853
      6          6           0        0.730218    1.740630    0.274165
      7          6           0        1.866336   -0.517063    0.200400
      8          8           0        2.990149    0.076948   -0.435558
      9          8           0        4.146353   -0.712892   -0.082241
     10          1           0       -5.359259   -0.647326    0.093896
     11          1           0       -4.535146   -0.030357   -1.343903
     12          1           0       -4.644617    0.970125    0.108439
     13          1           0       -3.086076   -1.680090   -0.089365
     14          1           0       -3.193528   -0.685610    1.350724
     15          1           0       -2.061697    1.195739    0.131996
     16          1           0       -1.938910    0.194712   -1.304211
     17          1           0       -0.584963   -1.487009    0.004168
     18          1           0       -0.631674   -0.423832    1.400732
     19          1           0        0.601656    0.287388   -1.309314
     20          1           0        0.708905    1.785442    1.370214
     21          1           0       -0.097206    2.348818   -0.100633
     22          1           0        1.663553    2.197317   -0.063261
     23          1           0        1.777801   -1.564213   -0.116637
     24          1           0        1.998664   -0.498846    1.293528
     25          1           0        4.591497   -0.114091    0.534512
 ---------------------------------------------------------------------

 SCF Done:  E(RB3LYP) =  -426.773483423     A.U. after    1 cycles

 The electronic state is 1-A.
 Alpha  occ. eigenvalues --  -19.18621 -19.18477 -10.22355 -10.18983 -10.18051
 Alpha  occ. eigenvalues --  -10.17881 -10.17774 -10.17192 -10.17078  -1.10966
 Alpha  occ. eigenvalues --   -0.90656  -0.81072  -0.77262  -0.70819  -0.67291
 Alpha  occ. eigenvalues --   -0.62762  -0.57807  -0.56327  -0.52269  -0.48303
 Alpha  occ. eigenvalues --   -0.46729  -0.44840  -0.44039  -0.42416  -0.41397
 Alpha  occ. eigenvalues --   -0.40352  -0.38398  -0.37756  -0.35871  -0.35424
 Alpha  occ. eigenvalues --   -0.33920  -0.32923  -0.32190  -0.31866  -0.31363
 Alpha  occ. eigenvalues --   -0.28652  -0.25800
 Alpha virt. eigenvalues --    0.03788   0.08098   0.09136   0.10292   0.11402
 Alpha virt. eigenvalues --    0.11953   0.14051   0.15074   0.15425   0.16268
 Alpha virt. eigenvalues --    0.17110   0.17825   0.18434   0.18856   0.19147

 Mulliken charges:
               1
     1  C   -0.380521
     2  C   -0.162703
     3  C   -0.171401
     4  C   -0.186691
     5  C   -0.009054
     6  C   -0.392716
     7  C   -0.009690
     8  O   -0.198846
     9  O   -0.321714
    10  H    0.111120
    11  H    0.113852
    12  H    0.113208
    13  H    0.094520
    14  H    0.094018
    15  H    0.097456
    16  H    0.092962
    17  H    0.092768
    18  H    0.091919
    19  H    0.087140
    20  H    0.107111
    21  H    0.116265
    22  H    0.129378
    23  H    0.100426
    24  H    0.082278
    25  H    0.308912
 Sum of Mulliken charges =  -0.00000

 Dipole moment (field-independent basis, Debye):
    X=             -0.7990    Y=              0.4435    Z=              1.4474  Tot=              1.7118
 Quadrupole moment (field-independent basis, Debye-Ang):
   XX=            -58.2964   YY=            -58.6159   ZZ=            -57.3554
   XY=              3.1313   XZ=              6.3427   YZ=              0.2972

  Exact polarizability: 113.930  -0.943  79.707   2.445  -0.017  73.764
 Approx polarizability: 128.829  -3.271 116.531   2.357  -0.181 114.846

                      1                      2                      3
                      A                      A                      A
 Frequencies --     44.6264                67.2449                81.6345
 Red. masses --      2.5679                 1.9797                 3.5517
 Frc consts  --      0.0030                 0.0053                 0.0139
 IR Inten    --      0.4212                 1.3186                 2.4038

                      4                      5                      6
                      A                      A                      A
 Frequencies --    102.7593               117.3789               136.8532
 Red. masses --      3.8475                 2.6394                 1.8624
 Frc consts  --      0.0239                 0.0214                 0.0206
 IR Inten    --      3.2531                 5.1994                 0.0767

                      7                      8                      9
                      A                      A                      A
 Frequencies --    199.8984               218.6281               233.8674
 Red. masses --      3.3207                 1.1002                 1.1467
 Frc consts  --      0.0782                 0.0310                 0.0370
 IR Inten    --      0.6934                81.2419                15.4823

                     10                     11                     12
                      A                      A                      A
 Frequencies --    247.4202               277.6085               302.4485
 Red. masses --      1.1477                 4.8973                 2.5658
 Frc consts  --      0.0414                 0.2224                 0.1383
 IR Inten    --      0.8966                 0.8323                 0.5710

                     13                     14                     15
                      A                      A                      A
 Frequencies --    372.1016               410.9205               488.3009
 Red. masses --      3.6914                 2.1442                 2.7806
 Frc consts  --      0.3011                 0.2133                 0.3906
 IR Inten    --      2.4742                 0.1706                 0.3991

                     16                     17                     18
                      A                      A                      A
 Frequencies --    542.8191               735.7383               787.4162
 Red. masses --      3.0296                 1.0820                 1.2234
 Frc consts  --      0.5260                 0.3451                 0.4469
 IR Inten    --      4.2878                 3.1522                 0.3763

                     19                     20                     21
                      A                      A                      A
 Frequencies --    852.5559               903.3326               917.0280
 Red. masses --      2.5662                 1.8025                 1.2680
 Frc consts  --      1.0990                 0.8666                 0.6283
 IR Inten    --      1.1138                 2.1454                 1.6675

                     22                     23                     24
                      A                      A                      A
 Frequencies --    932.4546               947.7735               956.7113
 Red. masses --      1.2126                 9.4632                 2.0495
 Frc consts  --      0.6212                 5.0084                 1.1053
 IR Inten    --      1.6148                13.7280                 7.3495

                     25                     26                     27
                      A                      A                      A
 Frequencies --   1018.5344              1036.5711              1054.5856
 Red. masses --      2.8885                 1.3923                 3.3734
 Frc consts  --      1.7655                 0.8814                 2.2104
 IR Inten    --      5.1232                 3.0298                11.0074

                     28                     29                     30
                      A                      A                      A
 Frequencies --   1074.4833              1090.5523              1161.2745
 Red. masses --      2.7440                 2.0878                 2.9541
 Frc consts  --      1.8665                 1.4630                 2.3472
 IR Inten    --      4.7086                 0.1373                 3.4953

                     31                     32                     33
                      A                      A                      A
 Frequencies --   1173.0489              1195.3813              1237.4145
 Red. masses --      1.8606                 1.8428                 1.3043
 Frc consts  --      1.5085                 1.5514                 1.1766
 IR Inten    --      5.6591                 0.6950                 1.5314

                     34                     35                     36
                      A                      A                      A
 Frequencies --   1259.7602              1274.5254              1315.6094
 Red. masses --      1.2847                 1.2485                 1.2590
 Frc consts  --      1.2012                 1.1949                 1.2839
 IR Inten    --      0.2815                 2.4532                 0.0976

                     37                     38                     39
                      A                      A                      A
 Frequencies --   1326.0313              1334.0922              1375.4782
 Red. masses --      1.2185                 1.0736                 1.3710
 Frc consts  --      1.2623                 1.1258                 1.5283
 IR Inten    --      0.5060                 0.4746                10.6343

                     40                     41                     42
                      A                      A                      A
 Frequencies --   1379.1690              1385.6776              1397.8264
 Red. masses --      1.3342                 1.1577                 1.4151
 Frc consts  --      1.4952                 1.3097                 1.6291
 IR Inten    --      7.9713                41.5096                 3.0128

                     43                     44                     45
                      A                      A                      A
 Frequencies --   1400.0919              1412.6464              1416.5093
 Red. masses --      1.5429                 1.2435                 1.2828
 Frc consts  --      1.7819                 1.4620                 1.5165
 IR Inten    --      1.0773                 1.0676                 5.2490

                     46                     47                     48
                      A                      A                      A
 Frequencies --   1480.7117              1486.2490              1496.8446
 Red. masses --      1.0770                 1.0659                 1.0569
 Frc consts  --      1.3912                 1.3872                 1.3952
 IR Inten    --      0.3040                 0.7806                 3.7549

                     49                     50                     51
                      A                      A                      A
 Frequencies --   1499.3703              1499.8992              1506.5999
 Red. masses --      1.0679                 1.0426                 1.0511
 Frc consts  --      1.4145                 1.3820                 1.4057
 IR Inten    --      1.0947                 4.7122                 3.9866

                     52                     53                     54
                      A                      A                      A
 Frequencies --   1512.8534              1521.7304              2981.0496
 Red. masses --      1.0888                 1.0821                 1.0614
 Frc consts  --      1.4682                 1.4763                 5.5575
 IR Inten    --      3.3513                 8.3384                25.7457

                     55                     56                     57
                      A                      A                      A
 Frequencies --   2999.1251              3006.7439              3012.7381
 Red. masses --      1.0609                 1.0616                 1.0739
 Frc consts  --      5.6223                 5.6547                 5.7429
 IR Inten    --      7.8148                 0.2888                 0.5122

                     58                     59                     60
                      A                      A                      A
 Frequencies --   3017.6847              3028.2004              3030.0329
 Red. masses --      1.0659                 1.0466                 1.0823
 Frc consts  --      5.7189                 5.6547                 5.8543
 IR Inten    --     74.8281                26.4316                21.4070

                     61                     62                     63
                      A                      A                      A
 Frequencies --   3031.1504              3036.6748              3044.6615
 Red. masses --      1.0451                 1.0996                 1.1004
 Frc consts  --      5.6577                 5.9744                 6.0100
 IR Inten    --     13.8341                 7.9479                34.6087

                     64                     65                     66
                      A                      A                      A
 Frequencies --   3065.0666              3094.8557              3100.5509
 Red. masses --      1.1030                 1.1021                 1.1009
 Frc consts  --      6.1055                 6.2193                 6.2355
 IR Inten    --     78.2819                61.5829                34.7615

                     67                     68                     69
                      A                      A                      A
 Frequencies --   3102.2118              3125.5361              3747.3694
 Red. masses --      1.0942                 1.1012                 1.0687
 Frc consts  --      6.2041                 6.3380                 8.8421
 IR Inten    --     33.3772                22.3948                27.4406

 - Thermochemistry -
 -------------------
 Temperature   298.150 Kelvin.  Pressure   1.00000 Atm.
 Atom     1 has atomic number  6 and mass  12.00000

 Molecular mass:   132.11503 amu.
 Principal axes and moments of inertia in atomic units:
                           1         2         3
     Eigenvalues --   365.541633708.296943923.06081
           X            0.99996   0.00544   0.00707
           Y           -0.00542   0.99998  -0.00251
           Z           -0.00709   0.00247   0.99997
 This molecule is an asymmetric top.
 Rotational symmetry number  1.
 Rotational temperatures (Kelvin)      0.23695     0.02336     0.02208
 Rotational constants (GHZ):           4.93717     0.48668     0.46003
 Zero-point vibrational energy     589906.7 (Joules/Mol)
                                  140.99108 (Kcal/Mol)
 Warning -- explicit consideration of  16 degrees of freedom as
           vibrations may cause significant error
 Vibrational temperatures:     64.21    96.75   117.45   147.85   168.88
          (Kelvin)            196.90   287.61   314.56   336.48   355.98
                              399.42   435.16   535.37   591.22   702.56
                              781.00  1058.56  1132.92  1226.64  1299.69
                             1319.40  1341.59  1363.63  1376.49  1465.44
                             1491.39  1517.31  1545.94  1569.06  1670.81
                             1687.76  1719.89  1780.36  1812.51  1833.76
                             1892.87  1907.86  1919.46  1979.01  1984.32
                             1993.68  2011.16  2014.42  2032.48  2038.04
                             2130.41  2138.38  2153.63  2157.26  2158.02
                             2167.66  2176.66  2189.43  4289.07  4315.07
                             4326.03  4334.66  4341.78  4356.90  4359.54
                             4361.15  4369.10  4380.59  4409.95  4452.81
                             4461.00  4463.39  4496.95  5391.63

 Zero-point correction=                           0.224684 (Hartree/Particle)
 Thermal correction to Energy=                    0.236906
 Thermal correction to Enthalpy=                  0.237850
 Thermal correction to Gibbs Free Energy=         0.185968
 Sum of electronic and zero-point Energies=           -426.548800
 Sum of electronic and thermal Energies=              -426.536578
 Sum of electronic and thermal Enthalpies=            -426.535634
 Sum of electronic and thermal Free Energies=         -426.587515

                     E (Thermal)             CV                S
                      KCal/Mol        Cal/Mol-Kelvin    Cal/Mol-Kelvin
 Total                  148.660             42.514            109.194
 Electronic               0.000              0.000              0.000
 Translational            0.889              2.981             40.548
 Rotational               0.889              2.981             30.054
 Vibrational            146.883             36.552             38.592
 Vibration     1          0.595              1.980              5.042
 Vibration     2          0.598              1.970              4.232
 Vibration     3          0.600              1.962              3.851
 Vibration     4          0.605              1.947              3.401
 Vibration     5          0.608              1.935              3.143
 Vibration     6          0.614              1.917              2.847
 Vibration     7          0.638              1.840              2.134
 Vibration     8          0.646              1.813              1.970
 Vibration     9          0.654              1.789              1.849
 Vibration    10          0.661              1.767              1.749
 Vibration    11          0.679              1.715              1.548
 Vibration    12          0.694              1.669              1.403
 Vibration    13          0.744              1.529              1.071
 Vibration    14          0.775              1.447              0.923
 Vibration    15          0.844              1.276              0.688
 Vibration    16          0.898              1.155              0.559

 Optimization completed.
    -- Stationary point found.
 Normal termination of Gaussian 16 at Thu Aug  4 10:17:31 2022.
