 Gaussian 16, Revision A.03,
 Gaussian 16:  ES64L-G16RevA.03 25-Dec-2016

 -----------------------------
 # opt freq b3lyp/6-31g(2df,p)
 -----------------------------

 -------------------
 Title Card Required
 -------------------
 Symbolic Z-matrix:
 Charge =  0 Multiplicity = 1

 SCF Done:  E(RB3LYP) =  -425.643888766     A.U. after   12 cycles
 SCF Done:  E(RB3LYP) =  -425.646962139     A.U. after   10 cycles
 SCF Done:  E(RB3LYP) =  -425.648757703     A.U. after   10 cycles
 SCF Done:  E(RB3LYP) =  -425.649869721     A.U. after   13 cycles
 SCF Done:  E(RB3LYP) =  -425.650902568     A.U. after   11 cycles
 SCF Done:  E(RB3LYP) =  -425.650993600     A.U. after    9 cycles
 SCF Done:  E(RB3LYP) =  -425.651011335     A.U. after    9 cycles
 SCF Done:  E(RB3LYP) =  -425.651012185     A.U. after    7 cycles
 Optimization completed.
    -- Stationary point found.
 Normal termination of Gaussian 16 at Thu Aug  4 15:31:45 2022.

 ----------------------------------------------------------------------
 #N Geom=AllCheck Guess=TCheck SCRF=Check GenChk RB3LYP/6-31G(2df,p) Fr
 eq
 ----------------------------------------------------------------------

 Structure from the checkpoint file:  "CCCC1OCCCO1.chk"
 -------------------
 Title Card Required
 -------------------
 Charge =  0 Multiplicity = 1

                         Standard orientation:
 ---------------------------------------------------------------------
 Center     Atomic      Atomic             Coordinates (Angstroms)
 Number     Number       Type             X           Y           Z
 ---------------------------------------------------------------------
      1          6           0        3.840202    0.029541   -0.157341
      2          6           0        2.429413    0.383838    0.319530
      3          6           0        1.371045   -0.600809   -0.186058
      4          6           0       -0.034897   -0.260256    0.273292
      5          8           0       -0.392671    0.994953   -0.260821
      6          6           0       -1.703102    1.382990    0.127093
      7          6           0       -2.719903    0.320990   -0.296277
      8          6           0       -2.246969   -1.036568    0.228188
      9          8           0       -0.903488   -1.280806   -0.163915
     10          1           0        4.578056    0.746504    0.216008
     11          1           0        3.899398    0.030129   -1.251410
     12          1           0        4.139166   -0.966695    0.187754
     13          1           0        2.163116    1.392251   -0.013593
     14          1           0        2.409512    0.407350    1.417474
     15          1           0        1.593387   -1.616980    0.158469
     16          1           0        1.363560   -0.626908   -1.281852
     17          1           0       -0.091020   -0.199426    1.380390
     18          1           0       -1.896017    2.348364   -0.348190
     19          1           0       -1.742543    1.527767    1.220738
     20          1           0       -2.777108    0.288461   -1.389253
     21          1           0       -3.715446    0.560961    0.093794
     22          1           0       -2.843270   -1.860713   -0.172097
     23          1           0       -2.326252   -1.062598    1.329092
 ---------------------------------------------------------------------

 SCF Done:  E(RB3LYP) =  -425.651012185     A.U. after    1 cycles

 The electronic state is 1-A.
 Alpha  occ. eigenvalues --  -19.13919 -19.13799 -10.26904 -10.23014 -10.22965
 Alpha  occ. eigenvalues --  -10.18427 -10.17425 -10.17253 -10.16844  -1.06830
 Alpha  occ. eigenvalues --   -0.99962  -0.80475  -0.76959  -0.70451  -0.67381
 Alpha  occ. eigenvalues --   -0.63155  -0.57903  -0.57399  -0.49667  -0.49222
 Alpha  occ. eigenvalues --   -0.48165  -0.44696  -0.44287  -0.43534  -0.41372
 Alpha  occ. eigenvalues --   -0.39478  -0.38757  -0.37080  -0.35290  -0.34906
 Alpha  occ. eigenvalues --   -0.33031  -0.32408  -0.31338  -0.30977  -0.26381
 Alpha  occ. eigenvalues --   -0.25637
 Alpha virt. eigenvalues --    0.09376   0.10121   0.11690   0.12943   0.13126
 Alpha virt. eigenvalues --    0.14072   0.14607   0.14999   0.15840   0.16079
 Alpha virt. eigenvalues --    0.18027   0.18372   0.18737   0.19532   0.20306

 Mulliken charges:
               1
     1  C   -0.381060
     2  C   -0.167312
     3  C   -0.204956
     4  C    0.211021
     5  O   -0.250527
     6  C   -0.075022
     7  C   -0.205895
     8  C   -0.078963
     9  O   -0.251826
    10  H    0.109998
    11  H    0.115300
    12  H    0.111896
    13  H    0.115215
    14  H    0.089913
    15  H    0.102956
    16  H    0.110468
    17  H    0.046537
    18  H    0.109426
    19  H    0.086674
    20  H    0.114287
    21  H    0.096434
    22  H    0.109491
    23  H    0.085944
 Sum of Mulliken charges =  -0.00000

 Dipole moment (field-independent basis, Debye):
    X=             -1.2392    Y=              0.4146    Z=              0.9393  Tot=              1.6093
 Quadrupole moment (field-independent basis, Debye-Ang):
   XX=            -50.6923   YY=            -57.6370   ZZ=            -55.8319
   XY=             -1.2378   XZ=             -0.3930   YZ=             -0.3025

  Exact polarizability: 100.856  -0.608  76.932  -0.211   0.162  71.251
 Approx polarizability: 116.234  -0.737 111.017  -1.272   0.136 110.390

                      1                      2                      3
                      A                      A                      A
 Frequencies --     74.5093                81.5180               113.9709
 Red. masses --      2.6035                 1.8523                 3.3488
 Frc consts  --      0.0085                 0.0073                 0.0256
 IR Inten    --      0.5149                 0.3108                 0.9725

                      4                      5                      6
                      A                      A                      A
 Frequencies --    195.1439               247.0835               261.2226
 Red. masses --      2.6000                 1.1523                 2.5841
 Frc consts  --      0.0583                 0.0414                 0.1039
 IR Inten    --      1.8838                 0.1412                 1.3853

                      7                      8                      9
                      A                      A                      A
 Frequencies --    304.3867               338.3256               367.1977
 Red. masses --      3.0906                 1.8271                 3.3166
 Frc consts  --      0.1687                 0.1232                 0.2635
 IR Inten    --      0.2130                 2.9095                 5.3696

                     10                     11                     12
                      A                      A                      A
 Frequencies --    480.2301               499.8152               569.6173
 Red. masses --      5.0308                 2.5285                 2.5358
 Frc consts  --      0.6836                 0.3722                 0.4848
 IR Inten    --      3.2127                 0.3174                 2.2555

                     13                     14                     15
                      A                      A                      A
 Frequencies --    646.5983               745.1194               830.0251
 Red. masses --      2.5733                 1.1541                 1.7939
 Frc consts  --      0.6339                 0.3775                 0.7282
 IR Inten    --      2.7098                 1.2154                14.1730

                     16                     17                     18
                      A                      A                      A
 Frequencies --    867.8793               899.8129               904.8900
 Red. masses --      2.5113                 1.5589                 1.7875
 Frc consts  --      1.1145                 0.7437                 0.8623
 IR Inten    --      5.7248                 0.5169                 7.1782

                     19                     20                     21
                      A                      A                      A
 Frequencies --    941.1669               949.4326               959.9539
 Red. masses --      1.6654                 2.3791                 2.2523
 Frc consts  --      0.8692                 1.2636                 1.2229
 IR Inten    --      8.0544                17.4836                 9.5007

                     22                     23                     24
                      A                      A                      A
 Frequencies --   1010.8887              1053.0060              1071.4150
 Red. masses --      2.5738                 2.7994                 4.3590
 Frc consts  --      1.5496                 1.8289                 2.9482
 IR Inten    --     64.7397                 5.0338                13.4952

                     25                     26                     27
                      A                      A                      A
 Frequencies --   1090.1942              1131.7584              1143.6097
 Red. masses --      2.1751                 2.3993                 1.8142
 Frc consts  --      1.5231                 1.8107                 1.3979
 IR Inten    --     17.4198                45.6946                 9.8939

                     28                     29                     30
                      A                      A                      A
 Frequencies --   1173.7182              1198.0035              1239.2473
 Red. masses --      4.3614                 2.1805                 1.3011
 Frc consts  --      3.5400                 1.8439                 1.1773
 IR Inten    --    210.7800                 8.0591                 4.9947

                     31                     32                     33
                      A                      A                      A
 Frequencies --   1257.8563              1266.9590              1297.1646
 Red. masses --      1.3081                 1.3110                 1.2992
 Frc consts  --      1.2194                 1.2398                 1.2880
 IR Inten    --     10.5094                20.4708                10.5248

                     34                     35                     36
                      A                      A                      A
 Frequencies --   1313.5224              1324.9660              1370.0826
 Red. masses --      1.1901                 1.0954                 1.3597
 Frc consts  --      1.2098                 1.1330                 1.5037
 IR Inten    --      7.9271                 4.3139                 0.1545

                     37                     38                     39
                      A                      A                      A
 Frequencies --   1375.8614              1386.0298              1412.4752
 Red. masses --      1.2170                 1.4567                 1.2441
 Frc consts  --      1.3574                 1.6487                 1.4625
 IR Inten    --      0.0403                 2.9287                 0.5067

                     40                     41                     42
                      A                      A                      A
 Frequencies --   1414.3983              1418.5905              1432.4812
 Red. masses --      1.3369                 1.2627                 1.6688
 Frc consts  --      1.5758                 1.4971                 2.0176
 IR Inten    --     48.2987                13.7990                24.9727

                     43                     44                     45
                      A                      A                      A
 Frequencies --   1468.7199              1477.3832              1494.3717
 Red. masses --      1.0998                 1.0856                 1.0533
 Frc consts  --      1.3978                 1.3961                 1.3858
 IR Inten    --      3.8102                 2.0843                 0.9860

                     46                     47                     48
                      A                      A                      A
 Frequencies --   1496.8191              1499.9319              1506.0809
 Red. masses --      1.0954                 1.0405                 1.1078
 Frc consts  --      1.4459                 1.3793                 1.4805
 IR Inten    --      2.5706                 5.4707                 4.5801

                     49                     50                     51
                      A                      A                      A
 Frequencies --   1511.5538              2883.5715              2954.2283
 Red. masses --      1.0864                 1.0800                 1.0710
 Frc consts  --      1.4624                 5.2908                 5.5071
 IR Inten    --      2.4784                55.4078                23.1604

                     52                     53                     54
                      A                      A                      A
 Frequencies --   2962.1088              3018.4886              3027.9472
 Red. masses --      1.0712                 1.0671                 1.0359
 Frc consts  --      5.5376                 5.7285                 5.5957
 IR Inten    --     94.5230                20.2419                28.9750

                     55                     56                     57
                      A                      A                      A
 Frequencies --   3041.2687              3041.5156              3066.7270
 Red. masses --      1.0594                 1.0596                 1.0925
 Frc consts  --      5.7734                 5.7751                 6.0536
 IR Inten    --     27.0199                18.1274                 3.0210

                     58                     59                     60
                      A                      A                      A
 Frequencies --   3085.5109              3086.9002              3089.0160
 Red. masses --      1.1028                 1.0953                 1.0912
 Frc consts  --      6.1857                 6.1492                 6.1348
 IR Inten    --      2.2090                29.6639                46.5430

                     61                     62                     63
                      A                      A                      A
 Frequencies --   3096.2426              3100.3687              3101.6637
 Red. masses --      1.1016                 1.1024                 1.1006
 Frc consts  --      6.2220                 6.2436                 6.2384
 IR Inten    --     30.9078                58.5336                49.4300

 - Thermochemistry -
 -------------------
 Temperature   298.150 Kelvin.  Pressure   1.00000 Atm.
 Atom     1 has atomic number  6 and mass  12.00000

 Molecular mass:   130.09938 amu.
 Principal axes and moments of inertia in atomic units:
                           1         2         3
     Eigenvalues --   444.856112140.717232450.77407
           X            0.99999  -0.00434  -0.00329
           Y            0.00435   0.99998   0.00454
           Z            0.00327  -0.00456   0.99998
 This molecule is an asymmetric top.
 Rotational symmetry number  1.
 Warning -- assumption of classical behavior for rotation
           may cause significant error
 Rotational temperatures (Kelvin)      0.19470     0.04046     0.03534
 Rotational constants (GHZ):           4.05691     0.84305     0.73640
 Zero-point vibrational energy     542330.3 (Joules/Mol)
                                  129.62005 (Kcal/Mol)
 Warning -- explicit consideration of  12 degrees of freedom as
           vibrations may cause significant error
 Vibrational temperatures:    107.20   117.29   163.98   280.77   355.50
          (Kelvin)            375.84   437.94   486.78   528.32   690.94
                              719.12   819.55   930.31  1072.06  1194.22
                             1248.68  1294.63  1301.93  1354.13  1366.02
                             1381.16  1454.44  1515.04  1541.53  1568.55
                             1628.35  1645.40  1688.72  1723.66  1783.00
                             1809.77  1822.87  1866.33  1889.87  1906.33
                             1971.24  1979.56  1994.19  2032.24  2035.00
                             2041.04  2061.02  2113.16  2125.62  2150.07
                             2153.59  2158.07  2166.91  2174.79  4148.82
                             4250.48  4261.81  4342.93  4356.54  4375.71
                             4376.06  4412.34  4439.36  4441.36  4444.41
                             4454.80  4460.74  4462.60

 Zero-point correction=                           0.206563 (Hartree/Particle)
 Thermal correction to Energy=                    0.215923
 Thermal correction to Enthalpy=                  0.216867
 Thermal correction to Gibbs Free Energy=         0.171985
 Sum of electronic and zero-point Energies=           -425.444449
 Sum of electronic and thermal Energies=              -425.435090
 Sum of electronic and thermal Enthalpies=            -425.434145
 Sum of electronic and thermal Free Energies=         -425.479027

                     E (Thermal)             CV                S
                      KCal/Mol        Cal/Mol-Kelvin    Cal/Mol-Kelvin
 Total                  135.493             35.189             94.461
 Electronic               0.000              0.000              0.000
 Translational            0.889              2.981             40.502
 Rotational               0.889              2.981             29.236
 Vibrational            133.716             29.227             24.723
 Vibration     1          0.599              1.966              4.031
 Vibration     2          0.600              1.962              3.854
 Vibration     3          0.607              1.938              3.200
 Vibration     4          0.636              1.847              2.178
 Vibration     5          0.661              1.768              1.751
 Vibration     6          0.669              1.744              1.654
 Vibration     7          0.695              1.665              1.393
 Vibration     8          0.719              1.599              1.220
 Vibration     9          0.740              1.540              1.091
 Vibration    10          0.837              1.294              0.709
 Vibration    11          0.855              1.250              0.659
 Vibration    12          0.926              1.097              0.505

 Optimization completed.
    -- Stationary point found.
 Normal termination of Gaussian 16 at Thu Aug  4 16:07:38 2022.
