 Gaussian 16, Revision A.03,
 Gaussian 16:  ES64L-G16RevA.03 25-Dec-2016

 -----------------------------
 # opt freq b3lyp/6-31g(2df,p)
 -----------------------------

 -------------------
 Title Card Required
 -------------------
 Symbolic Z-matrix:
 Charge =  0 Multiplicity = 1

 SCF Done:  E(RB3LYP) =  -364.729808713     A.U. after   23 cycles
 SCF Done:  E(RB3LYP) =  -364.788639773     A.U. after   19 cycles
 SCF Done:  E(RB3LYP) =  -364.848307833     A.U. after   15 cycles
 SCF Done:  E(RB3LYP) =  -364.889536379     A.U. after   16 cycles
 SCF Done:  E(RB3LYP) =  -364.894914640     A.U. after   15 cycles
 SCF Done:  E(RB3LYP) =  -364.903278109     A.U. after   15 cycles
 SCF Done:  E(RB3LYP) =  -364.899246731     A.U. after   13 cycles
 SCF Done:  E(RB3LYP) =  -364.903593074     A.U. after   13 cycles
 SCF Done:  E(RB3LYP) =  -364.903625061     A.U. after   15 cycles
 SCF Done:  E(RB3LYP) =  -364.904300937     A.U. after   12 cycles
 SCF Done:  E(RB3LYP) =  -364.904231228     A.U. after   12 cycles
 SCF Done:  E(RB3LYP) =  -364.904415162     A.U. after   11 cycles
 SCF Done:  E(RB3LYP) =  -364.904417758     A.U. after    9 cycles
 SCF Done:  E(RB3LYP) =  -364.904420620     A.U. after    9 cycles
 Optimization completed.
    -- Stationary point found.
 Normal termination of Gaussian 16 at Sun Jul  3 14:53:52 2022.

 ----------------------------------------------------------------------
 #N Geom=AllCheck Guess=TCheck SCRF=Check GenChk RB3LYP/6-31G(2df,p) Fr
 eq
 ----------------------------------------------------------------------

 Structure from the checkpoint file:  "CCCC1dCCpCtNpdC1.chk"
 -------------------
 Title Card Required
 -------------------
 Charge =  0 Multiplicity = 1

                         Standard orientation:
 ---------------------------------------------------------------------
 Center     Atomic      Atomic             Coordinates (Angstroms)
 Number     Number       Type             X           Y           Z
 ---------------------------------------------------------------------
      1          6           0        4.053355    0.189147   -0.000203
      2          6           0        2.571634    0.571664    0.000396
      3          6           0        1.642602   -0.648514    0.000051
      4          6           0        0.201744   -0.305748   -0.000136
      5          6           0       -1.093055   -1.186757    0.000062
      6          6           0       -1.855252   -0.083361   -0.000076
      7          6           0       -3.229801    0.186014   -0.000026
      8          7           0       -4.360970    0.450402    0.000094
      9          6           0       -0.545155    0.802767   -0.000211
     10          1           0        4.690832    1.078150    0.000095
     11          1           0        4.309993   -0.404263   -0.884662
     12          1           0        4.310503   -0.405202    0.883481
     13          1           0        2.346496    1.190158   -0.876803
     14          1           0        2.346993    1.189273    0.878347
     15          1           0        1.858246   -1.286249    0.871861
     16          1           0        1.858640   -1.286092   -0.871802
     17          1           0       -1.302236   -2.247941    0.000011
     18          1           0       -0.369103    1.868077   -0.000322
 ---------------------------------------------------------------------

 SCF Done:  E(RB3LYP) =  -364.904420620     A.U. after    1 cycles

 The electronic state is 1-A.
 Alpha  occ. eigenvalues --  -14.32923 -10.23717 -10.22805 -10.22002 -10.21979
 Alpha  occ. eigenvalues --  -10.21119 -10.20663 -10.19650 -10.18544  -0.90690
 Alpha  occ. eigenvalues --   -0.88749  -0.80670  -0.73299  -0.68832  -0.65551
 Alpha  occ. eigenvalues --   -0.60964  -0.53523  -0.52934  -0.47953  -0.44533
 Alpha  occ. eigenvalues --   -0.43936  -0.41468  -0.39843  -0.38684  -0.38571
 Alpha  occ. eigenvalues --   -0.36280  -0.35366  -0.34673  -0.33082  -0.32516
 Alpha  occ. eigenvalues --   -0.31741  -0.20689
 Alpha virt. eigenvalues --   -0.08682   0.01638   0.03165   0.08120   0.10525
 Alpha virt. eigenvalues --    0.11488   0.12507   0.12956   0.15015   0.15396
 Alpha virt. eigenvalues --    0.15422   0.17085   0.17928   0.18710   0.18869

 Mulliken charges:
               1
     1  C   -0.384559
     2  C   -0.164199
     3  C   -0.327920
     4  C    0.375249
     5  C   -0.342112
     6  C    0.260658
     7  C    0.193075
     8  N   -0.346976
     9  C   -0.348733
    10  H    0.118202
    11  H    0.117937
    12  H    0.117935
    13  H    0.108356
    14  H    0.108362
    15  H    0.118303
    16  H    0.118298
    17  H    0.143227
    18  H    0.134898
 Sum of Mulliken charges =  -0.00000

 Dipole moment (field-independent basis, Debye):
    X=              5.0269    Y=             -1.1006    Z=             -0.0001  Tot=              5.1460
 Quadrupole moment (field-independent basis, Debye-Ang):
   XX=            -74.6082   YY=            -49.0146   ZZ=            -53.7584
   XY=              3.4635   XZ=              0.0014   YZ=             -0.0004

  Exact polarizability: 134.582 -12.379  79.603  -0.001  -0.001  53.197
 Approx polarizability: 193.703 -41.107 138.505  -0.001  -0.004  84.044

                      1                      2                      3
                      A                      A                      A
 Frequencies --     59.7468                85.9175                89.2253
 Red. masses --      3.7755                 1.8643                 4.9275
 Frc consts  --      0.0079                 0.0081                 0.0231
 IR Inten    --      0.9343                 0.0105                 2.9105

                      4                      5                      6
                      A                      A                      A
 Frequencies --    135.3049               190.0797               243.9067
 Red. masses --      3.7531                 4.9155                 1.0987
 Frc consts  --      0.0405                 0.1046                 0.0385
 IR Inten    --      0.3490                 2.8853                 0.0068

                      7                      8                      9
                      A                      A                      A
 Frequencies --    304.7219               310.2361               368.3889
 Red. masses --      4.0440                 3.6007                 3.6913
 Frc consts  --      0.2212                 0.2042                 0.2951
 IR Inten    --      6.1502                 0.1212                 0.8571

                     10                     11                     12
                      A                      A                      A
 Frequencies --    505.1883               517.6266               557.3797
 Red. masses --      4.7609                 6.2197                 1.9572
 Frc consts  --      0.7159                 0.9819                 0.3583
 IR Inten    --      0.1956                 6.0037                25.3352

                     13                     14                     15
                      A                      A                      A
 Frequencies --    613.1725               701.0565               749.7610
 Red. masses --      5.0814                 1.3039                 1.1708
 Frc consts  --      1.1256                 0.3776                 0.3878
 IR Inten    --      0.0563                 8.4157                 5.6671

                     16                     17                     18
                      A                      A                      A
 Frequencies --    757.8527               811.5614               881.3981
 Red. masses --      3.0107                 1.8747                 1.2914
 Frc consts  --      1.0188                 0.7275                 0.5911
 IR Inten    --      0.5236                18.7383                 0.4415

                     19                     20                     21
                      A                      A                      A
 Frequencies --    894.0145               927.5724              1024.6494
 Red. masses --      2.1564                 4.3446                 3.5184
 Frc consts  --      1.0155                 2.2024                 2.1764
 IR Inten    --      1.4356                 4.4290                 3.2728

                     22                     23                     24
                      A                      A                      A
 Frequencies --   1051.2804              1103.7611              1114.6042
 Red. masses --      2.4802                 1.7608                 1.4726
 Frc consts  --      1.6150                 1.2639                 1.0779
 IR Inten    --      1.9317                 3.2859                 0.2753

                     25                     26                     27
                      A                      A                      A
 Frequencies --   1135.7799              1182.1082              1227.8403
 Red. masses --      1.7453                 1.6302                 2.6721
 Frc consts  --      1.3265                 1.3422                 2.3735
 IR Inten    --      2.3223                11.1450                 4.9992

                     28                     29                     30
                      A                      A                      A
 Frequencies --   1253.4416              1318.3318              1321.7495
 Red. masses --      1.3316                 1.0875                 1.6200
 Frc consts  --      1.2326                 1.1136                 1.6675
 IR Inten    --      0.0015                 0.2461                 3.1249

                     31                     32                     33
                      A                      A                      A
 Frequencies --   1398.7510              1414.8391              1464.8731
 Red. masses --      1.6986                 1.2318                 1.0885
 Frc consts  --      1.9580                 1.4528                 1.3762
 IR Inten    --      0.1688                 0.4939                 3.1500

                     34                     35                     36
                      A                      A                      A
 Frequencies --   1492.9065              1499.9689              1509.0993
 Red. masses --      1.0516                 1.0397                 1.0822
 Frc consts  --      1.3809                 1.3783                 1.4521
 IR Inten    --      1.3952                 5.6627                 3.2635

                     37                     38                     39
                      A                      A                      A
 Frequencies --   1661.5049              1709.8494              2308.3083
 Red. masses --      8.5971                 7.6244                12.6395
 Frc consts  --     13.9831                13.1333                39.6796
 IR Inten    --      9.6807                11.3114                47.0154

                     40                     41                     42
                      A                      A                      A
 Frequencies --   2984.1858              3001.3704              3029.2205
 Red. masses --      1.0589                 1.0979                 1.0534
 Frc consts  --      5.5559                 5.8272                 5.6954
 IR Inten    --     18.9219                11.5033                 8.3940

                     43                     44                     45
                      A                      A                      A
 Frequencies --   3032.3680              3062.7366              3099.1216
 Red. masses --      1.0414                 1.1025                 1.1025
 Frc consts  --      5.6418                 6.0933                 6.2391
 IR Inten    --     43.1190                10.4900                47.1725

                     46                     47                     48
                      A                      A                      A
 Frequencies --   3107.3134              3229.9409              3248.0945
 Red. masses --      1.1008                 1.1002                 1.1008
 Frc consts  --      6.2620                 6.7628                 6.8423
 IR Inten    --     29.2970                 3.5043                 3.3078

 - Thermochemistry -
 -------------------
 Temperature   298.150 Kelvin.  Pressure   1.00000 Atm.
 Atom     1 has atomic number  6 and mass  12.00000

 Molecular mass:   119.07350 amu.
 Principal axes and moments of inertia in atomic units:
                           1         2         3
     Eigenvalues --   212.208383003.157373182.08480
           X            0.99998   0.00579  -0.00000
           Y           -0.00579   0.99998  -0.00000
           Z            0.00000   0.00000   1.00000
 This molecule is an asymmetric top.
 Rotational symmetry number  1.
 Rotational temperatures (Kelvin)      0.40816     0.02884     0.02722
 Rotational constants (GHZ):           8.50457     0.60095     0.56716
 Zero-point vibrational energy     380963.4 (Joules/Mol)
                                   91.05244 (Kcal/Mol)
 Warning -- explicit consideration of  13 degrees of freedom as
           vibrations may cause significant error
 Vibrational temperatures:     85.96   123.62   128.38   194.67   273.48
          (Kelvin)            350.93   438.43   446.36   530.03   726.85
                              744.75   801.95   882.22  1008.66  1078.74
                             1090.38  1167.66  1268.14  1286.29  1334.57
                             1474.24  1512.56  1588.07  1603.67  1634.13
                             1700.79  1766.59  1803.42  1896.79  1901.70
                             2012.49  2035.64  2107.63  2147.96  2158.12
                             2171.26  2390.53  2460.09  3321.14  4293.58
                             4318.30  4358.37  4362.90  4406.59  4458.94
                             4470.73  4647.16  4673.28

 Zero-point correction=                           0.145101 (Hartree/Particle)
 Thermal correction to Energy=                    0.154714
 Thermal correction to Enthalpy=                  0.155659
 Thermal correction to Gibbs Free Energy=         0.109967
 Sum of electronic and zero-point Energies=           -364.759319
 Sum of electronic and thermal Energies=              -364.749706
 Sum of electronic and thermal Enthalpies=            -364.748762
 Sum of electronic and thermal Free Energies=         -364.794454

                     E (Thermal)             CV                S
                      KCal/Mol        Cal/Mol-Kelvin    Cal/Mol-Kelvin
 Total                   97.085             34.168             96.167
 Electronic               0.000              0.000              0.000
 Translational            0.889              2.981             40.238
 Rotational               0.889              2.981             29.096
 Vibrational             95.307             28.206             26.832
 Vibration     1          0.597              1.973              4.466
 Vibration     2          0.601              1.959              3.751
 Vibration     3          0.602              1.957              3.677
 Vibration     4          0.613              1.918              2.869
 Vibration     5          0.633              1.854              2.227
 Vibration     6          0.659              1.773              1.774
 Vibration     7          0.696              1.665              1.391
 Vibration     8          0.699              1.654              1.361
 Vibration     9          0.741              1.537              1.086
 Vibration    10          0.860              1.239              0.645
 Vibration    11          0.873              1.211              0.615
 Vibration    12          0.913              1.124              0.529
 Vibration    13          0.972              1.004              0.428

 Optimization completed.
    -- Stationary point found.
 Normal termination of Gaussian 16 at Sun Jul  3 15:15:37 2022.
