 Gaussian 16, Revision A.03,
 Gaussian 16:  ES64L-G16RevA.03 25-Dec-2016

 -----------------------------
 # opt freq b3lyp/6-31g(2df,p)
 -----------------------------

 -------------------
 Title Card Required
 -------------------
 Symbolic Z-matrix:
 Charge =  0 Multiplicity = 1

 SCF Done:  E(RB3LYP) =  -429.018491454     A.U. after   12 cycles
 SCF Done:  E(RB3LYP) =  -429.026272955     A.U. after   11 cycles
 SCF Done:  E(RB3LYP) =  -429.027399728     A.U. after    9 cycles
 SCF Done:  E(RB3LYP) =  -429.027686119     A.U. after    9 cycles
 SCF Done:  E(RB3LYP) =  -429.027768951     A.U. after    9 cycles
 SCF Done:  E(RB3LYP) =  -429.027787898     A.U. after    9 cycles
 SCF Done:  E(RB3LYP) =  -429.027791913     A.U. after    8 cycles
 SCF Done:  E(RB3LYP) =  -429.027792595     A.U. after    7 cycles
 SCF Done:  E(RB3LYP) =  -429.027792702     A.U. after    6 cycles
 SCF Done:  E(RB3LYP) =  -429.027792728     A.U. after    5 cycles
 Optimization completed.
    -- Stationary point found.
 Normal termination of Gaussian 16 at Wed Aug  3 07:08:38 2022.

 ----------------------------------------------------------------------
 #N Geom=AllCheck Guess=TCheck SCRF=Check GenChk RB3LYP/6-31G(2df,p) Fr
 eq
 ----------------------------------------------------------------------

 Structure from the checkpoint file:  "CCCC1CCC1CCO.chk"
 -------------------
 Title Card Required
 -------------------
 Charge =  0 Multiplicity = 1

                         Standard orientation:
 ---------------------------------------------------------------------
 Center     Atomic      Atomic             Coordinates (Angstroms)
 Number     Number       Type             X           Y           Z
 ---------------------------------------------------------------------
      1          6           0        3.259229   -1.866116   -0.254679
      2          6           0        2.263339   -0.723112   -0.474940
      3          6           0        1.483617   -0.372212    0.798819
      4          6           0        0.484537    0.783294    0.694813
      5          6           0        0.952003    2.196414    0.242488
      6          6           0       -0.419619    2.381898   -0.455394
      7          6           0       -0.612242    0.839878   -0.419464
      8          6           0       -2.008054    0.290002   -0.148067
      9          6           0       -2.079198   -1.237423   -0.090090
     10          8           0       -3.404132   -1.723894    0.066148
     11          1           0        3.803906   -2.105054   -1.173468
     12          1           0        2.749093   -2.777632    0.076548
     13          1           0        3.997334   -1.605656    0.512248
     14          1           0        1.565715   -1.003407   -1.273712
     15          1           0        2.803523    0.159692   -0.838357
     16          1           0        2.202620   -0.131079    1.595373
     17          1           0        0.954357   -1.271807    1.143590
     18          1           0       -0.020146    0.883485    1.665231
     19          1           0        1.766928    2.145758   -0.485346
     20          1           0        1.231271    2.909072    1.022650
     21          1           0       -0.436417    2.872354   -1.431781
     22          1           0       -1.140788    2.884846    0.197433
     23          1           0       -0.221593    0.406852   -1.348529
     24          1           0       -2.700652    0.633495   -0.927422
     25          1           0       -2.380016    0.703465    0.801998
     26          1           0       -1.421077   -1.620403    0.706224
     27          1           0       -1.720058   -1.663994   -1.033601
     28          1           0       -3.742617   -1.384564    0.900818
 ---------------------------------------------------------------------

 SCF Done:  E(RB3LYP) =  -429.027792728     A.U. after    1 cycles

 The electronic state is 1-A.
 Alpha  occ. eigenvalues --  -19.12881 -10.22129 -10.18220 -10.18183 -10.17740
 Alpha  occ. eigenvalues --  -10.17591 -10.17571 -10.17566 -10.17482 -10.17135
 Alpha  occ. eigenvalues --   -1.00947  -0.84725  -0.77979  -0.75003  -0.70107
 Alpha  occ. eigenvalues --   -0.65109  -0.62338  -0.59774  -0.58455  -0.53317
 Alpha  occ. eigenvalues --   -0.49735  -0.46510  -0.46294  -0.45647  -0.43618
 Alpha  occ. eigenvalues --   -0.40642  -0.40382  -0.39834  -0.39696  -0.37938
 Alpha  occ. eigenvalues --   -0.35482  -0.34579  -0.33524  -0.33295  -0.32905
 Alpha  occ. eigenvalues --   -0.31560  -0.30290  -0.28958  -0.28421  -0.25769
 Alpha virt. eigenvalues --    0.07916   0.08178   0.09118   0.10157   0.10729
 Alpha virt. eigenvalues --    0.12250   0.12897   0.14309   0.15407   0.16013
 Alpha virt. eigenvalues --    0.16714   0.17524   0.17964   0.18592   0.18958

 Mulliken charges:
               1
     1  C   -0.377530
     2  C   -0.166202
     3  C   -0.209553
     4  C    0.029861
     5  C   -0.242208
     6  C   -0.243961
     7  C    0.030825
     8  C   -0.232297
     9  C   -0.060283
    10  O   -0.418166
    11  H    0.109963
    12  H    0.113923
    13  H    0.113116
    14  H    0.098194
    15  H    0.097740
    16  H    0.091213
    17  H    0.094336
    18  H    0.060595
    19  H    0.101159
    20  H    0.092287
    21  H    0.094292
    22  H    0.095838
    23  H    0.069358
    24  H    0.103269
    25  H    0.077271
    26  H    0.089364
    27  H    0.108657
    28  H    0.278938
 Sum of Mulliken charges =  -0.00000

 Dipole moment (field-independent basis, Debye):
    X=              0.7622    Y=              0.9624    Z=              0.9401  Tot=              1.5462
 Quadrupole moment (field-independent basis, Debye-Ang):
   XX=            -67.9608   YY=            -68.4618   ZZ=            -62.1444
   XY=             -4.0265   XZ=             -4.6075   YZ=             -0.9661

  Exact polarizability: 110.495  -2.446 103.132  -0.422   0.109  87.768
 Approx polarizability: 141.299   0.485 136.597  -1.071   1.258 137.543

                      1                      2                      3
                      A                      A                      A
 Frequencies --     47.3488                59.9799                74.9235
 Red. masses --      2.5834                 1.9108                 2.2338
 Frc consts  --      0.0034                 0.0041                 0.0074
 IR Inten    --      0.1380                 0.0327                 2.3660

                      4                      5                      6
                      A                      A                      A
 Frequencies --     95.5152               122.9818               161.8276
 Red. masses --      2.5311                 2.5707                 2.6063
 Frc consts  --      0.0136                 0.0229                 0.0402
 IR Inten    --      2.7066                 0.3251                 0.9823

                      7                      8                      9
                      A                      A                      A
 Frequencies --    203.0361               246.0758               261.5289
 Red. masses --      2.2888                 1.1726                 2.2346
 Frc consts  --      0.0556                 0.0418                 0.0900
 IR Inten    --      1.2082                 0.0883                 1.4703

                     10                     11                     12
                      A                      A                      A
 Frequencies --    299.5652               305.7432               342.1169
 Red. masses --      1.4079                 2.0625                 2.8688
 Frc consts  --      0.0744                 0.1136                 0.1978
 IR Inten    --     64.7420                29.5692                 4.6738

                     13                     14                     15
                      A                      A                      A
 Frequencies --    370.9672               436.3767               589.1146
 Red. masses --      3.1277                 2.8600                 2.3433
 Frc consts  --      0.2536                 0.3209                 0.4792
 IR Inten    --      1.8960                 5.3125                 0.7143

                     16                     17                     18
                      A                      A                      A
 Frequencies --    641.6291               729.9206               751.2481
 Red. masses --      2.5589                 1.2477                 1.6477
 Frc consts  --      0.6207                 0.3917                 0.5479
 IR Inten    --      1.3666                 3.1981                 1.8480

                     19                     20                     21
                      A                      A                      A
 Frequencies --    792.8112               804.0857               862.8246
 Red. masses --      1.2549                 1.4250                 1.4600
 Frc consts  --      0.4647                 0.5428                 0.6404
 IR Inten    --      1.2624                 0.4668                 0.3723

                     22                     23                     24
                      A                      A                      A
 Frequencies --    886.1255               928.6495               937.5428
 Red. masses --      1.8239                 1.7275                 2.1094
 Frc consts  --      0.8438                 0.8778                 1.0924
 IR Inten    --      1.3937                 0.3160                 0.3937

                     25                     26                     27
                      A                      A                      A
 Frequencies --    962.7238               983.3140              1020.2762
 Red. masses --      1.8023                 2.4027                 1.4693
 Frc consts  --      0.9842                 1.3688                 0.9011
 IR Inten    --      1.1097                14.2181                13.0441

                     28                     29                     30
                      A                      A                      A
 Frequencies --   1033.2814              1054.1680              1076.6660
 Red. masses --      2.1825                 1.7249                 3.8964
 Frc consts  --      1.3729                 1.1294                 2.6612
 IR Inten    --      2.3830                 6.6675               102.7789

                     31                     32                     33
                      A                      A                      A
 Frequencies --   1090.9122              1111.1084              1128.1985
 Red. masses --      2.0917                 2.4545                 1.5976
 Frc consts  --      1.4666                 1.7853                 1.1981
 IR Inten    --     14.5458                 1.4826                 3.0910

                     34                     35                     36
                      A                      A                      A
 Frequencies --   1142.3355              1168.3817              1183.2713
 Red. masses --      2.1762                 1.8328                 1.6589
 Frc consts  --      1.6732                 1.4741                 1.3685
 IR Inten    --      0.2936                 1.3822                 1.2428

                     37                     38                     39
                      A                      A                      A
 Frequencies --   1223.2657              1252.7768              1258.3392
 Red. masses --      1.4335                 1.1633                 1.3534
 Frc consts  --      1.2638                 1.0757                 1.2626
 IR Inten    --      0.3361                 0.5651                 1.0449

                     40                     41                     42
                      A                      A                      A
 Frequencies --   1265.5883              1273.3006              1287.0318
 Red. masses --      1.3595                 1.3506                 1.3021
 Frc consts  --      1.2830                 1.2902                 1.2708
 IR Inten    --      0.2476                 2.2638                 4.0628

                     43                     44                     45
                      A                      A                      A
 Frequencies --   1311.5316              1314.5806              1321.6553
 Red. masses --      1.3665                 1.4464                 1.2018
 Frc consts  --      1.3849                 1.4727                 1.2369
 IR Inten    --      0.9008                 0.5593                 6.1930

                     46                     47                     48
                      A                      A                      A
 Frequencies --   1341.5104              1361.2618              1384.5172
 Red. masses --      1.1276                 1.4054                 1.4249
 Frc consts  --      1.1956                 1.5344                 1.6093
 IR Inten    --      0.5737                 8.5099                10.3431

                     49                     50                     51
                      A                      A                      A
 Frequencies --   1402.1326              1405.8564              1415.4005
 Red. masses --      1.4364                 1.4061                 1.2612
 Frc consts  --      1.6638                 1.6374                 1.4887
 IR Inten    --      2.1091                 3.4752                 3.0191

                     52                     53                     54
                      A                      A                      A
 Frequencies --   1422.0993              1476.2623              1483.6551
 Red. masses --      1.2799                 1.0794                 1.0862
 Frc consts  --      1.5250                 1.3860                 1.4088
 IR Inten    --     44.6496                 1.8157                 0.5595

                     55                     56                     57
                      A                      A                      A
 Frequencies --   1485.6939              1491.8122              1499.8960
 Red. masses --      1.0838                 1.0605                 1.0412
 Frc consts  --      1.4095                 1.3906                 1.3801
 IR Inten    --      2.5210                 1.8638                 4.9467

                     58                     59                     60
                      A                      A                      A
 Frequencies --   1503.2213              1509.7805              1513.4736
 Red. masses --      1.1370                 1.0820                 1.0933
 Frc consts  --      1.5137                 1.4532                 1.4755
 IR Inten    --      1.7416                 2.8322                 0.3745

                     61                     62                     63
                      A                      A                      A
 Frequencies --   2975.8669              2990.3624              2993.1145
 Red. masses --      1.0700                 1.0652                 1.0639
 Frc consts  --      5.5831                 5.6120                 5.6154
 IR Inten    --     55.0422                14.8240                16.8989

                     64                     65                     66
                      A                      A                      A
 Frequencies --   3011.3645              3022.8714              3025.4444
 Red. masses --      1.0783                 1.0648                 1.0959
 Frc consts  --      5.7610                 5.7327                 5.9102
 IR Inten    --     35.0638                22.9165                16.5877

                     67                     68                     69
                      A                      A                      A
 Frequencies --   3027.8179              3032.2103              3044.1262
 Red. masses --      1.0379                 1.0769                 1.0886
 Frc consts  --      5.6060                 5.8339                 5.9433
 IR Inten    --     47.0744                21.5930                30.2048

                     70                     71                     72
                      A                      A                      A
 Frequencies --   3047.1143              3054.9796              3060.4270
 Red. masses --      1.0615                 1.0708                 1.0902
 Frc consts  --      5.8068                 5.8882                 6.0159
 IR Inten    --     38.7297                 6.8724                49.7220

                     73                     74                     75
                      A                      A                      A
 Frequencies --   3068.1652              3094.5116              3095.8532
 Red. masses --      1.0973                 1.1044                 1.1038
 Frc consts  --      6.0861                 6.2310                 6.2330
 IR Inten    --     56.2672                51.0061                25.8266

                     76                     77                     78
                      A                      A                      A
 Frequencies --   3100.3299              3111.2263              3814.4925
 Red. masses --      1.1009                 1.1070                 1.0661
 Frc consts  --      6.2349                 6.3132                 9.1393
 IR Inten    --     31.9936                63.7222                15.0365

 - Thermochemistry -
 -------------------
 Temperature   298.150 Kelvin.  Pressure   1.00000 Atm.
 Atom     1 has atomic number  6 and mass  12.00000

 Molecular mass:   142.13577 amu.
 Principal axes and moments of inertia in atomic units:
                           1         2         3
     Eigenvalues --  1274.188742346.412503317.21790
           X            0.99876  -0.04955  -0.00496
           Y            0.04955   0.99877  -0.00143
           Z            0.00502   0.00118   0.99999
 This molecule is an asymmetric top.
 Rotational symmetry number  1.
 Warning -- assumption of classical behavior for rotation
           may cause significant error
 Rotational temperatures (Kelvin)      0.06798     0.03691     0.02611
 Rotational constants (GHZ):           1.41638     0.76915     0.54405
 Zero-point vibrational energy     673985.0 (Joules/Mol)
                                  161.08629 (Kcal/Mol)
 Warning -- explicit consideration of  15 degrees of freedom as
           vibrations may cause significant error
 Vibrational temperatures:     68.12    86.30   107.80   137.43   176.94
          (Kelvin)            232.83   292.12   354.05   376.28   431.01
                              439.90   492.23   533.74   627.85   847.60
                              923.16  1050.19  1080.88  1140.68  1156.90
                             1241.41  1274.94  1336.12  1348.92  1385.14
                             1414.77  1467.95  1486.66  1516.71  1549.08
                             1569.58  1598.64  1623.23  1643.57  1681.04
                             1702.46  1760.01  1802.47  1810.47  1820.90
                             1832.00  1851.75  1887.00  1891.39  1901.57
                             1930.13  1958.55  1992.01  2017.36  2022.71
                             2036.45  2046.08  2124.01  2134.65  2137.58
                             2146.39  2158.02  2162.80  2172.24  2177.55
                             4281.61  4302.46  4306.42  4332.68  4349.24
                             4352.94  4356.35  4362.67  4379.82  4384.12
                             4395.43  4403.27  4414.41  4452.31  4454.24
                             4460.68  4476.36  5488.20

 Zero-point correction=                           0.256707 (Hartree/Particle)
 Thermal correction to Energy=                    0.268785
 Thermal correction to Enthalpy=                  0.269729
 Thermal correction to Gibbs Free Energy=         0.217895
 Sum of electronic and zero-point Energies=           -428.771085
 Sum of electronic and thermal Energies=              -428.759008
 Sum of electronic and thermal Enthalpies=            -428.758064
 Sum of electronic and thermal Free Energies=         -428.809897

                     E (Thermal)             CV                S
                      KCal/Mol        Cal/Mol-Kelvin    Cal/Mol-Kelvin
 Total                  168.665             44.105            109.093
 Electronic               0.000              0.000              0.000
 Translational            0.889              2.981             40.766
 Rotational               0.889              2.981             30.673
 Vibrational            166.888             38.143             37.654
 Vibration     1          0.595              1.979              4.925
 Vibration     2          0.597              1.973              4.458
 Vibration     3          0.599              1.966              4.020
 Vibration     4          0.603              1.952              3.544
 Vibration     5          0.610              1.930              3.053
 Vibration     6          0.622              1.889              2.528
 Vibration     7          0.639              1.836              2.105
 Vibration     8          0.661              1.769              1.759
 Vibration     9          0.669              1.743              1.652
 Vibration    10          0.692              1.675              1.419
 Vibration    11          0.696              1.663              1.385
 Vibration    12          0.721              1.591              1.202
 Vibration    13          0.743              1.532              1.076
 Vibration    14          0.797              1.391              0.838
 Vibration    15          0.946              1.055              0.469

 Optimization completed.
    -- Stationary point found.
 Normal termination of Gaussian 16 at Wed Aug  3 08:00:34 2022.
