 Gaussian 16, Revision A.03,
 Gaussian 16:  ES64L-G16RevA.03 25-Dec-2016

 -----------------------------
 # opt freq b3lyp/6-31g(2df,p)
 -----------------------------

 -------------------
 Title Card Required
 -------------------
 Symbolic Z-matrix:
 Charge =  0 Multiplicity = 1

 SCF Done:  E(RB3LYP) =  -441.666755947     A.U. after   13 cycles
 SCF Done:  E(RB3LYP) =  -441.671392027     A.U. after   11 cycles
 SCF Done:  E(RB3LYP) =  -441.670388829     A.U. after   13 cycles
 SCF Done:  E(RB3LYP) =  -441.671537741     A.U. after   13 cycles
 SCF Done:  E(RB3LYP) =  -441.672360422     A.U. after   12 cycles
 SCF Done:  E(RB3LYP) =  -441.672687435     A.U. after   12 cycles
 SCF Done:  E(RB3LYP) =  -441.605838459     A.U. after   13 cycles
 SCF Done:  E(RB3LYP) =  -441.674941750     A.U. after   14 cycles
 SCF Done:  E(RB3LYP) =  -441.678479969     A.U. after   14 cycles
 SCF Done:  E(RB3LYP) =  -441.682679953     A.U. after   13 cycles
 SCF Done:  E(RB3LYP) =  -441.681858696     A.U. after   13 cycles
 SCF Done:  E(RB3LYP) =  -441.684371115     A.U. after    8 cycles
 SCF Done:  E(RB3LYP) =  -441.684565293     A.U. after   12 cycles
 SCF Done:  E(RB3LYP) =  -441.684608178     A.U. after   12 cycles
 SCF Done:  E(RB3LYP) =  -441.684703508     A.U. after   10 cycles
 SCF Done:  E(RB3LYP) =  -441.684713886     A.U. after    9 cycles
 SCF Done:  E(RB3LYP) =  -441.684717132     A.U. after    8 cycles
 SCF Done:  E(RB3LYP) =  -441.684718161     A.U. after    8 cycles
 SCF Done:  E(RB3LYP) =  -441.684718372     A.U. after    7 cycles
 Optimization completed.
    -- Stationary point found.
 Normal termination of Gaussian 16 at Thu Aug  4 01:05:01 2022.

 ----------------------------------------------------------------------
 #N Geom=AllCheck Guess=TCheck SCRF=Check GenChk RB3LYP/6-31G(2df,p) Fr
 eq
 ----------------------------------------------------------------------

 Structure from the checkpoint file:  "CCCCpNpCpOpCdO.chk"
 -------------------
 Title Card Required
 -------------------
 Charge =  0 Multiplicity = 1

                         Standard orientation:
 ---------------------------------------------------------------------
 Center     Atomic      Atomic             Coordinates (Angstroms)
 Number     Number       Type             X           Y           Z
 ---------------------------------------------------------------------
      1          6           0       -3.785872   -0.595382   -0.071579
      2          6           0       -2.533369    0.197375   -0.456167
      3          6           0       -1.268190   -0.314876    0.239995
      4          6           0        0.004636    0.461364   -0.135653
      5          7           0        0.023032    1.877288    0.259701
      6          6           0        1.260559   -0.205951    0.483382
      7          8           0        1.283002   -1.589739    0.271772
      8          6           0        2.526252    0.418698   -0.075533
      9          8           0        3.385686   -0.267270   -0.580364
     10          1           0       -4.673767   -0.213571   -0.585122
     11          1           0       -3.974067   -0.539046    1.006336
     12          1           0       -3.677935   -1.653908   -0.331560
     13          1           0       -2.688947    1.257035   -0.214693
     14          1           0       -2.390403    0.149885   -1.544350
     15          1           0       -1.112058   -1.370876   -0.002069
     16          1           0       -1.399590   -0.263649    1.331851
     17          1           0        0.118387    0.430519   -1.228280
     18          1           0       -0.304549    1.969685    1.218548
     19          1           0       -0.622948    2.410504   -0.312259
     20          1           0        1.247179    0.021626    1.567434
     21          1           0        2.137039   -1.766915   -0.156737
     22          1           0        2.606837    1.516414   -0.004937
 ---------------------------------------------------------------------

 SCF Done:  E(RB3LYP) =  -441.684718372     A.U. after    1 cycles

 The electronic state is 1-A.
 Alpha  occ. eigenvalues --  -19.15384 -19.13381 -14.32242 -10.27344 -10.23911
 Alpha  occ. eigenvalues --  -10.22206 -10.18503 -10.17814 -10.17600  -1.06537
 Alpha  occ. eigenvalues --   -1.01570  -0.89777  -0.78734  -0.74584  -0.69611
 Alpha  occ. eigenvalues --   -0.62139  -0.58351  -0.57431  -0.51767  -0.51107
 Alpha  occ. eigenvalues --   -0.47219  -0.46509  -0.45257  -0.43870  -0.41828
 Alpha  occ. eigenvalues --   -0.40577  -0.39109  -0.37732  -0.36267  -0.35354
 Alpha  occ. eigenvalues --   -0.34150  -0.33388  -0.32851  -0.28065  -0.26798
 Alpha  occ. eigenvalues --   -0.24265
 Alpha virt. eigenvalues --   -0.02973   0.06763   0.09892   0.10207   0.11286
 Alpha virt. eigenvalues --    0.13866   0.14167   0.14929   0.15714   0.16614
 Alpha virt. eigenvalues --    0.17174   0.17422   0.18969   0.20041   0.21609

 Mulliken charges:
               1
     1  C   -0.378888
     2  C   -0.179170
     3  C   -0.164053
     4  C   -0.023199
     5  N   -0.522297
     6  C    0.061251
     7  O   -0.438533
     8  C    0.136070
     9  O   -0.272488
    10  H    0.111554
    11  H    0.114239
    12  H    0.119484
    13  H    0.081998
    14  H    0.096410
    15  H    0.125445
    16  H    0.081476
    17  H    0.087094
    18  H    0.226278
    19  H    0.237551
    20  H    0.082810
    21  H    0.293388
    22  H    0.123582
 Sum of Mulliken charges =   0.00000

 Dipole moment (field-independent basis, Debye):
    X=             -2.2435    Y=              1.8328    Z=              0.5808  Tot=              2.9547
 Quadrupole moment (field-independent basis, Debye-Ang):
   XX=            -61.9277   YY=            -56.4053   ZZ=            -53.7752
   XY=             -0.4511   XZ=              2.4743   YZ=              1.4532

  Exact polarizability:  97.167  -0.916  76.910  -2.735   1.916  66.315
 Approx polarizability: 118.550  -5.886 114.114  -7.725   5.375 105.177

                      1                      2                      3
                      A                      A                      A
 Frequencies --     55.1786                79.9712               103.1560
 Red. masses --      4.9611                 1.8225                 3.1838
 Frc consts  --      0.0089                 0.0069                 0.0200
 IR Inten    --      0.2607                 0.2777                 1.2392

                      4                      5                      6
                      A                      A                      A
 Frequencies --    116.8572               152.4051               239.6962
 Red. masses --      3.3827                 2.8655                 2.3624
 Frc consts  --      0.0272                 0.0392                 0.0800
 IR Inten    --      0.7848                 0.7591                 4.3772

                      7                      8                      9
                      A                      A                      A
 Frequencies --    248.0007               262.4924               296.7142
 Red. masses --      1.1178                 1.3494                 3.4978
 Frc consts  --      0.0405                 0.0548                 0.1814
 IR Inten    --      0.6914                33.1965                 7.6192

                     10                     11                     12
                      A                      A                      A
 Frequencies --    341.0207               351.3688               416.7850
 Red. masses --      3.3200                 4.2380                 2.6539
 Frc consts  --      0.2275                 0.3083                 0.2716
 IR Inten    --      1.2681                19.3457                13.0359

                     13                     14                     15
                      A                      A                      A
 Frequencies --    453.0306               495.6206               540.9846
 Red. masses --      2.6477                 1.4791                 1.9281
 Frc consts  --      0.3202                 0.2141                 0.3325
 IR Inten    --     16.6348                39.8289                13.4511

                     16                     17                     18
                      A                      A                      A
 Frequencies --    746.3911               759.5960               837.2800
 Red. masses --      1.2586                 2.4602                 2.4583
 Frc consts  --      0.4131                 0.8364                 1.0154
 IR Inten    --      7.1971                 4.5538                36.0159

                     19                     20                     21
                      A                      A                      A
 Frequencies --    860.1392               867.3173               901.7354
 Red. masses --      2.2564                 1.3392                 1.7140
 Frc consts  --      0.9836                 0.5935                 0.8211
 IR Inten    --     99.0128                39.7530                15.2037

                     22                     23                     24
                      A                      A                      A
 Frequencies --    946.7635              1012.1061              1027.1968
 Red. masses --      2.2546                 1.5608                 1.4359
 Frc consts  --      1.1907                 0.9420                 0.8926
 IR Inten    --      3.9126                13.1553                13.6411

                     25                     26                     27
                      A                      A                      A
 Frequencies --   1047.4788              1091.3841              1117.0484
 Red. masses --      2.7000                 2.1464                 2.6056
 Frc consts  --      1.7455                 1.5063                 1.9156
 IR Inten    --      4.6364                 1.2287                48.6598

                     28                     29                     30
                      A                      A                      A
 Frequencies --   1147.9114              1172.8634              1208.3184
 Red. masses --      2.0666                 2.3643                 1.7920
 Frc consts  --      1.6044                 1.9163                 1.5415
 IR Inten    --     39.2885                30.9172                 1.4995

                     31                     32                     33
                      A                      A                      A
 Frequencies --   1245.4685              1281.9882              1293.8393
 Red. masses --      1.4347                 1.3759                 1.3159
 Frc consts  --      1.3113                 1.3323                 1.2979
 IR Inten    --      1.1513                32.3011                 4.7247

                     34                     35                     36
                      A                      A                      A
 Frequencies --   1327.0414              1342.9559              1363.4832
 Red. masses --      1.1492                 1.3019                 1.2733
 Frc consts  --      1.1924                 1.3834                 1.3947
 IR Inten    --      4.1332                 4.6113                 1.6250

                     37                     38                     39
                      A                      A                      A
 Frequencies --   1376.8018              1391.8542              1401.6109
 Red. masses --      1.2149                 1.4439                 1.3962
 Frc consts  --      1.3569                 1.6480                 1.6160
 IR Inten    --     42.0433                 4.2392                 9.5226

                     40                     41                     42
                      A                      A                      A
 Frequencies --   1413.4491              1441.7265              1482.7326
 Red. masses --      1.2341                 1.3703                 1.0776
 Frc consts  --      1.4527                 1.6781                 1.3959
 IR Inten    --      0.7741                59.3029                 1.3173

                     43                     44                     45
                      A                      A                      A
 Frequencies --   1493.9296              1499.4473              1510.6572
 Red. masses --      1.0614                 1.0404                 1.0835
 Frc consts  --      1.3957                 1.3782                 1.4569
 IR Inten    --      0.9313                 5.2067                 2.5100

                     46                     47                     48
                      A                      A                      A
 Frequencies --   1656.0128              1800.4164              2917.5638
 Red. masses --      1.0924                 9.9452                 1.0787
 Frc consts  --      1.7651                18.9936                 5.4100
 IR Inten    --     17.0565               156.0374                28.2774

                     49                     50                     51
                      A                      A                      A
 Frequencies --   2993.1592              3005.0217              3009.2184
 Red. masses --      1.0699                 1.0884                 1.0622
 Frc consts  --      5.6475                 5.7909                 5.6672
 IR Inten    --      6.9765                42.3227                21.6153

                     52                     53                     54
                      A                      A                      A
 Frequencies --   3018.9027              3030.3657              3040.0952
 Red. masses --      1.0807                 1.0358                 1.0983
 Frc consts  --      5.8029                 5.6043                 5.9809
 IR Inten    --     47.0914                31.7250                22.3393

                     55                     56                     57
                      A                      A                      A
 Frequencies --   3085.6173              3098.1225              3102.6160
 Red. masses --      1.0932                 1.1014                 1.1014
 Frc consts  --      6.1325                 6.2289                 6.2465
 IR Inten    --      7.5506                52.2905                37.0204

                     58                     59                     60
                      A                      A                      A
 Frequencies --   3484.4398              3574.7021              3662.1209
 Red. masses --      1.0515                 1.0896                 1.0646
 Frc consts  --      7.5222                 8.2035                 8.4118
 IR Inten    --      0.1284                 1.2442                86.3758

 - Thermochemistry -
 -------------------
 Temperature   298.150 Kelvin.  Pressure   1.00000 Atm.
 Atom     1 has atomic number  6 and mass  12.00000

 Molecular mass:   131.09463 amu.
 Principal axes and moments of inertia in atomic units:
                           1         2         3
     Eigenvalues --   532.689372423.317702776.33149
           X            0.99994   0.00989   0.00568
           Y           -0.00993   0.99992   0.00744
           Z           -0.00560  -0.00749   0.99996
 This molecule is an asymmetric top.
 Rotational symmetry number  1.
 Warning -- assumption of classical behavior for rotation
           may cause significant error
 Rotational temperatures (Kelvin)      0.16260     0.03574     0.03120
 Rotational constants (GHZ):           3.38798     0.74474     0.65005
 Zero-point vibrational energy     503880.1 (Joules/Mol)
                                  120.43023 (Kcal/Mol)
 Warning -- explicit consideration of  15 degrees of freedom as
           vibrations may cause significant error
 Vibrational temperatures:     79.39   115.06   148.42   168.13   219.28
          (Kelvin)            344.87   356.82   377.67   426.91   490.65
                              505.54   599.66   651.81   713.09   778.36
                             1073.89  1092.89  1204.66  1237.55  1247.88
                             1297.40  1362.18  1456.19  1477.91  1507.09
                             1570.26  1607.18  1651.59  1687.49  1738.50
                             1791.95  1844.50  1861.55  1909.32  1932.21
                             1961.75  1980.91  2002.57  2016.61  2033.64
                             2074.32  2133.32  2149.43  2157.37  2173.50
                             2382.63  2590.40  4197.72  4306.49  4323.56
                             4329.59  4343.53  4360.02  4374.02  4439.52
                             4457.51  4463.97  5013.33  5143.20  5268.98

 Zero-point correction=                           0.191918 (Hartree/Particle)
 Thermal correction to Energy=                    0.202818
 Thermal correction to Enthalpy=                  0.203762
 Thermal correction to Gibbs Free Energy=         0.155356
 Sum of electronic and zero-point Energies=           -441.492801
 Sum of electronic and thermal Energies=              -441.481900
 Sum of electronic and thermal Enthalpies=            -441.480956
 Sum of electronic and thermal Free Energies=         -441.529362

                     E (Thermal)             CV                S
                      KCal/Mol        Cal/Mol-Kelvin    Cal/Mol-Kelvin
 Total                  127.270             39.137            101.878
 Electronic               0.000              0.000              0.000
 Translational            0.889              2.981             40.525
 Rotational               0.889              2.981             29.662
 Vibrational            125.493             33.176             31.692
 Vibration     1          0.596              1.976              4.623
 Vibration     2          0.600              1.963              3.892
 Vibration     3          0.605              1.947              3.394
 Vibration     4          0.608              1.935              3.152
 Vibration     5          0.619              1.900              2.642
 Vibration     6          0.657              1.780              1.805
 Vibration     7          0.662              1.766              1.745
 Vibration     8          0.670              1.742              1.645
 Vibration     9          0.690              1.680              1.435
 Vibration    10          0.721              1.593              1.207
 Vibration    11          0.728              1.572              1.160
 Vibration    12          0.780              1.434              0.903
 Vibration    13          0.812              1.354              0.787
 Vibration    14          0.851              1.260              0.669
 Vibration    15          0.896              1.159              0.563

 Optimization completed.
    -- Stationary point found.
 Normal termination of Gaussian 16 at Thu Aug  4 01:35:16 2022.
