 Gaussian 16, Revision A.03,
 Gaussian 16:  ES64L-G16RevA.03 25-Dec-2016

 -----------------------------
 # opt freq b3lyp/6-31g(2df,p)
 -----------------------------

 -------------------
 Title Card Required
 -------------------
 Symbolic Z-matrix:
 Charge =  0 Multiplicity = 1

 SCF Done:  E(RB3LYP) =  -405.751214684     A.U. after   13 cycles
 SCF Done:  E(RB3LYP) =  -405.755654840     A.U. after   12 cycles
 SCF Done:  E(RB3LYP) =  -405.756954989     A.U. after   11 cycles
 SCF Done:  E(RB3LYP) =  -405.758209574     A.U. after   11 cycles
 SCF Done:  E(RB3LYP) =  -405.759545517     A.U. after   12 cycles
 SCF Done:  E(RB3LYP) =  -405.760494246     A.U. after   12 cycles
 SCF Done:  E(RB3LYP) =  -405.760769903     A.U. after   10 cycles
 SCF Done:  E(RB3LYP) =  -405.760825644     A.U. after   10 cycles
 SCF Done:  E(RB3LYP) =  -405.760835477     A.U. after    9 cycles
 SCF Done:  E(RB3LYP) =  -405.760837335     A.U. after    8 cycles
 SCF Done:  E(RB3LYP) =  -405.760837671     A.U. after    7 cycles
 SCF Done:  E(RB3LYP) =  -405.760837857     A.U. after    7 cycles
 SCF Done:  E(RB3LYP) =  -405.760837967     A.U. after    7 cycles
 SCF Done:  E(RB3LYP) =  -405.760838020     A.U. after    6 cycles
 Optimization completed.
    -- Stationary point found.
 Normal termination of Gaussian 16 at Sun Jul  3 09:51:38 2022.

 ----------------------------------------------------------------------
 #N Geom=AllCheck Guess=TCheck SCRF=Check GenChk RB3LYP/6-31G(2df,p) Fr
 eq
 ----------------------------------------------------------------------

 Structure from the checkpoint file:  "CCCCpCppCdNpCO.chk"
 -------------------
 Title Card Required
 -------------------
 Charge =  0 Multiplicity = 1

                         Standard orientation:
 ---------------------------------------------------------------------
 Center     Atomic      Atomic             Coordinates (Angstroms)
 Number     Number       Type             X           Y           Z
 ---------------------------------------------------------------------
      1          6           0        3.497084   -0.374148   -0.223406
      2          6           0        2.144741    0.190999    0.221547
      3          6           0        0.971178   -0.692308   -0.221494
      4          6           0       -0.450452   -0.148479    0.087514
      5          6           0       -0.661145    0.079449    1.589460
      6          6           0       -0.662425    1.120206   -0.726420
      7          7           0       -0.896596    2.306587   -0.347892
      8          6           0       -1.458119   -1.206642   -0.432519
      9          8           0       -2.816010   -0.832734   -0.296347
     10          1           0        4.321969    0.263537    0.108638
     11          1           0        3.554693   -0.451898   -1.314731
     12          1           0        3.664373   -1.376067    0.187806
     13          1           0        2.016920    1.201957   -0.183511
     14          1           0        2.141889    0.295850    1.312834
     15          1           0        1.070496   -1.683860    0.241301
     16          1           0        1.046453   -0.858187   -1.305316
     17          1           0        0.019523    0.834122    1.992273
     18          1           0       -0.488065   -0.848098    2.145974
     19          1           0       -1.681205    0.418372    1.799022
     20          1           0       -0.582250    0.957383   -1.809624
     21          1           0       -0.957643    2.363006    0.672773
     22          1           0       -1.252324   -2.167887    0.064120
     23          1           0       -1.299558   -1.356506   -1.506399
     24          1           0       -3.056198   -0.890425    0.632777
 ---------------------------------------------------------------------

 SCF Done:  E(RB3LYP) =  -405.760838020     A.U. after    1 cycles

 The electronic state is 1-A.
 Alpha  occ. eigenvalues --  -19.14206 -14.30884 -10.23397 -10.22091 -10.20396
 Alpha  occ. eigenvalues --  -10.19067 -10.18853 -10.18504 -10.17735  -1.02401
 Alpha  occ. eigenvalues --   -0.89776  -0.82046  -0.76675  -0.70190  -0.67547
 Alpha  occ. eigenvalues --   -0.62893  -0.59439  -0.54989  -0.51869  -0.48051
 Alpha  occ. eigenvalues --   -0.46691  -0.45325  -0.44310  -0.41806  -0.41062
 Alpha  occ. eigenvalues --   -0.38869  -0.38191  -0.38023  -0.36571  -0.34621
 Alpha  occ. eigenvalues --   -0.33750  -0.33255  -0.32661  -0.30466  -0.27304
 Alpha  occ. eigenvalues --   -0.24916
 Alpha virt. eigenvalues --    0.00674   0.05886   0.08914   0.10225   0.10507
 Alpha virt. eigenvalues --    0.11926   0.13150   0.14637   0.15421   0.15829
 Alpha virt. eigenvalues --    0.16217   0.17971   0.18472   0.19388   0.19831

 Mulliken charges:
               1
     1  C   -0.379799
     2  C   -0.188509
     3  C   -0.195026
     4  C    0.172174
     5  C   -0.466646
     6  C    0.073388
     7  N   -0.420160
     8  C   -0.085756
     9  O   -0.420404
    10  H    0.115007
    11  H    0.116607
    12  H    0.113400
    13  H    0.113910
    14  H    0.098849
    15  H    0.092889
    16  H    0.097654
    17  H    0.130868
    18  H    0.115033
    19  H    0.115795
    20  H    0.099153
    21  H    0.215508
    22  H    0.087494
    23  H    0.111745
    24  H    0.286825
 Sum of Mulliken charges =  -0.00000

 Dipole moment (field-independent basis, Debye):
    X=              1.3068    Y=             -2.4069    Z=              2.1180  Tot=              3.4622
 Quadrupole moment (field-independent basis, Debye-Ang):
   XX=            -60.5911   YY=            -63.5030   ZZ=            -54.7310
   XY=              2.4713   XZ=             -5.4637   YZ=              2.3348

  Exact polarizability:  91.747  -2.852  86.482  -2.345   2.482  80.259
 Approx polarizability: 115.008  -5.994 132.807  -2.393   5.519 121.951

                      1                      2                      3
                      A                      A                      A
 Frequencies --     69.2419                84.4480                93.6612
 Red. masses --      1.9994                 2.5443                 3.1669
 Frc consts  --      0.0056                 0.0107                 0.0164
 IR Inten    --      1.1444                 0.6019                 1.3145

                      4                      5                      6
                      A                      A                      A
 Frequencies --    110.7755               141.5883               239.8477
 Red. masses --      2.0669                 3.8324                 1.1493
 Frc consts  --      0.0149                 0.0453                 0.0390
 IR Inten    --      2.8665                 0.8694                11.0440

                      7                      8                      9
                      A                      A                      A
 Frequencies --    246.5899               255.7475               288.4265
 Red. masses --      1.1388                 2.4397                 2.1448
 Frc consts  --      0.0408                 0.0940                 0.1051
 IR Inten    --     10.8806                14.9442                25.0382

                     10                     11                     12
                      A                      A                      A
 Frequencies --    310.9754               322.0773               328.3370
 Red. masses --      1.5102                 2.0656                 2.2337
 Frc consts  --      0.0860                 0.1262                 0.1419
 IR Inten    --     35.5402                 2.8239                21.4293

                     13                     14                     15
                      A                      A                      A
 Frequencies --    371.2358               389.9534               563.8680
 Red. masses --      3.6729                 2.0410                 2.8971
 Frc consts  --      0.2982                 0.1829                 0.5427
 IR Inten    --      1.3141                 8.1312                 7.9812

                     16                     17                     18
                      A                      A                      A
 Frequencies --    573.2481               741.9625               751.3609
 Red. masses --      2.7459                 1.2887                 2.3899
 Frc consts  --      0.5316                 0.4180                 0.7949
 IR Inten    --      4.0873                 4.9679                 3.7379

                     19                     20                     21
                      A                      A                      A
 Frequencies --    821.7392               861.6309               885.9273
 Red. masses --      2.1788                 1.4380                 1.8087
 Frc consts  --      0.8668                 0.6290                 0.8364
 IR Inten    --      5.0076                 1.1008                 4.6331

                     22                     23                     24
                      A                      A                      A
 Frequencies --    918.1839               944.0277               972.3043
 Red. masses --      1.8742                 1.6776                 1.6497
 Frc consts  --      0.9310                 0.8809                 0.9189
 IR Inten    --      9.4817                10.5513                 2.9978

                     25                     26                     27
                      A                      A                      A
 Frequencies --   1048.4822              1055.1006              1085.2415
 Red. masses --      2.6393                 1.9162                 2.0057
 Frc consts  --      1.7095                 1.2568                 1.3918
 IR Inten    --      7.5897                36.1575                15.6163

                     28                     29                     30
                      A                      A                      A
 Frequencies --   1108.1483              1148.5818              1155.6778
 Red. masses --      2.5740                 1.1123                 1.7627
 Frc consts  --      1.8623                 0.8645                 1.3871
 IR Inten    --     51.3487                36.1641                20.4875

                     31                     32                     33
                      A                      A                      A
 Frequencies --   1180.9396              1191.3893              1242.5741
 Red. masses --      2.1795                 1.6568                 1.5057
 Frc consts  --      1.7908                 1.3856                 1.3697
 IR Inten    --     20.8728                11.1413                31.5712

                     34                     35                     36
                      A                      A                      A
 Frequencies --   1262.5906              1317.2071              1320.9735
 Red. masses --      1.4132                 1.3838                 1.3656
 Frc consts  --      1.3273                 1.4146                 1.4040
 IR Inten    --     37.5793                 7.8162                 5.8033

                     37                     38                     39
                      A                      A                      A
 Frequencies --   1353.2536              1384.7232              1394.2060
 Red. masses --      1.3368                 1.3688                 1.3767
 Frc consts  --      1.4424                 1.5464                 1.5767
 IR Inten    --     11.1310                 3.7032                 3.6848

                     40                     41                     42
                      A                      A                      A
 Frequencies --   1404.7361              1409.9195              1413.5912
 Red. masses --      1.2259                 1.2115                 1.2272
 Frc consts  --      1.4252                 1.4189                 1.4448
 IR Inten    --     16.5312                23.0088                 3.6945

                     43                     44                     45
                      A                      A                      A
 Frequencies --   1438.3356              1478.6220              1493.0258
 Red. masses --      1.2347                 1.0780                 1.0553
 Frc consts  --      1.5050                 1.3886                 1.3860
 IR Inten    --     15.1125                 0.9509                 1.3913

                     46                     47                     48
                      A                      A                      A
 Frequencies --   1495.4796              1497.9657              1500.0093
 Red. masses --      1.0641                 1.0613                 1.0407
 Frc consts  --      1.4021                 1.4031                 1.3797
 IR Inten    --      3.4935                 0.7045                 5.9746

                     49                     50                     51
                      A                      A                      A
 Frequencies --   1511.3116              1517.3049              1728.5397
 Red. masses --      1.0843                 1.0584                 8.9524
 Frc consts  --      1.4592                 1.4356                15.7598
 IR Inten    --      1.6439                 5.2939                60.3285

                     52                     53                     54
                      A                      A                      A
 Frequencies --   2979.0122              3002.3616              3028.3159
 Red. masses --      1.0676                 1.0587                 1.0425
 Frc consts  --      5.5820                 5.6226                 5.6326
 IR Inten    --     41.4870                24.1757                14.6447

                     55                     56                     57
                      A                      A                      A
 Frequencies --   3031.0493              3032.6877              3034.9355
 Red. masses --      1.0474                 1.0629                 1.0799
 Frc consts  --      5.6697                 5.7595                 5.8606
 IR Inten    --     21.6863                26.0923                20.7301

                     58                     59                     60
                      A                      A                      A
 Frequencies --   3040.1664              3064.5141              3067.6141
 Red. masses --      1.0843                 1.0985                 1.0987
 Frc consts  --      5.9046                 6.0783                 6.0914
 IR Inten    --     24.6023                 5.7738                45.2450

                     61                     62                     63
                      A                      A                      A
 Frequencies --   3096.2717              3097.4867              3103.8118
 Red. masses --      1.1015                 1.1022                 1.1009
 Frc consts  --      6.2216                 6.2306                 6.2485
 IR Inten    --     16.5308                63.6959                29.0207

                     64                     65                     66
                      A                      A                      A
 Frequencies --   3110.5832              3424.8720              3834.3860
 Red. masses --      1.0988                 1.0728                 1.0662
 Frc consts  --      6.2639                 7.4141                 9.2355
 IR Inten    --     20.9616                 1.9602                20.2621

 - Thermochemistry -
 -------------------
 Temperature   298.150 Kelvin.  Pressure   1.00000 Atm.
 Atom     1 has atomic number  6 and mass  12.00000

 Molecular mass:   129.11536 amu.
 Principal axes and moments of inertia in atomic units:
                           1         2         3
     Eigenvalues --   773.201971891.880742184.45118
           X            0.99989  -0.00329  -0.01432
           Y            0.00381   0.99934   0.03614
           Z            0.01419  -0.03619   0.99924
 This molecule is an asymmetric top.
 Rotational symmetry number  1.
 Warning -- assumption of classical behavior for rotation
           may cause significant error
 Rotational temperatures (Kelvin)      0.11202     0.04578     0.03965
 Rotational constants (GHZ):           2.33411     0.95394     0.82618
 Zero-point vibrational energy     564476.8 (Joules/Mol)
                                  134.91320 (Kcal/Mol)
 Warning -- explicit consideration of  16 degrees of freedom as
           vibrations may cause significant error
 Vibrational temperatures:     99.62   121.50   134.76   159.38   203.71
          (Kelvin)            345.09   354.79   367.96   414.98   447.42
                              463.40   472.40   534.13   561.06   811.28
                              824.78  1067.52  1081.04  1182.30  1239.69
                             1274.65  1321.06  1358.25  1398.93  1508.53
                             1518.05  1561.42  1594.38  1652.55  1662.76
                             1699.11  1714.14  1787.79  1816.59  1895.17
                             1900.59  1947.03  1992.31  2005.95  2021.10
                             2028.56  2033.84  2069.44  2127.41  2148.13
                             2151.66  2155.24  2158.18  2174.44  2183.06
                             2486.98  4286.13  4319.73  4357.07  4361.00
                             4363.36  4366.60  4374.12  4409.15  4413.61
                             4454.84  4456.59  4465.69  4475.44  4927.63
                             5516.83

 Zero-point correction=                           0.214998 (Hartree/Particle)
 Thermal correction to Energy=                    0.226458
 Thermal correction to Enthalpy=                  0.227402
 Thermal correction to Gibbs Free Energy=         0.178219
 Sum of electronic and zero-point Energies=           -405.545840
 Sum of electronic and thermal Energies=              -405.534380
 Sum of electronic and thermal Enthalpies=            -405.533436
 Sum of electronic and thermal Free Energies=         -405.582619

                     E (Thermal)             CV                S
                      KCal/Mol        Cal/Mol-Kelvin    Cal/Mol-Kelvin
 Total                  142.104             41.366            103.514
 Electronic               0.000              0.000              0.000
 Translational            0.889              2.981             40.480
 Rotational               0.889              2.981             29.548
 Vibrational            140.327             35.405             33.486
 Vibration     1          0.598              1.969              4.175
 Vibration     2          0.601              1.960              3.785
 Vibration     3          0.603              1.954              3.582
 Vibration     4          0.607              1.941              3.255
 Vibration     5          0.615              1.912              2.782
 Vibration     6          0.657              1.779              1.804
 Vibration     7          0.661              1.768              1.755
 Vibration     8          0.666              1.753              1.691
 Vibration     9          0.685              1.695              1.483
 Vibration    10          0.700              1.653              1.357
 Vibration    11          0.707              1.631              1.300
 Vibration    12          0.712              1.619              1.268
 Vibration    13          0.743              1.531              1.075
 Vibration    14          0.758              1.492              1.000
 Vibration    15          0.920              1.109              0.516
 Vibration    16          0.929              1.089              0.498

 Optimization completed.
    -- Stationary point found.
 Normal termination of Gaussian 16 at Sun Jul  3 10:29:18 2022.
