 Gaussian 16, Revision A.03,
 Gaussian 16:  ES64L-G16RevA.03 25-Dec-2016

 -----------------------------
 # opt freq b3lyp/6-31g(2df,p)
 -----------------------------

 -------------------
 Title Card Required
 -------------------
 Symbolic Z-matrix:
 Charge =  0 Multiplicity = 1

 SCF Done:  E(RB3LYP) =  -331.766238046     A.U. after   12 cycles
 SCF Done:  E(RB3LYP) =  -331.769154120     A.U. after   10 cycles
 SCF Done:  E(RB3LYP) =  -331.769611906     A.U. after   10 cycles
 SCF Done:  E(RB3LYP) =  -331.769698075     A.U. after    9 cycles
 SCF Done:  E(RB3LYP) =  -331.769725002     A.U. after    9 cycles
 SCF Done:  E(RB3LYP) =  -331.769736112     A.U. after    8 cycles
 SCF Done:  E(RB3LYP) =  -331.769739535     A.U. after    8 cycles
 SCF Done:  E(RB3LYP) =  -331.769740160     A.U. after    7 cycles
 SCF Done:  E(RB3LYP) =  -331.769740195     A.U. after    6 cycles
 Optimization completed.
    -- Stationary point found.
 Normal termination of Gaussian 16 at Wed Aug  3 23:43:56 2022.

 ----------------------------------------------------------------------
 #N Geom=AllCheck Guess=TCheck SCRF=Check GenChk RB3LYP/6-31G(2df,p) Fr
 eq
 ----------------------------------------------------------------------

 Structure from the checkpoint file:  "CCCCCpCpCN.chk"
 -------------------
 Title Card Required
 -------------------
 Charge =  0 Multiplicity = 1

                         Standard orientation:
 ---------------------------------------------------------------------
 Center     Atomic      Atomic             Coordinates (Angstroms)
 Number     Number       Type             X           Y           Z
 ---------------------------------------------------------------------
      1          6           0       -4.004459    0.125763   -0.264309
      2          6           0       -2.725191   -0.546618    0.241239
      3          6           0       -1.447297    0.173510   -0.204403
      4          6           0       -0.167602   -0.500019    0.304775
      5          6           0        1.144435    0.133944   -0.189499
      6          6           0        1.323574    1.581820    0.285925
      7          6           0        2.342451   -0.734631    0.230572
      8          7           0        3.591974   -0.255705   -0.371485
      9          1           0       -4.898479   -0.410723    0.069089
     10          1           0       -4.026821    0.161300   -1.359367
     11          1           0       -4.080170    1.156695    0.099352
     12          1           0       -2.695167   -1.587400   -0.108134
     13          1           0       -2.747051   -0.597733    1.338076
     14          1           0       -1.487134    1.214487    0.139991
     15          1           0       -1.421893    0.218296   -1.302711
     16          1           0       -0.185338   -1.557029    0.004020
     17          1           0       -0.172164   -0.499905    1.404877
     18          1           0        1.118785    0.136018   -1.291418
     19          1           0        1.239378    1.641636    1.378540
     20          1           0        0.571235    2.249757   -0.142932
     21          1           0        2.313208    1.948792    0.004910
     22          1           0        2.116737   -1.788684   -0.008177
     23          1           0        2.457903   -0.680572    1.321418
     24          1           0        3.579305   -0.437280   -1.371483
     25          1           0        4.378372   -0.780343   -0.001458
 ---------------------------------------------------------------------

 SCF Done:  E(RB3LYP) =  -331.769740195     A.U. after    1 cycles

 The electronic state is 1-A.
 Alpha  occ. eigenvalues --  -14.30340 -10.19652 -10.17709 -10.17407 -10.17120
 Alpha  occ. eigenvalues --  -10.17067 -10.16835 -10.15735  -0.87397  -0.80061
 Alpha  occ. eigenvalues --   -0.76390  -0.70047  -0.65904  -0.61987  -0.57194
 Alpha  occ. eigenvalues --   -0.55306  -0.47560  -0.46635  -0.44932  -0.43976
 Alpha  occ. eigenvalues --   -0.42208  -0.40203  -0.39052  -0.37704  -0.37015
 Alpha  occ. eigenvalues --   -0.34955  -0.34552  -0.33316  -0.32117  -0.31261
 Alpha  occ. eigenvalues --   -0.31001  -0.29931  -0.23103
 Alpha virt. eigenvalues --    0.08284   0.09630   0.11096   0.11511   0.12639
 Alpha virt. eigenvalues --    0.14509   0.15142   0.16262   0.16489   0.17584
 Alpha virt. eigenvalues --    0.17854   0.18899   0.19134   0.19512   0.19960

 Mulliken charges:
               1
     1  C   -0.379922
     2  C   -0.160625
     3  C   -0.169568
     4  C   -0.180951
     5  C    0.046496
     6  C   -0.383608
     7  C   -0.156218
     8  N   -0.507973
     9  H    0.109161
    10  H    0.111999
    11  H    0.112771
    12  H    0.091657
    13  H    0.093025
    14  H    0.096785
    15  H    0.087951
    16  H    0.084126
    17  H    0.088304
    18  H    0.059766
    19  H    0.102387
    20  H    0.106546
    21  H    0.132349
    22  H    0.072184
    23  H    0.097272
    24  H    0.221365
    25  H    0.224720
 Sum of Mulliken charges =  -0.00000

 Dipole moment (field-independent basis, Debye):
    X=              0.1744    Y=             -1.2009    Z=             -0.3336  Tot=              1.2585
 Quadrupole moment (field-independent basis, Debye-Ang):
   XX=            -52.9660   YY=            -54.2828   ZZ=            -51.8695
   XY=             -4.7880   XZ=             -1.2738   YZ=              0.6045

  Exact polarizability: 104.724  -0.955  78.636  -0.328  -0.495  75.346
 Approx polarizability: 118.246  -0.225 113.152  -0.483  -0.211 116.690

                      1                      2                      3
                      A                      A                      A
 Frequencies --     54.7136                72.7456               103.5699
 Red. masses --      2.2113                 2.0043                 2.9398
 Frc consts  --      0.0039                 0.0062                 0.0186
 IR Inten    --      0.1693                 0.5672                 0.3473

                      4                      5                      6
                      A                      A                      A
 Frequencies --    127.0074               141.7244               226.1731
 Red. masses --      2.5518                 1.7532                 1.0743
 Frc consts  --      0.0243                 0.0207                 0.0324
 IR Inten    --      1.0816                 1.4223                13.9180

                      7                      8                      9
                      A                      A                      A
 Frequencies --    242.0831               251.7965               253.0676
 Red. masses --      1.0933                 1.2069                 2.6313
 Frc consts  --      0.0377                 0.0451                 0.0993
 IR Inten    --      9.2919                11.5376                 0.3488

                     10                     11                     12
                      A                      A                      A
 Frequencies --    297.1108               324.7046               415.5135
 Red. masses --      2.7970                 3.1969                 2.0278
 Frc consts  --      0.1455                 0.1986                 0.2063
 IR Inten    --      2.5546                 4.0565                 2.5944

                     13                     14                     15
                      A                      A                      A
 Frequencies --    459.5335               527.5661               735.5707
 Red. masses --      2.4008                 2.7809                 1.0818
 Frc consts  --      0.2987                 0.4560                 0.3449
 IR Inten    --      0.5029                 6.8691                 2.7207

                     16                     17                     18
                      A                      A                      A
 Frequencies --    786.1776               819.6138               865.6152
 Red. masses --      1.2541                 1.6589                 1.5695
 Frc consts  --      0.4567                 0.6566                 0.6929
 IR Inten    --      0.6837                50.3709                48.2323

                     19                     20                     21
                      A                      A                      A
 Frequencies --    904.3510               913.2330               918.6400
 Red. masses --      1.8198                 1.5767                 1.2286
 Frc consts  --      0.8769                 0.7747                 0.6109
 IR Inten    --      0.7088                18.1183                 0.5093

                     22                     23                     24
                      A                      A                      A
 Frequencies --    951.3082              1017.8140              1040.2548
 Red. masses --      1.8639                 1.8489                 1.7510
 Frc consts  --      0.9939                 1.1285                 1.1164
 IR Inten    --     18.3021                 1.8624                 3.3056

                     25                     26                     27
                      A                      A                      A
 Frequencies --   1047.8394              1066.4410              1091.3540
 Red. masses --      1.5807                 2.1788                 2.2851
 Frc consts  --      1.0226                 1.4600                 1.6036
 IR Inten    --      2.7067                 1.0966                 6.3689

                     28                     29                     30
                      A                      A                      A
 Frequencies --   1107.5271              1155.5643              1184.4613
 Red. masses --      1.7698                 2.2270                 1.8317
 Frc consts  --      1.2790                 1.7521                 1.5140
 IR Inten    --      3.6927                 3.9281                 3.3612

                     31                     32                     33
                      A                      A                      A
 Frequencies --   1218.1050              1256.0537              1280.6838
 Red. masses --      1.7375                 1.4373                 1.2732
 Frc consts  --      1.5190                 1.3360                 1.2303
 IR Inten    --      0.8711                 0.4582                 3.6483

                     34                     35                     36
                      A                      A                      A
 Frequencies --   1313.7050              1318.4751              1332.5786
 Red. masses --      1.2011                 1.1740                 1.0739
 Frc consts  --      1.2213                 1.2025                 1.1236
 IR Inten    --      0.9039                 0.0915                 0.1841

                     37                     38                     39
                      A                      A                      A
 Frequencies --   1343.2208              1377.5966              1380.7621
 Red. masses --      1.3184                 1.3474                 1.3869
 Frc consts  --      1.4015                 1.5066                 1.5579
 IR Inten    --      0.4513                 2.8273                 1.4881

                     40                     41                     42
                      A                      A                      A
 Frequencies --   1398.8650              1402.5152              1412.9933
 Red. masses --      1.5015                 1.3950                 1.2554
 Frc consts  --      1.7311                 1.6168                 1.4768
 IR Inten    --      1.9074                 4.6568                 0.8607

                     43                     44                     45
                      A                      A                      A
 Frequencies --   1427.9480              1479.9199              1486.0218
 Red. masses --      1.3737                 1.0789                 1.0661
 Frc consts  --      1.6503                 1.3923                 1.3870
 IR Inten    --     12.4811                 0.5176                 0.6961

                     46                     47                     48
                      A                      A                      A
 Frequencies --   1493.6638              1499.2048              1499.7702
 Red. masses --      1.0600                 1.0698                 1.0421
 Frc consts  --      1.3933                 1.4167                 1.3810
 IR Inten    --      4.3361                 0.6739                 4.5808

                     49                     50                     51
                      A                      A                      A
 Frequencies --   1507.6403              1510.5397              1513.7703
 Red. masses --      1.0692                 1.0651                 1.0856
 Frc consts  --      1.4318                 1.4318                 1.4656
 IR Inten    --      0.9225                 3.0920                 4.9360

                     52                     53                     54
                      A                      A                      A
 Frequencies --   1657.3057              2940.1344              2970.7340
 Red. masses --      1.0890                 1.0717                 1.0802
 Frc consts  --      1.7624                 5.4583                 5.6166
 IR Inten    --     21.6705                72.6365                15.4881

                     55                     56                     57
                      A                      A                      A
 Frequencies --   2994.2739              3004.2797              3014.3257
 Red. masses --      1.0591                 1.0620                 1.0627
 Frc consts  --      5.5946                 5.6474                 5.6890
 IR Inten    --     14.5936                 7.8843                62.1582

                     58                     59                     60
                      A                      A                      A
 Frequencies --   3024.1608              3026.5027              3027.7035
 Red. masses --      1.0859                 1.0480                 1.0401
 Frc consts  --      5.8513                 5.6560                 5.6177
 IR Inten    --     10.0500                 4.7470                34.0457

                     61                     62                     63
                      A                      A                      A
 Frequencies --   3034.0111              3037.7077              3061.8697
 Red. masses --      1.0920                 1.0943                 1.1027
 Frc consts  --      5.9228                 5.9495                 6.0909
 IR Inten    --     32.7533                26.8161                72.1463

                     64                     65                     66
                      A                      A                      A
 Frequencies --   3093.8093              3095.9786              3098.9007
 Red. masses --      1.1019                 1.0947                 1.1009
 Frc consts  --      6.2141                 6.1820                 6.2290
 IR Inten    --     64.7490                29.7769                42.5066

                     67                     68                     69
                      A                      A                      A
 Frequencies --   3127.4880              3486.4608              3565.3931
 Red. masses --      1.1000                 1.0497                 1.0917
 Frc consts  --      6.3393                 7.5180                 8.1765
 IR Inten    --     15.8933                 0.7955                 0.1148

 - Thermochemistry -
 -------------------
 Temperature   298.150 Kelvin.  Pressure   1.00000 Atm.
 Atom     1 has atomic number  6 and mass  12.00000

 Molecular mass:   115.13610 amu.
 Principal axes and moments of inertia in atomic units:
                           1         2         3
     Eigenvalues --   326.454312642.210632812.84395
           X            1.00000  -0.00252   0.00179
           Y            0.00252   0.99999  -0.00197
           Z           -0.00179   0.00197   1.00000
 This molecule is an asymmetric top.
 Rotational symmetry number  1.
 Rotational temperatures (Kelvin)      0.26532     0.03278     0.03079
 Rotational constants (GHZ):           5.52831     0.68304     0.64161
 Zero-point vibrational energy     614989.1 (Joules/Mol)
                                  146.98592 (Kcal/Mol)
 Warning -- explicit consideration of  14 degrees of freedom as
           vibrations may cause significant error
 Vibrational temperatures:     78.72   104.66   149.01   182.74   203.91
          (Kelvin)            325.41   348.30   362.28   364.11   427.48
                              467.18   597.83   661.17   759.05  1058.32
                             1131.13  1179.24  1245.43  1301.16  1313.94
                             1321.72  1368.72  1464.41  1496.69  1507.61
                             1534.37  1570.22  1593.48  1662.60  1704.18
                             1752.58  1807.18  1842.62  1890.13  1896.99
                             1917.28  1932.60  1982.05  1986.61  2012.65
                             2017.91  2032.98  2054.50  2129.27  2138.05
                             2149.05  2157.02  2157.83  2169.16  2173.33
                             2177.98  2384.49  4230.20  4274.22  4308.09
                             4322.49  4336.94  4351.09  4354.46  4356.19
                             4365.27  4370.58  4405.35  4451.30  4454.42
                             4458.63  4499.76  5016.24  5129.81

 Zero-point correction=                           0.234237 (Hartree/Particle)
 Thermal correction to Energy=                    0.245202
 Thermal correction to Enthalpy=                  0.246146
 Thermal correction to Gibbs Free Energy=         0.197831
 Sum of electronic and zero-point Energies=           -331.535503
 Sum of electronic and thermal Energies=              -331.524538
 Sum of electronic and thermal Enthalpies=            -331.523594
 Sum of electronic and thermal Free Energies=         -331.571910

                     E (Thermal)             CV                S
                      KCal/Mol        Cal/Mol-Kelvin    Cal/Mol-Kelvin
 Total                  153.867             39.233            101.689
 Electronic               0.000              0.000              0.000
 Translational            0.889              2.981             40.138
 Rotational               0.889              2.981             29.274
 Vibrational            152.089             33.271             32.277
 Vibration     1          0.596              1.976              4.639
 Vibration     2          0.599              1.967              4.078
 Vibration     3          0.605              1.946              3.386
 Vibration     4          0.611              1.926              2.991
 Vibration     5          0.615              1.912              2.780
 Vibration     6          0.650              1.801              1.909
 Vibration     7          0.658              1.776              1.788
 Vibration     8          0.664              1.760              1.718
 Vibration     9          0.664              1.758              1.709
 Vibration    10          0.691              1.679              1.433
 Vibration    11          0.709              1.626              1.286
 Vibration    12          0.779              1.437              0.907
 Vibration    13          0.817              1.340              0.767
 Vibration    14          0.883              1.189              0.593

 Optimization completed.
    -- Stationary point found.
 Normal termination of Gaussian 16 at Thu Aug  4 00:15:04 2022.
