 Gaussian 16, Revision A.03,
 Gaussian 16:  ES64L-G16RevA.03 25-Dec-2016

 -----------------------------
 # opt freq b3lyp/6-31g(2df,p)
 -----------------------------

 -------------------
 Title Card Required
 -------------------
 Symbolic Z-matrix:
 Charge =  0 Multiplicity = 1

 SCF Done:  E(RB3LYP) =  -384.747014736     A.U. after   16 cycles
 SCF Done:  E(RB3LYP) =  -384.786111419     A.U. after   15 cycles
 SCF Done:  E(RB3LYP) =  -384.785552762     A.U. after   17 cycles
 SCF Done:  E(RB3LYP) =  -384.789937593     A.U. after   16 cycles
 SCF Done:  E(RB3LYP) =  -384.791135402     A.U. after   16 cycles
 SCF Done:  E(RB3LYP) =  -384.787426962     A.U. after   17 cycles
 SCF Done:  E(RB3LYP) =  -384.791097098     A.U. after   13 cycles
 SCF Done:  E(RB3LYP) =  -384.791494880     A.U. after   14 cycles
 SCF Done:  E(RB3LYP) =  -384.791543079     A.U. after   15 cycles
 SCF Done:  E(RB3LYP) =  -384.791280399     A.U. after   14 cycles
 SCF Done:  E(RB3LYP) =  -384.791619880     A.U. after   15 cycles
 SCF Done:  E(RB3LYP) =  -384.791647217     A.U. after   16 cycles
 SCF Done:  E(RB3LYP) =  -384.791662401     A.U. after   23 cycles
 SCF Done:  E(RB3LYP) =  -384.791675583     A.U. after   16 cycles
 SCF Done:  E(RB3LYP) =  -384.791685344     A.U. after   16 cycles
 SCF Done:  E(RB3LYP) =  -384.791684250     A.U. after   14 cycles
 SCF Done:  E(RB3LYP) =  -384.791687291     A.U. after   16 cycles
 SCF Done:  E(RB3LYP) =  -384.791687298     A.U. after    9 cycles
 SCF Done:  E(RB3LYP) =  -384.791687348     A.U. after   23 cycles
 Optimization completed.
    -- Stationary point found.
 Normal termination of Gaussian 16 at Thu Aug  4 00:54:37 2022.

 ----------------------------------------------------------------------
 #N Geom=AllCheck Guess=TCheck SCRF=Check GenChk RB3LYP/6-31G(2df,p) Fr
 eq
 ----------------------------------------------------------------------

 Structure from the checkpoint file:  "CCCCtCCtCCdO.chk"
 -------------------
 Title Card Required
 -------------------
 Charge =  0 Multiplicity = 1

                         Standard orientation:
 ---------------------------------------------------------------------
 Center     Atomic      Atomic             Coordinates (Angstroms)
 Number     Number       Type             X           Y           Z
 ---------------------------------------------------------------------
      1          6           0        4.712114    0.504261   -0.000019
      2          6           0        3.190900    0.663401   -0.000175
      3          6           0        2.466069   -0.700557    0.000168
      4          6           0        1.018048   -0.587665    0.000096
      5          6           0       -0.188813   -0.471925    0.000031
      6          6           0       -1.536492   -0.341473   -0.000026
      7          6           0       -2.745754   -0.219291   -0.000074
      8          6           0       -4.178436   -0.116337   -0.000206
      9          8           0       -4.792350    0.927627    0.000233
     10          1           0        5.206904    1.479577   -0.000257
     11          1           0        5.055272   -0.044000   -0.884281
     12          1           0        5.055145   -0.043506    0.884599
     13          1           0        2.868876    1.234023   -0.877769
     14          1           0        2.868738    1.234539    0.877031
     15          1           0        2.779149   -1.284349    0.876823
     16          1           0        2.779270   -1.284874   -0.876086
     17          1           0       -4.700372   -1.094909   -0.000697
 ---------------------------------------------------------------------

 SCF Done:  E(RB3LYP) =  -384.791687348     A.U. after    1 cycles

 The electronic state is 1-A.
 Alpha  occ. eigenvalues --  -19.14364 -10.28970 -10.22734 -10.22568 -10.21776
 Alpha  occ. eigenvalues --  -10.20904 -10.20542 -10.20413 -10.19011  -1.04879
 Alpha  occ. eigenvalues --   -0.83165  -0.80509  -0.76294  -0.71869  -0.67111
 Alpha  occ. eigenvalues --   -0.61767  -0.59492  -0.51221  -0.49316  -0.48807
 Alpha  occ. eigenvalues --   -0.44613  -0.43549  -0.41849  -0.40681  -0.38299
 Alpha  occ. eigenvalues --   -0.36777  -0.35606  -0.34814  -0.34538  -0.26749
 Alpha  occ. eigenvalues --   -0.25943  -0.25521
 Alpha virt. eigenvalues --   -0.07888  -0.02797   0.03440   0.07660   0.11993
 Alpha virt. eigenvalues --    0.12169   0.12603   0.13580   0.14777   0.16178
 Alpha virt. eigenvalues --    0.16413   0.17621   0.21167   0.22213   0.22421

 Mulliken charges:
               1
     1  C   -0.382910
     2  C   -0.161539
     3  C   -0.377253
     4  C    0.223764
     5  C   -0.093120
     6  C   -0.159646
     7  C    0.223946
     8  C   -0.035888
     9  O   -0.224604
    10  H    0.122280
    11  H    0.120123
    12  H    0.120123
    13  H    0.118488
    14  H    0.118490
    15  H    0.143030
    16  H    0.143026
    17  H    0.101689
 Sum of Mulliken charges =  -0.00000

 Dipole moment (field-independent basis, Debye):
    X=              4.4474    Y=             -1.8982    Z=             -0.0007  Tot=              4.8355
 Quadrupole moment (field-independent basis, Debye-Ang):
   XX=            -56.1728   YY=            -53.2921   ZZ=            -51.6211
   XY=              8.1843   XZ=              0.0039   YZ=             -0.0005

  Exact polarizability: 198.643  -9.409  63.218   0.004   0.003  51.706
 Approx polarizability: 325.269 -36.565  98.553   0.006   0.006  77.592

                      1                      2                      3
                      A                      A                      A
 Frequencies --     17.2112                46.0429                61.3812
 Red. masses --      2.6162                 5.7617                 2.1792
 Frc consts  --      0.0005                 0.0072                 0.0048
 IR Inten    --      6.1544                 0.9274                 1.7090

                      4                      5                      6
                      A                      A                      A
 Frequencies --    113.6487               122.3606               226.4450
 Red. masses --      3.1686                 5.7151                 7.5988
 Frc consts  --      0.0241                 0.0504                 0.2296
 IR Inten    --      3.2428                 2.0363                 3.8571

                      7                      8                      9
                      A                      A                      A
 Frequencies --    237.1717               242.7390               301.8942
 Red. masses --      2.6038                 1.2639                 3.0984
 Frc consts  --      0.0863                 0.0439                 0.1664
 IR Inten    --      0.0309                 0.0064                 0.9324

                     10                     11                     12
                      A                      A                      A
 Frequencies --    395.5606               433.0971               499.8707
 Red. masses --      4.6464                 6.0716                 7.9625
 Frc consts  --      0.4283                 0.6710                 1.1722
 IR Inten    --      2.0367                 2.1252                 0.3208

                     13                     14                     15
                      A                      A                      A
 Frequencies --    579.2051               603.9145               739.9788
 Red. masses --      8.9075                 9.4290                 6.0453
 Frc consts  --      1.7606                 2.0261                 1.9503
 IR Inten    --      0.3591                 0.5798                62.9672

                     16                     17                     18
                      A                      A                      A
 Frequencies --    740.2556               867.8902               884.1171
 Red. masses --      1.1166                 1.2463                 2.0838
 Frc consts  --      0.3605                 0.5531                 0.9597
 IR Inten    --      3.1918                 0.1628                12.2615

                     19                     20                     21
                      A                      A                      A
 Frequencies --    973.0000              1017.4286              1043.2768
 Red. masses --      4.5277                 1.7704                 2.7979
 Frc consts  --      2.5255                 1.0798                 1.7943
 IR Inten    --     71.8577                 0.4902                 0.0137

                     22                     23                     24
                      A                      A                      A
 Frequencies --   1105.4200              1117.0868              1255.4580
 Red. masses --      2.0258                 1.4458                 1.3070
 Frc consts  --      1.4585                 1.0630                 1.2137
 IR Inten    --      6.2078                 0.4236                 0.0781

                     25                     26                     27
                      A                      A                      A
 Frequencies --   1268.9674              1317.0604              1321.5565
 Red. masses --      2.1410                 2.1039                 1.0796
 Frc consts  --      2.0313                 2.1502                 1.1110
 IR Inten    --     93.7342                 0.7545                 0.0227

                     28                     29                     30
                      A                      A                      A
 Frequencies --   1379.4666              1414.6457              1419.7579
 Red. masses --      1.5277                 1.2335                 1.2212
 Frc consts  --      1.7128                 1.4544                 1.4503
 IR Inten    --      1.9507                 0.3485                28.3608

                     31                     32                     33
                      A                      A                      A
 Frequencies --   1459.5438              1491.4436              1499.0267
 Red. masses --      1.0895                 1.0528                 1.0396
 Frc consts  --      1.3674                 1.3797                 1.3763
 IR Inten    --      2.0074                 1.5074                 6.1469

                     34                     35                     36
                      A                      A                      A
 Frequencies --   1507.7625              1752.2391              2250.5208
 Red. masses --      1.0786                10.5131                11.9441
 Frc consts  --      1.4447                19.0181                35.6426
 IR Inten    --      4.5219               360.9577                80.4794

                     37                     38                     39
                      A                      A                      A
 Frequencies --   2352.7090              2917.9348              3009.5872
 Red. masses --     11.9577                 1.0812                 1.0580
 Frc consts  --     38.9973                 5.4241                 5.6459
 IR Inten    --    338.0166               108.8694                10.9961

                     40                     41                     42
                      A                      A                      A
 Frequencies --   3032.2197              3038.4789              3047.0974
 Red. masses --      1.0367                 1.0999                 1.0591
 Frc consts  --      5.6158                 5.9828                 5.7938
 IR Inten    --     25.9477                 3.2968                20.1518

                     43                     44                     45
                      A                      A                      A
 Frequencies --   3079.0068              3104.4824              3111.1595
 Red. masses --      1.1026                 1.1037                 1.1004
 Frc consts  --      6.1588                 6.2675                 6.2757
 IR Inten    --      0.7044                48.7210                26.6870

 - Thermochemistry -
 -------------------
 Temperature   298.150 Kelvin.  Pressure   1.00000 Atm.
 Atom     1 has atomic number  6 and mass  12.00000

 Molecular mass:   120.05751 amu.
 Principal axes and moments of inertia in atomic units:
                           1         2         3
     Eigenvalues --   183.240684657.599884807.43830
           X            0.99995   0.00979   0.00000
           Y           -0.00979   0.99995  -0.00000
           Z           -0.00000   0.00000   1.00000
 This molecule is an asymmetric top.
 Rotational symmetry number  1.
 Rotational temperatures (Kelvin)      0.47268     0.01860     0.01802
 Rotational constants (GHZ):           9.84902     0.38748     0.37541
 Zero-point vibrational energy     349304.3 (Joules/Mol)
                                   83.48573 (Kcal/Mol)
 Warning -- explicit consideration of  14 degrees of freedom as
           vibrations may cause significant error
 Vibrational temperatures:     24.76    66.25    88.31   163.52   176.05
          (Kelvin)            325.80   341.24   349.25   434.36   569.12
                              623.13   719.20   833.35   868.90  1064.66
                             1065.06  1248.70  1272.05  1399.93  1463.85
                             1501.04  1590.45  1607.24  1806.32  1825.76
                             1894.96  1901.43  1984.74  2035.36  2042.71
                             2099.96  2145.85  2156.77  2169.33  2521.08
                             3238.00  3385.02  4198.26  4330.12  4362.69
                             4371.69  4384.09  4430.00  4466.66  4476.26

 Zero-point correction=                           0.133043 (Hartree/Particle)
 Thermal correction to Energy=                    0.143482
 Thermal correction to Enthalpy=                  0.144426
 Thermal correction to Gibbs Free Energy=         0.094807
 Sum of electronic and zero-point Energies=           -384.658644
 Sum of electronic and thermal Energies=              -384.648206
 Sum of electronic and thermal Enthalpies=            -384.647261
 Sum of electronic and thermal Free Energies=         -384.696880

                     E (Thermal)             CV                S
                      KCal/Mol        Cal/Mol-Kelvin    Cal/Mol-Kelvin
 Total                   90.036             34.518            104.431
 Electronic               0.000              0.000              0.000
 Translational            0.889              2.981             40.263
 Rotational               0.889              2.981             29.796
 Vibrational             88.259             28.556             34.371
 Vibration     1          0.593              1.986              6.932
 Vibration     2          0.595              1.979              4.980
 Vibration     3          0.597              1.973              4.412
 Vibration     4          0.607              1.938              3.206
 Vibration     5          0.610              1.930              3.063
 Vibration     6          0.650              1.801              1.907
 Vibration     7          0.656              1.784              1.824
 Vibration     8          0.659              1.775              1.783
 Vibration     9          0.694              1.670              1.406
 Vibration    10          0.762              1.480              0.979
 Vibration    11          0.794              1.398              0.849
 Vibration    12          0.855              1.250              0.658
 Vibration    13          0.936              1.076              0.487
 Vibration    14          0.962              1.023              0.443

 Optimization completed.
    -- Stationary point found.
 Normal termination of Gaussian 16 at Thu Aug  4 01:10:18 2022.
