 Gaussian 16, Revision A.03,
 Gaussian 16:  ES64L-G16RevA.03 25-Dec-2016

 -----------------------------
 # opt freq b3lyp/6-31g(2df,p)
 -----------------------------

 -------------------
 Title Card Required
 -------------------
 Symbolic Z-matrix:
 Charge =  0 Multiplicity = 1

 SCF Done:  E(RB3LYP) =  -401.156744947     A.U. after   14 cycles
 SCF Done:  E(RB3LYP) =  -401.161180309     A.U. after   12 cycles
 SCF Done:  E(RB3LYP) =  -401.161488619     A.U. after   10 cycles
 SCF Done:  E(RB3LYP) =  -401.161522282     A.U. after    9 cycles
 SCF Done:  E(RB3LYP) =  -401.161523582     A.U. after    8 cycles
 SCF Done:  E(RB3LYP) =  -401.161524158     A.U. after    7 cycles
 Optimization completed.
    -- Stationary point found.
 Normal termination of Gaussian 16 at Sun Jul  3 15:41:17 2022.

 ----------------------------------------------------------------------
 #N Geom=AllCheck Guess=TCheck SCRF=Check GenChk RB3LYP/6-31G(2df,p) Fr
 eq
 ----------------------------------------------------------------------

 Structure from the checkpoint file:  "CCCdNCCpdOpO.chk"
 -------------------
 Title Card Required
 -------------------
 Charge =  0 Multiplicity = 1

                         Standard orientation:
 ---------------------------------------------------------------------
 Center     Atomic      Atomic             Coordinates (Angstroms)
 Number     Number       Type             X           Y           Z
 ---------------------------------------------------------------------
      1          6           0        3.930371   -0.278248   -0.000187
      2          6           0        2.651433    0.562495   -0.000127
      3          6           0        1.391342   -0.271627    0.000101
      4          7           0        0.241997    0.255127    0.000189
      5          6           0       -0.908730   -0.623740    0.000405
      6          6           0       -2.228167    0.152766    0.000591
      7          8           0       -2.344918    1.339898   -0.000141
      8          8           0       -3.329134   -0.650506   -0.000550
      9          1           0        4.818160    0.359644   -0.000353
     10          1           0        3.983882   -0.922884   -0.884194
     11          1           0        3.984084   -0.922704    0.883938
     12          1           0        2.624834    1.225076   -0.873244
     13          1           0        2.625032    1.225254    0.872861
     14          1           0        1.539540   -1.367202    0.000185
     15          1           0       -0.912445   -1.283925    0.882037
     16          1           0       -0.912689   -1.284029   -0.881152
     17          1           0       -3.069443   -1.580132   -0.000574
 ---------------------------------------------------------------------

 SCF Done:  E(RB3LYP) =  -401.161524158     A.U. after    1 cycles

 The electronic state is 1-A.
 Alpha  occ. eigenvalues --  -19.18333 -19.11966 -14.33000 -10.30551 -10.23607
 Alpha  occ. eigenvalues --  -10.23500 -10.19463 -10.18708  -1.09483  -1.01476
 Alpha  occ. eigenvalues --   -0.93145  -0.78986  -0.73653  -0.64562  -0.60858
 Alpha  occ. eigenvalues --   -0.56919  -0.51883  -0.49564  -0.48519  -0.45673
 Alpha  occ. eigenvalues --   -0.43568  -0.42953  -0.40875  -0.39154  -0.37114
 Alpha  occ. eigenvalues --   -0.36688  -0.36014  -0.31322  -0.29475  -0.26710
 Alpha  occ. eigenvalues --   -0.25753
 Alpha virt. eigenvalues --   -0.02073   0.02060   0.05321   0.09856   0.09886
 Alpha virt. eigenvalues --    0.12770   0.14593   0.14712   0.16159   0.16569
 Alpha virt. eigenvalues --    0.19829   0.20433   0.21185   0.24473   0.25881

 Mulliken charges:
               1
     1  C   -0.390118
     2  C   -0.233484
     3  C    0.056494
     4  N   -0.149136
     5  C   -0.315236
     6  C    0.423147
     7  O   -0.278620
     8  O   -0.376143
     9  H    0.123738
    10  H    0.120385
    11  H    0.120385
    12  H    0.133397
    13  H    0.133395
    14  H    0.073645
    15  H    0.129343
    16  H    0.129377
    17  H    0.299431
 Sum of Mulliken charges =   0.00000

 Dipole moment (field-independent basis, Debye):
    X=              2.8799    Y=             -4.5462    Z=              0.0012  Tot=              5.3816
 Quadrupole moment (field-independent basis, Debye-Ang):
   XX=            -50.7779   YY=            -47.1569   ZZ=            -46.3391
   XY=              9.4302   XZ=             -0.0041   YZ=              0.0012

  Exact polarizability:  92.430   1.984  66.814   0.000  -0.002  47.233
 Approx polarizability: 109.735  -0.673 108.120   0.002  -0.007  71.782

 ******    2 imaginary frequencies (negative Signs) ******

                      1                      2                      3
                      A                      A                      A
 Frequencies --   -170.0262               -58.4083                51.4323
 Red. masses --      2.7063                 2.4685                 2.6790
 Frc consts  --      0.0461                 0.0050                 0.0042
 IR Inten    --      4.5373                 2.8576                 0.1065

                      4                      5                      6
                      A                      A                      A
 Frequencies --    102.5082               189.4619               232.7935
 Red. masses --      4.6777                 1.3789                 4.3410
 Frc consts  --      0.0290                 0.0292                 0.1386
 IR Inten    --      4.5971                 2.9448                 1.7590

                      7                      8                      9
                      A                      A                      A
 Frequencies --    269.2371               353.6276               416.1291
 Red. masses --      1.5403                 4.6745                 3.8190
 Frc consts  --      0.0658                 0.3444                 0.3896
 IR Inten    --      1.0183                 0.9523                 0.9937

                     10                     11                     12
                      A                      A                      A
 Frequencies --    447.9021               551.5048               567.2593
 Red. masses --      1.4117                 1.8256                 4.5219
 Frc consts  --      0.1669                 0.3272                 0.8573
 IR Inten    --     86.5875                 5.6621                 3.9508

                     13                     14                     15
                      A                      A                      A
 Frequencies --    665.0051               726.6576               873.5253
 Red. masses --      7.8336                 1.2152                 3.8592
 Frc consts  --      2.0411                 0.3781                 1.7350
 IR Inten    --     14.4814                 2.3626                23.3844

                     16                     17                     18
                      A                      A                      A
 Frequencies --    900.3196               937.3757              1006.7253
 Red. masses --      1.4307                 1.7882                 1.9972
 Frc consts  --      0.6833                 0.9257                 1.1926
 IR Inten    --      0.2143                 2.5641                 1.0577

                     19                     20                     21
                      A                      A                      A
 Frequencies --   1029.8778              1087.7008              1122.9695
 Red. masses --      3.9646                 3.3170                 1.6417
 Frc consts  --      2.4776                 2.3121                 1.2198
 IR Inten    --     17.1384                 6.5099                 0.7923

                     22                     23                     24
                      A                      A                      A
 Frequencies --   1134.2415              1146.3774              1250.0919
 Red. masses --      2.1613                 2.5508                 1.0943
 Frc consts  --      1.6382                 1.9751                 1.0076
 IR Inten    --     65.2526                 6.7337                 0.2306

                     25                     26                     27
                      A                      A                      A
 Frequencies --   1277.9483              1287.0454              1329.3752
 Red. masses --      1.1829                 1.4670                 1.4042
 Frc consts  --      1.1382                 1.4318                 1.4620
 IR Inten    --      0.0001               428.8302                 0.1377

                     28                     29                     30
                      A                      A                      A
 Frequencies --   1370.5184              1411.4089              1417.7361
 Red. masses --      1.5404                 1.4385                 1.2691
 Frc consts  --      1.7047                 1.6884                 1.5030
 IR Inten    --     25.8969                 5.7677                 1.7486

                     31                     32                     33
                      A                      A                      A
 Frequencies --   1440.8975              1462.9166              1501.3455
 Red. masses --      1.1230                 1.0688                 1.0382
 Frc consts  --      1.3738                 1.3477                 1.3787
 IR Inten    --     20.7056                 4.6081                 5.3180

                     34                     35                     36
                      A                      A                      A
 Frequencies --   1504.0451              1761.4213              1902.9104
 Red. masses --      1.0534                 9.4364                10.6292
 Frc consts  --      1.4040                17.2498                22.6771
 IR Inten    --      4.8236                95.6524               208.0212

                     37                     38                     39
                      A                      A                      A
 Frequencies --   2942.0122              2973.5646              3011.8919
 Red. masses --      1.0842                 1.0567                 1.1020
 Frc consts  --      5.5292                 5.5051                 5.8897
 IR Inten    --     50.2291                38.7831                14.8339

                     40                     41                     42
                      A                      A                      A
 Frequencies --   3034.7372              3039.2389              3066.2853
 Red. masses --      1.0397                 1.0572                 1.1006
 Frc consts  --      5.6417                 5.7537                 6.0968
 IR Inten    --     15.9655                20.2612                 1.3594

                     43                     44                     45
                      A                      A                      A
 Frequencies --   3100.6539              3115.3562              3788.1398
 Red. masses --      1.1021                 1.1002                 1.0656
 Frc consts  --      6.2425                 6.2914                 9.0095
 IR Inten    --     35.1478                24.3897                26.6826

 - Thermochemistry -
 -------------------
 Temperature   298.150 Kelvin.  Pressure   1.00000 Atm.
 Atom     1 has atomic number  6 and mass  12.00000

 Molecular mass:   115.06333 amu.
 Principal axes and moments of inertia in atomic units:
                           1         2         3
     Eigenvalues --   228.583552550.525602745.69583
           X            0.99997   0.00812  -0.00000
           Y           -0.00812   0.99997  -0.00001
           Z            0.00000   0.00001   1.00000
 This molecule is an asymmetric top.
 Rotational symmetry number  1.
 Rotational temperatures (Kelvin)      0.37892     0.03396     0.03155
 Rotational constants (GHZ):           7.89532     0.70760     0.65730
    2 imaginary frequencies ignored.
 Zero-point vibrational energy     363677.7 (Joules/Mol)
                                   86.92107 (Kcal/Mol)
 Warning -- explicit consideration of  10 degrees of freedom as
           vibrations may cause significant error
 Vibrational temperatures:     74.00   147.49   272.59   334.94   387.37
          (Kelvin)            508.79   598.72   644.43   793.49   816.16
                              956.79  1045.50  1256.81  1295.36  1348.67
                             1448.45  1481.76  1564.96  1615.70  1631.92
                             1649.38  1798.60  1838.68  1851.77  1912.67
                             1971.87  2030.70  2039.81  2073.13  2104.81
                             2160.10  2163.99  2534.29  2737.86  4232.90
                             4278.30  4333.44  4366.31  4372.79  4411.70
                             4461.15  4482.30  5450.29

 Zero-point correction=                           0.138518 (Hartree/Particle)
 Thermal correction to Energy=                    0.146390
 Thermal correction to Enthalpy=                  0.147334
 Thermal correction to Gibbs Free Energy=         0.105315
 Sum of electronic and zero-point Energies=           -401.023007
 Sum of electronic and thermal Energies=              -401.015134
 Sum of electronic and thermal Enthalpies=            -401.014190
 Sum of electronic and thermal Free Energies=         -401.056209

                     E (Thermal)             CV                S
                      KCal/Mol        Cal/Mol-Kelvin    Cal/Mol-Kelvin
 Total                   91.861             28.108             88.436
 Electronic               0.000              0.000              0.000
 Translational            0.889              2.981             40.136
 Rotational               0.889              2.981             28.861
 Vibrational             90.084             22.147             19.439
 Vibration     1          0.596              1.977              4.762
 Vibration     2          0.605              1.947              3.406
 Vibration     3          0.633              1.854              2.233
 Vibration     4          0.654              1.791              1.857
 Vibration     5          0.674              1.730              1.601
 Vibration     6          0.730              1.568              1.150
 Vibration     7          0.779              1.435              0.905
 Vibration     8          0.807              1.366              0.802
 Vibration     9          0.907              1.136              0.541
 Vibration    10          0.923              1.102              0.510

 Optimization completed.
    -- Stationary point found.
 Normal termination of Gaussian 16 at Sun Jul  3 15:58:25 2022.
