 Gaussian 16, Revision A.03,
 Gaussian 16:  ES64L-G16RevA.03 25-Dec-2016

 -----------------------------
 # opt freq b3lyp/6-31g(2df,p)
 -----------------------------

 -------------------
 Title Card Required
 -------------------
 Symbolic Z-matrix:
 Charge =  0 Multiplicity = 1

 SCF Done:  E(RB3LYP) =  -384.662611987     A.U. after   13 cycles
 SCF Done:  E(RB3LYP) =  -384.666606928     A.U. after   13 cycles
 SCF Done:  E(RB3LYP) =  -384.667093142     A.U. after   11 cycles
 SCF Done:  E(RB3LYP) =  -384.667568024     A.U. after   12 cycles
 SCF Done:  E(RB3LYP) =  -384.668513021     A.U. after   13 cycles
 SCF Done:  E(RB3LYP) =  -384.669297613     A.U. after   12 cycles
 SCF Done:  E(RB3LYP) =  -384.671181202     A.U. after   12 cycles
 SCF Done:  E(RB3LYP) =  -384.672197040     A.U. after   13 cycles
 SCF Done:  E(RB3LYP) =  -384.672819726     A.U. after   11 cycles
 SCF Done:  E(RB3LYP) =  -384.673981614     A.U. after   12 cycles
 SCF Done:  E(RB3LYP) =  -384.674428257     A.U. after   12 cycles
 SCF Done:  E(RB3LYP) =  -384.674453822     A.U. after    9 cycles
 SCF Done:  E(RB3LYP) =  -384.674696071     A.U. after   11 cycles
 SCF Done:  E(RB3LYP) =  -384.674691536     A.U. after   10 cycles
 SCF Done:  E(RB3LYP) =  -384.674751197     A.U. after   11 cycles
 SCF Done:  E(RB3LYP) =  -384.674750312     A.U. after    9 cycles
 SCF Done:  E(RB3LYP) =  -384.674753467     A.U. after    9 cycles
 SCF Done:  E(RB3LYP) =  -384.674753604     A.U. after    7 cycles
 SCF Done:  E(RB3LYP) =  -384.674753662     A.U. after    7 cycles
 Optimization completed.
    -- Stationary point found.
 Normal termination of Gaussian 16 at Thu Aug  4 14:53:00 2022.

 ----------------------------------------------------------------------
 #N Geom=AllCheck Guess=TCheck SCRF=Check GenChk RB3LYP/6-31G(2df,p) Fr
 eq
 ----------------------------------------------------------------------

 Structure from the checkpoint file:  "CCCdNCCpCpCdN.chk"
 -------------------
 Title Card Required
 -------------------
 Charge =  0 Multiplicity = 1

                         Standard orientation:
 ---------------------------------------------------------------------
 Center     Atomic      Atomic             Coordinates (Angstroms)
 Number     Number       Type             X           Y           Z
 ---------------------------------------------------------------------
      1          6           0       -4.201872   -0.538412    0.093246
      2          6           0       -3.078735    0.433804   -0.304132
      3          6           0       -1.755232    0.037612    0.284181
      4          7           0       -0.748377   -0.250935   -0.427339
      5          6           0        0.478908   -0.644636    0.239423
      6          6           0        1.671513    0.210340   -0.248716
      7          6           0        1.480334    1.696423    0.093685
      8          6           0        2.950147   -0.313286    0.362570
      9          7           0        3.937855   -0.859909   -0.217162
     10          1           0       -5.163502   -0.202797   -0.304966
     11          1           0       -4.298484   -0.611992    1.181863
     12          1           0       -4.005273   -1.542668   -0.294169
     13          1           0       -3.333740    1.440301    0.055716
     14          1           0       -2.973934    0.486734   -1.391126
     15          1           0       -1.716451   -0.007469    1.387728
     16          1           0        0.679102   -1.692266   -0.018532
     17          1           0        0.401252   -0.583637    1.339943
     18          1           0        1.733618    0.097003   -1.338092
     19          1           0        1.429241    1.845613    1.178787
     20          1           0        0.551517    2.071354   -0.343123
     21          1           0        2.310008    2.298006   -0.288680
     22          1           0        3.018529   -0.199451    1.452744
     23          1           0        3.771394   -0.913906   -1.228131
 ---------------------------------------------------------------------

 SCF Done:  E(RB3LYP) =  -384.674753662     A.U. after    1 cycles

 The electronic state is 1-A.
 Alpha  occ. eigenvalues --  -14.32420 -14.31164 -10.22716 -10.22312 -10.21335
 Alpha  occ. eigenvalues --  -10.19735 -10.19219 -10.18602 -10.18063  -0.92451
 Alpha  occ. eigenvalues --   -0.89709  -0.79885  -0.77061  -0.69596  -0.64918
 Alpha  occ. eigenvalues --   -0.61620  -0.57409  -0.55775  -0.49529  -0.47261
 Alpha  occ. eigenvalues --   -0.46352  -0.44381  -0.43652  -0.41055  -0.40362
 Alpha  occ. eigenvalues --   -0.38983  -0.38496  -0.36471  -0.35948  -0.35284
 Alpha  occ. eigenvalues --   -0.33859  -0.31015  -0.28666  -0.25369  -0.25253
 Alpha virt. eigenvalues --   -0.00532   0.00615   0.09328   0.10044   0.10441
 Alpha virt. eigenvalues --    0.12052   0.13792   0.14236   0.14940   0.16020
 Alpha virt. eigenvalues --    0.16319   0.16857   0.17479   0.17644   0.18672

 Mulliken charges:
               1
     1  C   -0.379065
     2  C   -0.233602
     3  C    0.044842
     4  N   -0.150135
     5  C   -0.156731
     6  C   -0.034107
     7  C   -0.400081
     8  C    0.071443
     9  N   -0.404179
    10  H    0.122314
    11  H    0.118647
    12  H    0.129081
    13  H    0.109580
    14  H    0.118474
    15  H    0.074141
    16  H    0.115707
    17  H    0.083111
    18  H    0.085702
    19  H    0.114696
    20  H    0.131372
    21  H    0.123301
    22  H    0.100607
    23  H    0.214881
 Sum of Mulliken charges =  -0.00000

 Dipole moment (field-independent basis, Debye):
    X=             -2.9625    Y=              1.0278    Z=              0.5956  Tot=              3.1918
 Quadrupole moment (field-independent basis, Debye-Ang):
   XX=            -66.0614   YY=            -57.2237   ZZ=            -54.8073
   XY=              3.4366   XZ=             -3.3345   YZ=              0.6344

  Exact polarizability: 124.978  -8.952  74.890  -5.585   2.362  79.460
 Approx polarizability: 151.826 -17.271 108.794 -14.320   7.073 127.675

                      1                      2                      3
                      A                      A                      A
 Frequencies --     39.5365                58.8397                64.8304
 Red. masses --      3.0006                 2.7337                 3.2306
 Frc consts  --      0.0028                 0.0056                 0.0080
 IR Inten    --      0.0461                 1.5722                 0.4257

                      4                      5                      6
                      A                      A                      A
 Frequencies --     93.2837               116.4987               208.0557
 Red. masses --      2.9919                 2.9267                 1.1531
 Frc consts  --      0.0153                 0.0234                 0.0294
 IR Inten    --      0.1363                 1.7123                 0.7115

                      7                      8                      9
                      A                      A                      A
 Frequencies --    225.0293               257.4877               281.9558
 Red. masses --      1.0945                 2.6877                 2.4605
 Frc consts  --      0.0327                 0.1050                 0.1152
 IR Inten    --      0.5220                12.9104                 0.6965

                     10                     11                     12
                      A                      A                      A
 Frequencies --    312.8020               349.1043               377.1013
 Red. masses --      2.2710                 2.1594                 2.2307
 Frc consts  --      0.1309                 0.1551                 0.1869
 IR Inten    --      6.0631                 2.8228                 3.4633

                     13                     14                     15
                      A                      A                      A
 Frequencies --    452.7564               546.4462               567.9035
 Red. masses --      3.0818                 3.3655                 2.7314
 Frc consts  --      0.3722                 0.5921                 0.5190
 IR Inten    --      3.8055                 2.9603                 6.2975

                     16                     17                     18
                      A                      A                      A
 Frequencies --    780.6865               822.4807               863.5116
 Red. masses --      1.2584                 2.0455                 2.1709
 Frc consts  --      0.4519                 0.8153                 0.9537
 IR Inten    --      1.4428                 7.1673                 6.5550

                     19                     20                     21
                      A                      A                      A
 Frequencies --    893.2173               919.6214               934.5285
 Red. masses --      1.5383                 1.8758                 1.3493
 Frc consts  --      0.7231                 0.9347                 0.6943
 IR Inten    --      4.3016                20.2770                 2.5422

                     22                     23                     24
                      A                      A                      A
 Frequencies --    961.3049              1002.2223              1065.0043
 Red. masses --      1.4125                 3.1298                 3.3219
 Frc consts  --      0.7691                 1.8522                 2.2199
 IR Inten    --      0.5154                10.4987                 5.4381

                     25                     26                     27
                      A                      A                      A
 Frequencies --   1098.8977              1109.2544              1113.3530
 Red. masses --      2.4086                 1.6626                 1.8441
 Frc consts  --      1.7137                 1.2053                 1.3468
 IR Inten    --      9.4249                10.1655                 6.8721

                     28                     29                     30
                      A                      A                      A
 Frequencies --   1140.9854              1153.1812              1180.5974
 Red. masses --      1.6524                 1.1351                 2.1450
 Frc consts  --      1.2674                 0.8894                 1.7615
 IR Inten    --      2.8533                38.2543                 5.0673

                     31                     32                     33
                      A                      A                      A
 Frequencies --   1237.0674              1272.6633              1282.0973
 Red. masses --      1.3777                 1.2987                 1.1935
 Frc consts  --      1.2422                 1.2393                 1.1558
 IR Inten    --     15.4607                16.4135                 3.2105

                     34                     35                     36
                      A                      A                      A
 Frequencies --   1309.5282              1332.0137              1352.9879
 Red. masses --      1.2529                 1.3978                 1.3157
 Frc consts  --      1.2659                 1.4612                 1.4190
 IR Inten    --     68.4361                 5.3180                 8.5663

                     37                     38                     39
                      A                      A                      A
 Frequencies --   1370.3123              1399.4642              1405.4740
 Red. masses --      1.3132                 1.2591                 1.2862
 Frc consts  --      1.4529                 1.4529                 1.4970
 IR Inten    --      8.4312                 4.5024                12.2648

                     40                     41                     42
                      A                      A                      A
 Frequencies --   1413.1526              1427.8457              1474.4128
 Red. masses --      1.2800                 1.2394                 1.0783
 Frc consts  --      1.5061                 1.4887                 1.3811
 IR Inten    --      9.8029                15.7862                 2.8996

                     43                     44                     45
                      A                      A                      A
 Frequencies --   1485.5571              1496.6372              1499.5004
 Red. masses --      1.0948                 1.0561                 1.0413
 Frc consts  --      1.4235                 1.3937                 1.3794
 IR Inten    --      6.6950                 2.7682                 5.1188

                     46                     47                     48
                      A                      A                      A
 Frequencies --   1501.6791              1506.2384              1729.2187
 Red. masses --      1.0456                 1.0628                 8.5429
 Frc consts  --      1.3893                 1.4207                15.0507
 IR Inten    --     10.7652                 3.5738                86.8760

                     49                     50                     51
                      A                      A                      A
 Frequencies --   1757.4850              2940.0666              2951.7498
 Red. masses --      8.6436                 1.0702                 1.0809
 Frc consts  --     15.7300                 5.4507                 5.5486
 IR Inten    --     80.7530                20.0885                74.8312

                     52                     53                     54
                      A                      A                      A
 Frequencies --   3017.4144              3030.3232              3032.3740
 Red. masses --      1.0669                 1.0745                 1.0485
 Frc consts  --      5.7234                 5.8132                 5.6803
 IR Inten    --     17.0201                 7.5447                 8.0123

                     55                     56                     57
                      A                      A                      A
 Frequencies --   3036.9189              3041.9292              3048.9675
 Red. masses --      1.0354                 1.0883                 1.0860
 Frc consts  --      5.6261                 5.9335                 5.9483
 IR Inten    --     28.4004                11.7935                65.0859

                     58                     59                     60
                      A                      A                      A
 Frequencies --   3090.5038              3101.6245              3111.0167
 Red. masses --      1.0954                 1.0984                 1.0995
 Frc consts  --      6.1644                 6.2256                 6.2695
 IR Inten    --      1.3373                27.3523                38.4593

                     61                     62                     63
                      A                      A                      A
 Frequencies --   3115.7373              3123.9190              3396.7306
 Red. masses --      1.1028                 1.1015                 1.0733
 Frc consts  --      6.3077                 6.3333                 7.2963
 IR Inten    --     26.1385                17.1909                 4.7626

 - Thermochemistry -
 -------------------
 Temperature   298.150 Kelvin.  Pressure   1.00000 Atm.
 Atom     1 has atomic number  6 and mass  12.00000

 Molecular mass:   126.11570 amu.
 Principal axes and moments of inertia in atomic units:
                           1         2         3
     Eigenvalues --   368.867723202.188093407.91904
           X            0.99996   0.00913  -0.00240
           Y           -0.00914   0.99996  -0.00090
           Z            0.00239   0.00092   1.00000
 This molecule is an asymmetric top.
 Rotational symmetry number  1.
 Rotational temperatures (Kelvin)      0.23481     0.02705     0.02542
 Rotational constants (GHZ):           4.89265     0.56360     0.52957
 Zero-point vibrational energy     534031.5 (Joules/Mol)
                                  127.63658 (Kcal/Mol)
 Warning -- explicit consideration of  15 degrees of freedom as
           vibrations may cause significant error
 Vibrational temperatures:     56.88    84.66    93.28   134.21   167.62
          (Kelvin)            299.35   323.77   370.47   405.67   450.05
                              502.28   542.56   651.42   786.21   817.09
                             1123.23  1183.37  1242.40  1285.14  1323.13
                             1344.58  1383.10  1441.97  1532.30  1581.07
                             1595.97  1601.87  1641.62  1659.17  1698.62
                             1779.86  1831.08  1844.65  1884.12  1916.47
                             1946.65  1971.57  2013.52  2022.16  2033.21
                             2054.35  2121.35  2137.39  2153.33  2157.45
                             2160.58  2167.14  2487.96  2528.63  4230.10
                             4246.91  4341.39  4359.96  4362.91  4369.45
                             4376.66  4386.78  4446.55  4462.55  4476.06
                             4482.85  4494.62  4887.14

 Zero-point correction=                           0.203402 (Hartree/Particle)
 Thermal correction to Energy=                    0.214635
 Thermal correction to Enthalpy=                  0.215579
 Thermal correction to Gibbs Free Energy=         0.165442
 Sum of electronic and zero-point Energies=           -384.471352
 Sum of electronic and thermal Energies=              -384.460119
 Sum of electronic and thermal Enthalpies=            -384.459175
 Sum of electronic and thermal Free Energies=         -384.509312

                     E (Thermal)             CV                S
                      KCal/Mol        Cal/Mol-Kelvin    Cal/Mol-Kelvin
 Total                  134.685             39.083            105.522
 Electronic               0.000              0.000              0.000
 Translational            0.889              2.981             40.410
 Rotational               0.889              2.981             29.777
 Vibrational            132.908             33.121             35.335
 Vibration     1          0.594              1.981              5.282
 Vibration     2          0.596              1.974              4.496
 Vibration     3          0.597              1.971              4.304
 Vibration     4          0.602              1.954              3.590
 Vibration     5          0.608              1.936              3.158
 Vibration     6          0.641              1.828              2.061
 Vibration     7          0.650              1.803              1.918
 Vibration     8          0.667              1.750              1.679
 Vibration     9          0.681              1.707              1.522
 Vibration    10          0.701              1.649              1.347
 Vibration    11          0.726              1.577              1.170
 Vibration    12          0.748              1.519              1.051
 Vibration    13          0.811              1.355              0.787
 Vibration    14          0.902              1.147              0.552
 Vibration    15          0.924              1.101              0.508

 Optimization completed.
    -- Stationary point found.
 Normal termination of Gaussian 16 at Thu Aug  4 15:24:06 2022.
