 Gaussian 16, Revision A.03,
 Gaussian 16:  ES64L-G16RevA.03 25-Dec-2016

 -----------------------------
 # opt freq b3lyp/6-31g(2df,p)
 -----------------------------

 -------------------
 Title Card Required
 -------------------
 Symbolic Z-matrix:
 Charge =  0 Multiplicity = 1

 SCF Done:  E(RB3LYP) =  -367.444017567     A.U. after   13 cycles
 SCF Done:  E(RB3LYP) =  -367.447393347     A.U. after   11 cycles
 SCF Done:  E(RB3LYP) =  -367.449739745     A.U. after   11 cycles
 SCF Done:  E(RB3LYP) =  -367.451096837     A.U. after   10 cycles
 SCF Done:  E(RB3LYP) =  -367.453580330     A.U. after   11 cycles
 SCF Done:  E(RB3LYP) =  -367.454577929     A.U. after   11 cycles
 SCF Done:  E(RB3LYP) =  -367.455626664     A.U. after   11 cycles
 SCF Done:  E(RB3LYP) =  -367.455962851     A.U. after   13 cycles
 SCF Done:  E(RB3LYP) =  -367.456130104     A.U. after   10 cycles
 SCF Done:  E(RB3LYP) =  -367.456177174     A.U. after    9 cycles
 SCF Done:  E(RB3LYP) =  -367.456190133     A.U. after    9 cycles
 SCF Done:  E(RB3LYP) =  -367.456194765     A.U. after    8 cycles
 SCF Done:  E(RB3LYP) =  -367.456199218     A.U. after    8 cycles
 SCF Done:  E(RB3LYP) =  -367.456201865     A.U. after    8 cycles
 SCF Done:  E(RB3LYP) =  -367.456202013     A.U. after    7 cycles
 Optimization completed.
    -- Stationary point found.
 Normal termination of Gaussian 16 at Thu Aug  4 01:01:13 2022.

 ----------------------------------------------------------------------
 #N Geom=AllCheck Guess=TCheck SCRF=Check GenChk RB3LYP/6-31G(2df,p) Fr
 eq
 ----------------------------------------------------------------------

 Structure from the checkpoint file:  "CCCn1cccc1C.chk"
 -------------------
 Title Card Required
 -------------------
 Charge =  0 Multiplicity = 1

                         Standard orientation:
 ---------------------------------------------------------------------
 Center     Atomic      Atomic             Coordinates (Angstroms)
 Number     Number       Type             X           Y           Z
 ---------------------------------------------------------------------
      1          6           0       -3.482764   -0.091089   -0.169822
      2          6           0       -2.007448   -0.209861   -0.558888
      3          6           0       -1.079020   -0.168617    0.663198
      4          7           0        0.328139   -0.298892    0.329566
      5          6           0        0.985290   -1.500983    0.190310
      6          6           0        2.274321   -1.248633   -0.210160
      7          6           0        2.405135    0.162264   -0.322643
      8          6           0        1.193915    0.730066    0.011191
      9          6           0        0.796490    2.169048    0.068928
     10          1           0       -4.127808   -0.126457   -1.052382
     11          1           0       -3.683543    0.852045    0.350711
     12          1           0       -3.786115   -0.906631    0.496243
     13          1           0       -1.731639    0.599265   -1.245183
     14          1           0       -1.831228   -1.146418   -1.100576
     15          1           0       -1.338321   -0.979480    1.353098
     16          1           0       -1.223903    0.768067    1.211439
     17          1           0        0.472792   -2.427872    0.396321
     18          1           0        3.038493   -1.989197   -0.389876
     19          1           0        3.290945    0.711492   -0.605662
     20          1           0        1.650615    2.789802   -0.211606
     21          1           0        0.482609    2.480574    1.073733
     22          1           0       -0.025381    2.413884   -0.615914
 ---------------------------------------------------------------------

 SCF Done:  E(RB3LYP) =  -367.456202013     A.U. after    1 cycles

 The electronic state is 1-A.
 Alpha  occ. eigenvalues --  -14.35928 -10.22292 -10.19098 -10.18844 -10.18253
 Alpha  occ. eigenvalues --  -10.18233 -10.18224 -10.14997 -10.14791  -0.96749
 Alpha  occ. eigenvalues --   -0.80842  -0.75565  -0.74964  -0.67343  -0.65992
 Alpha  occ. eigenvalues --   -0.60379  -0.56117  -0.52628  -0.49779  -0.46837
 Alpha  occ. eigenvalues --   -0.44211  -0.42662  -0.41876  -0.40793  -0.39271
 Alpha  occ. eigenvalues --   -0.37915  -0.37597  -0.36341  -0.36088  -0.34660
 Alpha  occ. eigenvalues --   -0.33982  -0.33608  -0.21965  -0.19021
 Alpha virt. eigenvalues --    0.04855   0.07862   0.09799   0.10633   0.11106
 Alpha virt. eigenvalues --    0.13058   0.14012   0.15088   0.15949   0.16755
 Alpha virt. eigenvalues --    0.17195   0.18147   0.19035   0.19458   0.21548

 Mulliken charges:
               1
     1  C   -0.379811
     2  C   -0.169361
     3  C   -0.164374
     4  N   -0.023400
     5  C   -0.110554
     6  C   -0.166624
     7  C   -0.231999
     8  C    0.290029
     9  C   -0.507395
    10  H    0.119999
    11  H    0.117138
    12  H    0.117282
    13  H    0.109965
    14  H    0.110063
    15  H    0.114209
    16  H    0.115261
    17  H    0.105120
    18  H    0.088274
    19  H    0.084181
    20  H    0.133236
    21  H    0.125093
    22  H    0.123668
 Sum of Mulliken charges =  -0.00000

 Dipole moment (field-independent basis, Debye):
    X=             -2.0652    Y=              0.4885    Z=              0.3418  Tot=              2.1495
 Quadrupole moment (field-independent basis, Debye-Ang):
   XX=            -55.5128   YY=            -52.6050   ZZ=            -57.3661
   XY=              1.4497   XZ=             -1.0410   YZ=             -0.4265

  Exact polarizability: 110.775  -2.656  97.101  -7.940  -0.754  61.891
 Approx polarizability: 150.347  -3.067 149.336 -15.857  -1.967  96.514

                      1                      2                      3
                      A                      A                      A
 Frequencies --     61.4732                83.8901                94.9107
 Red. masses --      2.5819                 1.8503                 3.2101
 Frc consts  --      0.0057                 0.0077                 0.0170
 IR Inten    --      0.1699                 0.0284                 0.0827

                      4                      5                      6
                      A                      A                      A
 Frequencies --    158.2592               232.4479               234.4905
 Red. masses --      1.1100                 1.2677                 2.1822
 Frc consts  --      0.0164                 0.0404                 0.0707
 IR Inten    --      0.0287                 0.1867                 0.9821

                      7                      8                      9
                      A                      A                      A
 Frequencies --    275.1313               297.6267               368.9650
 Red. masses --      2.3822                 2.6450                 3.7670
 Frc consts  --      0.1062                 0.1380                 0.3021
 IR Inten    --      0.3549                 1.6329                 1.9940

                     10                     11                     12
                      A                      A                      A
 Frequencies --    422.8908               624.5640               637.4308
 Red. masses --      2.5569                 4.4058                 3.6647
 Frc consts  --      0.2694                 1.0126                 0.8773
 IR Inten    --      0.8881                 1.6254                 1.8357

                     13                     14                     15
                      A                      A                      A
 Frequencies --    658.5788               706.4877               747.4217
 Red. masses --      3.7666                 1.3121                 1.1459
 Frc consts  --      0.9625                 0.3859                 0.3772
 IR Inten    --      2.9948                32.9504                 1.7180

                     16                     17                     18
                      A                      A                      A
 Frequencies --    758.3181               770.1942               828.9329
 Red. masses --      2.3895                 1.4106                 1.1990
 Frc consts  --      0.8096                 0.4930                 0.4854
 IR Inten    --      6.7860                20.0421                 0.6902

                     19                     20                     21
                      A                      A                      A
 Frequencies --    878.1530               896.6710               906.5696
 Red. masses --      1.3247                 2.0750                 2.9390
 Frc consts  --      0.6019                 0.9829                 1.4232
 IR Inten    --      0.3804                 7.6459                 2.1262

                     22                     23                     24
                      A                      A                      A
 Frequencies --    991.7546              1038.8247              1044.2172
 Red. masses --      1.5507                 1.8527                 1.6461
 Frc consts  --      0.8987                 1.1780                 1.0575
 IR Inten    --      5.8826                 1.4809                 1.3727

                     25                     26                     27
                      A                      A                      A
 Frequencies --   1062.0002              1092.5807              1121.4803
 Red. masses --      1.4454                 1.8274                 2.0932
 Frc consts  --      0.9605                 1.2853                 1.5511
 IR Inten    --      0.8916                 7.5985                 2.0539

                     28                     29                     30
                      A                      A                      A
 Frequencies --   1129.6483              1199.5081              1247.0247
 Red. masses --      1.3496                 2.9656                 1.5263
 Frc consts  --      1.0147                 2.5141                 1.3984
 IR Inten    --      8.1637                 0.9904                 3.2398

                     31                     32                     33
                      A                      A                      A
 Frequencies --   1274.5238              1316.5260              1327.3022
 Red. masses --      1.4029                 1.4973                 1.6800
 Frc consts  --      1.3427                 1.5290                 1.7438
 IR Inten    --      1.8844                10.6354                41.9978

                     34                     35                     36
                      A                      A                      A
 Frequencies --   1331.2135              1401.3997              1414.3007
 Red. masses --      1.7721                 1.4488                 1.2515
 Frc consts  --      1.8503                 1.6764                 1.4750
 IR Inten    --     12.7917                11.9177                 0.5277

                     37                     38                     39
                      A                      A                      A
 Frequencies --   1417.9022              1421.9212              1458.1164
 Red. masses --      1.4798                 1.9711                 2.8040
 Frc consts  --      1.7529                 2.3481                 3.5124
 IR Inten    --      9.4659                 0.6389                22.8638

                     40                     41                     42
                      A                      A                      A
 Frequencies --   1480.3582              1483.3241              1490.4018
 Red. masses --      1.0495                 1.0849                 1.6441
 Frc consts  --      1.3551                 1.4064                 2.1517
 IR Inten    --      4.9153                 1.1641                11.3260

                     43                     44                     45
                      A                      A                      A
 Frequencies --   1494.0276              1500.5956              1510.5294
 Red. masses --      1.0848                 1.0484                 1.1109
 Frc consts  --      1.4267                 1.3909                 1.4934
 IR Inten    --      0.9585                 6.4571                 9.0927

                     46                     47                     48
                      A                      A                      A
 Frequencies --   1531.2902              1598.7788              3010.7707
 Red. masses --      2.0695                 4.9616                 1.0408
 Frc consts  --      2.8592                 7.4722                 5.5588
 IR Inten    --     32.8968                 2.9047                42.8301

                     49                     50                     51
                      A                      A                      A
 Frequencies --   3030.1150              3032.6926              3043.8621
 Red. masses --      1.0372                 1.0588                 1.0592
 Frc consts  --      5.6109                 5.7372                 5.7819
 IR Inten    --     17.9436                 0.1301                61.9480

                     52                     53                     54
                      A                      A                      A
 Frequencies --   3051.8172              3062.3407              3085.1615
 Red. masses --      1.0996                 1.1005                 1.1037
 Frc consts  --      6.0338                 6.0807                 6.1895
 IR Inten    --     26.1311                 0.7813                 0.9758

                     55                     56                     57
                      A                      A                      A
 Frequencies --   3100.9641              3108.2979              3118.5903
 Red. masses --      1.1040                 1.1003                 1.0950
 Frc consts  --      6.2549                 6.2635                 6.2747
 IR Inten    --     62.3861                28.4224                13.2251

                     58                     59                     60
                      A                      A                      A
 Frequencies --   3233.8062              3244.5112              3262.3086
 Red. masses --      1.0889                 1.0932                 1.1055
 Frc consts  --      6.7093                 6.7801                 6.9322
 IR Inten    --      5.5303                 6.1642                 4.6996

 - Thermochemistry -
 -------------------
 Temperature   298.150 Kelvin.  Pressure   1.00000 Atm.
 Atom     1 has atomic number  6 and mass  12.00000

 Molecular mass:   123.10480 amu.
 Principal axes and moments of inertia in atomic units:
                           1         2         3
     Eigenvalues --   604.378111707.399842147.29549
           X            0.99995   0.00939  -0.00167
           Y           -0.00939   0.99996   0.00047
           Z            0.00168  -0.00046   1.00000
 This molecule is an asymmetric top.
 Rotational symmetry number  1.
 Warning -- assumption of classical behavior for rotation
           may cause significant error
 Rotational temperatures (Kelvin)      0.14331     0.05073     0.04034
 Rotational constants (GHZ):           2.98611     1.05701     0.84047
 Zero-point vibrational energy     510854.5 (Joules/Mol)
                                  122.09715 (Kcal/Mol)
 Warning -- explicit consideration of  10 degrees of freedom as
           vibrations may cause significant error
 Vibrational temperatures:     88.45   120.70   136.56   227.70   334.44
          (Kelvin)            337.38   395.85   428.22   530.86   608.45
                              898.61   917.12   947.55  1016.48  1075.37
                             1091.05  1108.14  1192.65  1263.47  1290.11
                             1304.35  1426.91  1494.64  1502.40  1527.98
                             1571.98  1613.56  1625.31  1725.82  1794.19
                             1833.76  1894.19  1909.69  1915.32  2016.30
                             2034.86  2040.04  2045.83  2097.90  2129.91
                             2134.17  2144.36  2149.57  2159.02  2173.31
                             2203.19  2300.29  4331.83  4359.66  4363.37
                             4379.44  4390.88  4406.03  4438.86  4461.60
                             4472.15  4486.96  4652.73  4668.13  4693.73

 Zero-point correction=                           0.194574 (Hartree/Particle)
 Thermal correction to Energy=                    0.204265
 Thermal correction to Enthalpy=                  0.205209
 Thermal correction to Gibbs Free Energy=         0.159511
 Sum of electronic and zero-point Energies=           -367.261628
 Sum of electronic and thermal Energies=              -367.251937
 Sum of electronic and thermal Enthalpies=            -367.250993
 Sum of electronic and thermal Free Energies=         -367.296691

                     E (Thermal)             CV                S
                      KCal/Mol        Cal/Mol-Kelvin    Cal/Mol-Kelvin
 Total                  128.178             35.826             96.180
 Electronic               0.000              0.000              0.000
 Translational            0.889              2.981             40.338
 Rotational               0.889              2.981             29.184
 Vibrational            126.401             29.865             26.658
 Vibration     1          0.597              1.973              4.409
 Vibration     2          0.601              1.960              3.798
 Vibration     3          0.603              1.953              3.556
 Vibration     4          0.621              1.893              2.570
 Vibration     5          0.653              1.791              1.860
 Vibration     6          0.654              1.788              1.844
 Vibration     7          0.677              1.719              1.564
 Vibration     8          0.691              1.678              1.430
 Vibration     9          0.741              1.536              1.084
 Vibration    10          0.785              1.420              0.882

 Optimization completed.
    -- Stationary point found.
 Normal termination of Gaussian 16 at Thu Aug  4 01:43:04 2022.
