 Gaussian 16, Revision A.03,
 Gaussian 16:  ES64L-G16RevA.03 25-Dec-2016

 -----------------------------
 # opt freq b3lyp/6-31g(2df,p)
 -----------------------------

 -------------------
 Title Card Required
 -------------------
 Symbolic Z-matrix:
 Charge =  0 Multiplicity = 1

 SCF Done:  E(RB3LYP) =  -441.632120538     A.U. after   12 cycles
 SCF Done:  E(RB3LYP) =  -441.641164248     A.U. after   11 cycles
 SCF Done:  E(RB3LYP) =  -441.646815004     A.U. after   11 cycles
 SCF Done:  E(RB3LYP) =  -441.650537524     A.U. after   12 cycles
 SCF Done:  E(RB3LYP) =  -441.651242752     A.U. after   10 cycles
 SCF Done:  E(RB3LYP) =  -441.651520774     A.U. after   10 cycles
 SCF Done:  E(RB3LYP) =  -441.651665695     A.U. after   10 cycles
 SCF Done:  E(RB3LYP) =  -441.651702179     A.U. after   10 cycles
 SCF Done:  E(RB3LYP) =  -441.651711578     A.U. after    9 cycles
 SCF Done:  E(RB3LYP) =  -441.651714723     A.U. after    9 cycles
 SCF Done:  E(RB3LYP) =  -441.651716377     A.U. after    9 cycles
 SCF Done:  E(RB3LYP) =  -441.651717732     A.U. after    8 cycles
 SCF Done:  E(RB3LYP) =  -441.651717915     A.U. after    7 cycles
 SCF Done:  E(RB3LYP) =  -441.651717942     A.U. after    6 cycles
 SCF Done:  E(RB3LYP) =  -441.651717948     A.U. after    6 cycles
 Optimization completed.
    -- Stationary point found.
 Normal termination of Gaussian 16 at Thu Aug  4 16:12:29 2022.

 ----------------------------------------------------------------------
 #N Geom=AllCheck Guess=TCheck SCRF=Check GenChk RB3LYP/6-31G(2df,p) Fr
 eq
 ----------------------------------------------------------------------

 Structure from the checkpoint file:  "CCCNpCpC1OCO1.chk"
 -------------------
 Title Card Required
 -------------------
 Charge =  0 Multiplicity = 1

                         Standard orientation:
 ---------------------------------------------------------------------
 Center     Atomic      Atomic             Coordinates (Angstroms)
 Number     Number       Type             X           Y           Z
 ---------------------------------------------------------------------
      1          6           0       -3.253055   -1.125944    0.197787
      2          6           0       -2.257655   -0.132588   -0.407490
      3          6           0       -0.945227   -0.078799    0.382047
      4          7           0        0.027829    0.848230   -0.192891
      5          6           0       -0.205777    2.258467    0.067973
      6          6           0        1.350249    0.427274   -0.274400
      7          8           0        1.988056   -0.129892    0.922851
      8          6           0        2.311542   -1.261171    0.136389
      9          8           0        1.540669   -0.807626   -0.974465
     10          1           0       -4.183186   -1.154985   -0.377314
     11          1           0       -3.508317   -0.856748    1.228915
     12          1           0       -2.840495   -2.140895    0.214575
     13          1           0       -2.715950    0.863142   -0.443982
     14          1           0       -2.026503   -0.407233   -1.442788
     15          1           0       -0.493718   -1.073230    0.383160
     16          1           0       -1.149806    0.183780    1.432691
     17          1           0       -1.179558    2.561340   -0.327886
     18          1           0        0.557509    2.858249   -0.435090
     19          1           0       -0.184748    2.503081    1.142038
     20          1           0        1.963409    1.244813   -0.679626
     21          1           0        1.951040   -2.212472    0.554276
     22          1           0        3.385261   -1.329736   -0.099659
 ---------------------------------------------------------------------

 SCF Done:  E(RB3LYP) =  -441.651717948     A.U. after    1 cycles

 The electronic state is 1-A.
 Alpha  occ. eigenvalues --  -19.14394 -19.13589 -14.33430 -10.30376 -10.27573
 Alpha  occ. eigenvalues --  -10.21222 -10.20648 -10.17944 -10.17478  -1.11786
 Alpha  occ. eigenvalues --   -0.94863  -0.93379  -0.78054  -0.72127  -0.70085
 Alpha  occ. eigenvalues --   -0.64350  -0.59728  -0.55685  -0.52293  -0.50427
 Alpha  occ. eigenvalues --   -0.48919  -0.46437  -0.45763  -0.44024  -0.42879
 Alpha  occ. eigenvalues --   -0.41190  -0.39617  -0.38222  -0.37305  -0.35320
 Alpha  occ. eigenvalues --   -0.34279  -0.32901  -0.31701  -0.29338  -0.25290
 Alpha  occ. eigenvalues --   -0.23000
 Alpha virt. eigenvalues --    0.07511   0.08667   0.10567   0.10987   0.12822
 Alpha virt. eigenvalues --    0.13761   0.14344   0.15394   0.16085   0.17216
 Alpha virt. eigenvalues --    0.17766   0.18298   0.18970   0.19302   0.20239

 Mulliken charges:
               1
     1  C   -0.379748
     2  C   -0.176770
     3  C   -0.138517
     4  N   -0.058482
     5  C   -0.342145
     6  C    0.255509
     7  O   -0.302097
     8  C   -0.000988
     9  O   -0.288684
    10  H    0.114962
    11  H    0.114946
    12  H    0.117206
    13  H    0.095282
    14  H    0.110785
    15  H    0.120759
    16  H    0.092559
    17  H    0.128476
    18  H    0.127869
    19  H    0.116649
    20  H    0.085746
    21  H    0.106332
    22  H    0.100350
 Sum of Mulliken charges =  -0.00000

 Dipole moment (field-independent basis, Debye):
    X=             -0.7058    Y=              0.5896    Z=              0.2091  Tot=              0.9431
 Quadrupole moment (field-independent basis, Debye-Ang):
   XX=            -53.5894   YY=            -50.9291   ZZ=            -59.7503
   XY=             -1.3180   XZ=             -1.2398   YZ=             -1.7480

  Exact polarizability:  92.615  -4.095  84.090  -1.487  -2.245  63.523
 Approx polarizability: 113.079  -7.053 114.689  -0.633  -1.770  99.278

                      1                      2                      3
                      A                      A                      A
 Frequencies --     29.3983                78.2946                85.8146
 Red. masses --      1.9870                 2.4016                 3.6930
 Frc consts  --      0.0010                 0.0087                 0.0160
 IR Inten    --      0.2659                 0.1622                 0.4239

                      4                      5                      6
                      A                      A                      A
 Frequencies --    112.1591               163.2889               196.2722
 Red. masses --      2.8519                 1.7839                 1.5067
 Frc consts  --      0.0211                 0.0280                 0.0342
 IR Inten    --      2.3434                 1.9223                 2.9735

                      7                      8                      9
                      A                      A                      A
 Frequencies --    233.0073               264.8850               295.7091
 Red. masses --      1.1377                 2.3943                 3.7196
 Frc consts  --      0.0364                 0.0990                 0.1916
 IR Inten    --      0.2359                 4.8492                 7.9472

                     10                     11                     12
                      A                      A                      A
 Frequencies --    346.3553               412.5147               473.7442
 Red. masses --      2.5458                 3.5025                 4.3973
 Frc consts  --      0.1799                 0.3512                 0.5815
 IR Inten    --      1.2618                 0.0438                 3.2015

                     13                     14                     15
                      A                      A                      A
 Frequencies --    613.2680               748.3269               836.4689
 Red. masses --      4.5432                 1.1098                 8.3442
 Frc consts  --      1.0067                 0.3662                 3.4398
 IR Inten    --      8.1981                 6.9002                99.8351

                     16                     17                     18
                      A                      A                      A
 Frequencies --    849.8653               881.9125               916.2725
 Red. masses --      2.6257                 1.2589                 7.1017
 Frc consts  --      1.1174                 0.5769                 3.5129
 IR Inten    --      5.4558                 1.6878                12.0196

                     19                     20                     21
                      A                      A                      A
 Frequencies --    941.8436               988.0388              1035.8571
 Red. masses --      2.2028                 3.8899                 3.9036
 Frc consts  --      1.1513                 2.2373                 2.4678
 IR Inten    --      1.8630                60.9050               119.6737

                     22                     23                     24
                      A                      A                      A
 Frequencies --   1046.9048              1082.5662              1102.2591
 Red. masses --      2.7266                 2.6658                 1.0897
 Frc consts  --      1.7607                 1.8407                 0.7800
 IR Inten    --      0.1795               271.0519                 1.3404

                     25                     26                     27
                      A                      A                      A
 Frequencies --   1114.3707              1124.3112              1148.2269
 Red. masses --      2.0351                 1.9164                 2.1898
 Frc consts  --      1.4890                 1.4273                 1.7010
 IR Inten    --     21.1248                 0.3546                22.4027

                     28                     29                     30
                      A                      A                      A
 Frequencies --   1159.9418              1163.7462              1231.2784
 Red. masses --      1.5028                 1.5038                 2.3606
 Frc consts  --      1.1913                 1.1999                 2.1085
 IR Inten    --      4.6030                15.7244                25.4714

                     31                     32                     33
                      A                      A                      A
 Frequencies --   1250.6408              1277.9848              1322.7814
 Red. masses --      1.3376                 1.4870                 1.3296
 Frc consts  --      1.2326                 1.4309                 1.3708
 IR Inten    --     15.3609                48.0432                34.5086

                     34                     35                     36
                      A                      A                      A
 Frequencies --   1334.9239              1395.2320              1398.7320
 Red. masses --      1.2599                 1.5996                 1.4322
 Frc consts  --      1.3228                 1.8347                 1.6509
 IR Inten    --      7.2640                41.3071                15.8598

                     37                     38                     39
                      A                      A                      A
 Frequencies --   1409.8315              1420.0819              1443.7037
 Red. masses --      1.3106                 1.3525                 1.3217
 Frc consts  --      1.5348                 1.6070                 1.6230
 IR Inten    --      2.6009                 9.8853                71.4334

                     40                     41                     42
                      A                      A                      A
 Frequencies --   1473.5213              1482.4747              1490.4358
 Red. masses --      1.1062                 1.0623                 1.1314
 Frc consts  --      1.4151                 1.3755                 1.4808
 IR Inten    --     15.4865                24.4469                20.3363

                     43                     44                     45
                      A                      A                      A
 Frequencies --   1494.8085              1500.3969              1510.6180
 Red. masses --      1.1249                 1.0418                 1.0866
 Frc consts  --      1.4809                 1.3818                 1.4609
 IR Inten    --     14.3769                 2.6324                 5.5272

                     46                     47                     48
                      A                      A                      A
 Frequencies --   1525.0990              1570.3848              2971.5674
 Red. masses --      1.0925                 1.1438                 1.0538
 Frc consts  --      1.4971                 1.6619                 5.4824
 IR Inten    --     18.9659                 1.2955               137.6556

                     49                     50                     51
                      A                      A                      A
 Frequencies --   2973.4019              2978.6178              3005.8804
 Red. masses --      1.0701                 1.0558                 1.0849
 Frc consts  --      5.5744                 5.5190                 5.7755
 IR Inten    --     30.4685                73.5146                60.2790

                     52                     53                     54
                      A                      A                      A
 Frequencies --   3015.3532              3029.3602              3031.6618
 Red. masses --      1.1126                 1.0431                 1.0543
 Frc consts  --      5.9601                 5.6402                 5.7092
 IR Inten    --     69.0272                10.0762                39.9289

                     55                     56                     57
                      A                      A                      A
 Frequencies --   3065.3474              3072.9390              3094.8692
 Red. masses --      1.0967                 1.0804                 1.0993
 Frc consts  --      6.0717                 6.0108                 6.2036
 IR Inten    --     10.3933                28.8428                26.2897

                     58                     59                     60
                      A                      A                      A
 Frequencies --   3105.5476              3109.3814              3113.8655
 Red. masses --      1.1004                 1.0935                 1.1014
 Frc consts  --      6.2527                 6.2289                 6.2924
 IR Inten    --     31.7098                36.6378                29.1770

 - Thermochemistry -
 -------------------
 Temperature   298.150 Kelvin.  Pressure   1.00000 Atm.
 Atom     1 has atomic number  6 and mass  12.00000

 Molecular mass:   131.09463 amu.
 Principal axes and moments of inertia in atomic units:
                           1         2         3
     Eigenvalues --   715.207851790.770132196.78001
           X            0.99989   0.01426  -0.00449
           Y           -0.01435   0.99971  -0.01912
           Z            0.00422   0.01918   0.99981
 This molecule is an asymmetric top.
 Rotational symmetry number  1.
 Warning -- assumption of classical behavior for rotation
           may cause significant error
 Rotational temperatures (Kelvin)      0.12110     0.04837     0.03943
 Rotational constants (GHZ):           2.52338     1.00780     0.82154
 Zero-point vibrational energy     505699.5 (Joules/Mol)
                                  120.86507 (Kcal/Mol)
 Warning -- explicit consideration of  13 degrees of freedom as
           vibrations may cause significant error
 Vibrational temperatures:     42.30   112.65   123.47   161.37   234.94
          (Kelvin)            282.39   335.25   381.11   425.46   498.33
                              593.52   681.61   882.36  1076.68  1203.49
                             1222.77  1268.88  1318.31  1355.10  1421.57
                             1490.37  1506.26  1557.57  1585.91  1603.33
                             1617.63  1652.04  1668.90  1674.37  1771.54
                             1799.39  1838.74  1903.19  1920.66  2007.43
                             2012.46  2028.43  2043.18  2077.17  2120.07
                             2132.95  2144.40  2150.70  2158.74  2173.44
                             2194.28  2259.43  4275.42  4278.06  4285.57
                             4324.79  4338.42  4358.57  4361.89  4410.35
                             4421.27  4452.83  4468.19  4473.71  4480.16

 Zero-point correction=                           0.192611 (Hartree/Particle)
 Thermal correction to Energy=                    0.202998
 Thermal correction to Enthalpy=                  0.203942
 Thermal correction to Gibbs Free Energy=         0.155683
 Sum of electronic and zero-point Energies=           -441.459107
 Sum of electronic and thermal Energies=              -441.448720
 Sum of electronic and thermal Enthalpies=            -441.447776
 Sum of electronic and thermal Free Energies=         -441.496035

                     E (Thermal)             CV                S
                      KCal/Mol        Cal/Mol-Kelvin    Cal/Mol-Kelvin
 Total                  127.383             36.189            101.571
 Electronic               0.000              0.000              0.000
 Translational            0.889              2.981             40.525
 Rotational               0.889              2.981             29.421
 Vibrational            125.606             30.228             31.624
 Vibration     1          0.593              1.984              5.870
 Vibration     2          0.600              1.964              3.933
 Vibration     3          0.601              1.959              3.753
 Vibration     4          0.607              1.939              3.231
 Vibration     5          0.623              1.887              2.511
 Vibration     6          0.636              1.845              2.168
 Vibration     7          0.654              1.790              1.856
 Vibration     8          0.671              1.737              1.629
 Vibration     9          0.690              1.682              1.441
 Vibration    10          0.724              1.583              1.183
 Vibration    11          0.776              1.443              0.918
 Vibration    12          0.831              1.308              0.727
 Vibration    13          0.973              1.004              0.427

 Optimization completed.
    -- Stationary point found.
 Normal termination of Gaussian 16 at Thu Aug  4 16:45:21 2022.
