 Gaussian 16, Revision A.03,
 Gaussian 16:  ES64L-G16RevA.03 25-Dec-2016

 -----------------------------
 # opt freq b3lyp/6-31g(2df,p)
 -----------------------------

 -------------------
 Title Card Required
 -------------------
 Symbolic Z-matrix:
 Charge =  0 Multiplicity = 1

 SCF Done:  E(RB3LYP) =  -441.654238744     A.U. after   13 cycles
 SCF Done:  E(RB3LYP) =  -441.659465597     A.U. after   13 cycles
 SCF Done:  E(RB3LYP) =  -441.658773216     A.U. after   14 cycles
 SCF Done:  E(RB3LYP) =  -441.660283423     A.U. after   13 cycles
 SCF Done:  E(RB3LYP) =  -441.663611941     A.U. after   12 cycles
 SCF Done:  E(RB3LYP) =  -441.665128841     A.U. after   13 cycles
 SCF Done:  E(RB3LYP) =  -441.665714213     A.U. after   15 cycles
 SCF Done:  E(RB3LYP) =  -441.665894221     A.U. after   12 cycles
 SCF Done:  E(RB3LYP) =  -441.665978798     A.U. after   12 cycles
 SCF Done:  E(RB3LYP) =  -441.665991805     A.U. after    9 cycles
 SCF Done:  E(RB3LYP) =  -441.665999830     A.U. after   11 cycles
 SCF Done:  E(RB3LYP) =  -441.666000219     A.U. after    7 cycles
 SCF Done:  E(RB3LYP) =  -441.666000262     A.U. after    7 cycles
 Optimization completed.
    -- Stationary point found.
 Normal termination of Gaussian 16 at Thu Aug  4 00:11:52 2022.

 ----------------------------------------------------------------------
 #N Geom=AllCheck Guess=TCheck SCRF=Check GenChk RB3LYP/6-31G(2df,p) Fr
 eq
 ----------------------------------------------------------------------

 Structure from the checkpoint file:  "CCCNpCpCpOpCdO.chk"
 -------------------
 Title Card Required
 -------------------
 Charge =  0 Multiplicity = 1

                         Standard orientation:
 ---------------------------------------------------------------------
 Center     Atomic      Atomic             Coordinates (Angstroms)
 Number     Number       Type             X           Y           Z
 ---------------------------------------------------------------------
      1          6           0       -3.761883   -0.272281    0.167915
      2          6           0       -2.454825    0.217819   -0.461950
      3          6           0       -1.240470   -0.099879    0.415135
      4          7           0        0.033387    0.323371   -0.186087
      5          6           0        0.267173    1.757427   -0.034899
      6          6           0        1.149003   -0.479578    0.280839
      7          8           0        0.988371   -1.828687   -0.117691
      8          6           0        2.467897   -0.000937   -0.335082
      9          8           0        3.445147    0.314151    0.287489
     10          1           0       -4.618983   -0.044701   -0.472531
     11          1           0       -3.937949    0.202116    1.139632
     12          1           0       -3.743835   -1.355894    0.328579
     13          1           0       -2.523171    1.297185   -0.641646
     14          1           0       -2.307302   -0.248883   -1.442868
     15          1           0       -1.185909   -1.181740    0.563591
     16          1           0       -1.370389    0.355306    1.414684
     17          1           0       -0.565084    2.312736   -0.472397
     18          1           0        1.175232    2.059829   -0.564297
     19          1           0        0.369151    2.068191    1.019869
     20          1           0        1.266304   -0.502361    1.376417
     21          1           0        0.717695   -1.802912   -1.045711
     22          1           0        2.461028   -0.041613   -1.450854
 ---------------------------------------------------------------------

 SCF Done:  E(RB3LYP) =  -441.666000262     A.U. after    1 cycles

 The electronic state is 1-A.
 Alpha  occ. eigenvalues --  -19.15852 -19.14773 -14.33740 -10.27384 -10.26665
 Alpha  occ. eigenvalues --  -10.21322 -10.20966 -10.18661 -10.17998  -1.06030
 Alpha  occ. eigenvalues --   -1.04236  -0.92515  -0.78510  -0.71931  -0.70547
 Alpha  occ. eigenvalues --   -0.63982  -0.59693  -0.58451  -0.51908  -0.50368
 Alpha  occ. eigenvalues --   -0.47129  -0.46742  -0.45429  -0.43807  -0.41944
 Alpha  occ. eigenvalues --   -0.41248  -0.40083  -0.38981  -0.37643  -0.36025
 Alpha  occ. eigenvalues --   -0.35756  -0.34448  -0.33278  -0.31429  -0.24996
 Alpha  occ. eigenvalues --   -0.23547
 Alpha virt. eigenvalues --   -0.03044   0.07583   0.08772   0.10408   0.11414
 Alpha virt. eigenvalues --    0.13076   0.13980   0.14846   0.15566   0.15786
 Alpha virt. eigenvalues --    0.16689   0.17990   0.18363   0.18846   0.20548

 Mulliken charges:
               1
     1  C   -0.378997
     2  C   -0.179764
     3  C   -0.131998
     4  N   -0.106323
     5  C   -0.340932
     6  C    0.078182
     7  O   -0.415255
     8  C    0.136798
     9  O   -0.238399
    10  H    0.116233
    11  H    0.117740
    12  H    0.118116
    13  H    0.098888
    14  H    0.099485
    15  H    0.121905
    16  H    0.082845
    17  H    0.130063
    18  H    0.134588
    19  H    0.110193
    20  H    0.091082
    21  H    0.281724
    22  H    0.073824
 Sum of Mulliken charges =   0.00000

 Dipole moment (field-independent basis, Debye):
    X=             -2.8301    Y=              0.6740    Z=             -1.2582  Tot=              3.1697
 Quadrupole moment (field-independent basis, Debye-Ang):
   XX=            -66.0059   YY=            -56.1103   ZZ=            -53.8836
   XY=             -0.4169   XZ=             -3.2633   YZ=              1.8549

  Exact polarizability:  97.835   3.089  74.024   0.928   1.597  71.174
 Approx polarizability: 119.954   5.089 109.695   6.264   3.748 110.940

                      1                      2                      3
                      A                      A                      A
 Frequencies --     50.0906                65.1413                79.0650
 Red. masses --      4.9980                 1.6715                 4.5090
 Frc consts  --      0.0074                 0.0042                 0.0166
 IR Inten    --      0.7250                 0.2527                 5.0279

                      4                      5                      6
                      A                      A                      A
 Frequencies --     99.6855               168.6881               196.9736
 Red. masses --      3.3263                 3.0474                 1.1807
 Frc consts  --      0.0195                 0.0511                 0.0270
 IR Inten    --      2.0086                 5.1496                 0.1873

                      7                      8                      9
                      A                      A                      A
 Frequencies --    235.3900               275.8482               300.1661
 Red. masses --      1.1237                 2.2617                 2.6683
 Frc consts  --      0.0367                 0.1014                 0.1416
 IR Inten    --      0.0567                 1.2659                 1.5370

                     10                     11                     12
                      A                      A                      A
 Frequencies --    322.9437               357.1513               385.8823
 Red. masses --      3.0469                 2.5372                 1.7344
 Frc consts  --      0.1872                 0.1907                 0.1522
 IR Inten    --      8.4857                 2.8950                36.2574

                     13                     14                     15
                      A                      A                      A
 Frequencies --    422.5776               444.4200               497.3844
 Red. masses --      1.9812                 3.1005                 3.1042
 Frc consts  --      0.2084                 0.3608                 0.4525
 IR Inten    --     66.2553                41.6478                16.0081

                     16                     17                     18
                      A                      A                      A
 Frequencies --    611.1228               755.1469               857.0034
 Red. masses --      3.6614                 1.0968                 2.6447
 Frc consts  --      0.8057                 0.3685                 1.1444
 IR Inten    --      6.2279                 2.7998                19.6874

                     19                     20                     21
                      A                      A                      A
 Frequencies --    890.3706               916.9387               997.2758
 Red. masses --      1.2507                 1.9865                 2.1441
 Frc consts  --      0.5842                 0.9841                 1.2564
 IR Inten    --      1.9140                 5.0870                32.3447

                     22                     23                     24
                      A                      A                      A
 Frequencies --   1011.5050              1046.7101              1073.1848
 Red. masses --      2.5725                 2.8642                 2.5560
 Frc consts  --      1.5507                 1.8489                 1.7345
 IR Inten    --     66.3504                 5.9505                50.3331

                     25                     26                     27
                      A                      A                      A
 Frequencies --   1084.4000              1111.1599              1129.8794
 Red. masses --      3.0789                 1.9642                 1.6211
 Frc consts  --      2.1332                 1.4289                 1.2193
 IR Inten    --     13.1150                21.5924                 4.7918

                     28                     29                     30
                      A                      A                      A
 Frequencies --   1160.5375              1213.7111              1244.5202
 Red. masses --      1.7798                 2.4267                 1.6748
 Frc consts  --      1.4123                 2.1062                 1.5283
 IR Inten    --     14.5357                29.6223                 4.0889

                     31                     32                     33
                      A                      A                      A
 Frequencies --   1288.2220              1292.5898              1316.1688
 Red. masses --      1.5065                 1.3093                 1.4249
 Frc consts  --      1.4730                 1.2888                 1.4543
 IR Inten    --      7.3770                12.8741                41.4951

                     34                     35                     36
                      A                      A                      A
 Frequencies --   1338.5485              1354.4813              1399.3595
 Red. masses --      1.3142                 1.3434                 1.2403
 Frc consts  --      1.3873                 1.4521                 1.4310
 IR Inten    --      1.6129                 4.4081                50.1984

                     37                     38                     39
                      A                      A                      A
 Frequencies --   1409.4889              1414.8846              1426.0940
 Red. masses --      1.2984                 1.2425                 1.2897
 Frc consts  --      1.5198                 1.4655                 1.5454
 IR Inten    --      3.7980                13.4058                15.2453

                     40                     41                     42
                      A                      A                      A
 Frequencies --   1469.8173              1487.8633              1488.5449
 Red. masses --      1.1872                 1.0520                 1.0642
 Frc consts  --      1.5111                 1.3722                 1.3893
 IR Inten    --      6.1953                 6.9963                 0.9576

                     43                     44                     45
                      A                      A                      A
 Frequencies --   1499.2167              1500.0093              1507.0921
 Red. masses --      1.0680                 1.0406                 1.0517
 Frc consts  --      1.4144                 1.3795                 1.4074
 IR Inten    --      2.0371                 5.4569                 5.2819

                     46                     47                     48
                      A                      A                      A
 Frequencies --   1514.4359              1846.3577              2848.1984
 Red. masses --      1.0903                10.5830                 1.0826
 Frc consts  --      1.4734                21.2564                 5.1746
 IR Inten    --      6.3274               146.8977                95.5243

                     49                     50                     51
                      A                      A                      A
 Frequencies --   2932.7046              2955.2413              2985.8105
 Red. masses --      1.0719                 1.0589                 1.0839
 Frc consts  --      5.4318                 5.4486                 5.6931
 IR Inten    --     41.9413                55.5292                56.7401

                     52                     53                     54
                      A                      A                      A
 Frequencies --   3030.6553              3032.6185              3061.3138
 Red. masses --      1.0479                 1.0472                 1.0990
 Frc consts  --      5.6710                 5.6741                 6.0680
 IR Inten    --      8.0052                41.6594                 9.1993

                     55                     56                     57
                      A                      A                      A
 Frequencies --   3079.6552              3089.9300              3101.1777
 Red. masses --      1.0753                 1.0921                 1.1004
 Frc consts  --      6.0090                 6.1432                 6.2352
 IR Inten    --     22.4036                 4.5972                54.7422

                     58                     59                     60
                      A                      A                      A
 Frequencies --   3107.0967              3123.2766              3760.4596
 Red. masses --      1.1006                 1.1005                 1.0648
 Frc consts  --      6.2604                 6.3249                 8.8717
 IR Inten    --     30.8521                27.8259                17.1579

 - Thermochemistry -
 -------------------
 Temperature   298.150 Kelvin.  Pressure   1.00000 Atm.
 Atom     1 has atomic number  6 and mass  12.00000

 Molecular mass:   131.09463 amu.
 Principal axes and moments of inertia in atomic units:
                           1         2         3
     Eigenvalues --   510.839962333.043102683.18568
           X            0.99997   0.00431  -0.00613
           Y           -0.00430   0.99999   0.00263
           Z            0.00614  -0.00261   0.99998
 This molecule is an asymmetric top.
 Rotational symmetry number  1.
 Warning -- assumption of classical behavior for rotation
           may cause significant error
 Rotational temperatures (Kelvin)      0.16955     0.03712     0.03228
 Rotational constants (GHZ):           3.53289     0.77356     0.67261
 Zero-point vibrational energy     500434.9 (Joules/Mol)
                                  119.60682 (Kcal/Mol)
 Warning -- explicit consideration of  16 degrees of freedom as
           vibrations may cause significant error
 Vibrational temperatures:     72.07    93.72   113.76   143.43   242.70
          (Kelvin)            283.40   338.67   396.88   431.87   464.64
                              513.86   555.20   607.99   639.42   715.63
                              879.27  1086.49  1233.04  1281.04  1319.27
                             1434.86  1455.33  1505.98  1544.07  1560.21
                             1598.71  1625.64  1669.75  1746.26  1790.59
                             1853.46  1859.75  1893.67  1925.87  1948.80
                             2013.37  2027.94  2035.70  2051.83  2114.74
                             2140.70  2141.68  2157.04  2158.18  2168.37
                             2178.94  2656.50  4097.92  4219.51  4251.93
                             4295.92  4360.44  4363.26  4404.55  4430.94
                             4445.72  4461.90  4470.42  4493.70  5410.46

 Zero-point correction=                           0.190606 (Hartree/Particle)
 Thermal correction to Energy=                    0.201780
 Thermal correction to Enthalpy=                  0.202725
 Thermal correction to Gibbs Free Energy=         0.153395
 Sum of electronic and zero-point Energies=           -441.475395
 Sum of electronic and thermal Energies=              -441.464220
 Sum of electronic and thermal Enthalpies=            -441.463276
 Sum of electronic and thermal Free Energies=         -441.512605

                     E (Thermal)             CV                S
                      KCal/Mol        Cal/Mol-Kelvin    Cal/Mol-Kelvin
 Total                  126.619             39.220            103.823
 Electronic               0.000              0.000              0.000
 Translational            0.889              2.981             40.525
 Rotational               0.889              2.981             29.549
 Vibrational            124.842             33.258             33.750
 Vibration     1          0.595              1.978              4.814
 Vibration     2          0.597              1.971              4.295
 Vibration     3          0.600              1.963              3.914
 Vibration     4          0.604              1.949              3.460
 Vibration     5          0.625              1.881              2.450
 Vibration     6          0.636              1.844              2.161
 Vibration     7          0.655              1.787              1.837
 Vibration     8          0.677              1.718              1.559
 Vibration     9          0.693              1.673              1.416
 Vibration    10          0.708              1.630              1.295
 Vibration    11          0.732              1.561              1.134
 Vibration    12          0.755              1.500              1.016
 Vibration    13          0.785              1.421              0.883
 Vibration    14          0.804              1.373              0.813
 Vibration    15          0.853              1.256              0.665
 Vibration    16          0.970              1.008              0.431

 Optimization completed.
    -- Stationary point found.
 Normal termination of Gaussian 16 at Thu Aug  4 00:45:45 2022.
