 Gaussian 16, Revision A.03,
 Gaussian 16:  ES64L-G16RevA.03 25-Dec-2016

 -----------------------------
 # opt freq b3lyp/6-31g(2df,p)
 -----------------------------

 -------------------
 Title Card Required
 -------------------
 Symbolic Z-matrix:
 Charge =  0 Multiplicity = 1

 SCF Done:  E(RB3LYP) =  -419.326788967     A.U. after   14 cycles
 SCF Done:  E(RB3LYP) =  -419.340494127     A.U. after   13 cycles
 SCF Done:  E(RB3LYP) =  -419.344092432     A.U. after   13 cycles
 SCF Done:  E(RB3LYP) =  -419.344993103     A.U. after   12 cycles
 SCF Done:  E(RB3LYP) =  -419.345776886     A.U. after   12 cycles
 SCF Done:  E(RB3LYP) =  -419.346467834     A.U. after   13 cycles
 SCF Done:  E(RB3LYP) =  -419.347362169     A.U. after   13 cycles
 SCF Done:  E(RB3LYP) =  -419.348137353     A.U. after   13 cycles
 SCF Done:  E(RB3LYP) =  -419.348754778     A.U. after   12 cycles
 SCF Done:  E(RB3LYP) =  -419.348885910     A.U. after   12 cycles
 SCF Done:  E(RB3LYP) =  -419.348941247     A.U. after   11 cycles
 SCF Done:  E(RB3LYP) =  -419.348974139     A.U. after   10 cycles
 SCF Done:  E(RB3LYP) =  -419.348982135     A.U. after   10 cycles
 SCF Done:  E(RB3LYP) =  -419.348983222     A.U. after    8 cycles
 SCF Done:  E(RB3LYP) =  -419.348983581     A.U. after    8 cycles
 Optimization completed.
    -- Stationary point found.
 Normal termination of Gaussian 16 at Mon Jul  4 00:28:59 2022.

 ----------------------------------------------------------------------
 #N Geom=AllCheck Guess=TCheck SCRF=Check GenChk RB3LYP/6-31G(2df,p) Fr
 eq
 ----------------------------------------------------------------------

 Structure from the checkpoint file:  "CCCNdCC1NC1dO.chk"
 -------------------
 Title Card Required
 -------------------
 Charge =  0 Multiplicity = 1

                         Standard orientation:
 ---------------------------------------------------------------------
 Center     Atomic      Atomic             Coordinates (Angstroms)
 Number     Number       Type             X           Y           Z
 ---------------------------------------------------------------------
      1          6           0        3.954726    0.563127   -0.050780
      2          6           0        2.438110    0.651024    0.132715
      3          6           0        1.756745   -0.719935    0.038364
      4          7           0        0.332746   -0.606932    0.297982
      5          6           0       -0.488261   -0.961827   -0.598526
      6          6           0       -1.948219   -0.834951   -0.368021
      7          7           0       -2.382025   -0.339960    0.998380
      8          6           0       -2.483069    0.521171   -0.048359
      9          8           0       -2.756334    1.631102   -0.381735
     10          1           0        4.416543    1.552316    0.017702
     11          1           0        4.215861    0.141831   -1.027888
     12          1           0        4.412141   -0.071629    0.716249
     13          1           0        2.003975    1.313816   -0.625410
     14          1           0        2.196349    1.093758    1.105361
     15          1           0        2.183753   -1.382140    0.803310
     16          1           0        1.962257   -1.177846   -0.944244
     17          1           0       -0.181435   -1.375208   -1.570312
     18          1           0       -2.580420   -1.614049   -0.786689
     19          1           0       -1.613587   -0.213069    1.658907
 ---------------------------------------------------------------------

 SCF Done:  E(RB3LYP) =  -419.348983581     A.U. after    1 cycles

 The electronic state is 1-A.
 Alpha  occ. eigenvalues --  -19.14835 -14.36164 -14.33797 -10.30804 -10.24381
 Alpha  occ. eigenvalues --  -10.24216 -10.21687 -10.18794 -10.18087  -1.06777
 Alpha  occ. eigenvalues --   -0.98989  -0.93044  -0.78942  -0.72671  -0.67793
 Alpha  occ. eigenvalues --   -0.62157  -0.59278  -0.54993  -0.51763  -0.49028
 Alpha  occ. eigenvalues --   -0.47229  -0.46835  -0.44213  -0.42715  -0.40436
 Alpha  occ. eigenvalues --   -0.39207  -0.38080  -0.36346  -0.35564  -0.33807
 Alpha  occ. eigenvalues --   -0.31267  -0.30804  -0.27168  -0.24504
 Alpha virt. eigenvalues --   -0.02818   0.00455   0.08477   0.08982   0.10500
 Alpha virt. eigenvalues --    0.12886   0.13095   0.14622   0.15266   0.16042
 Alpha virt. eigenvalues --    0.17071   0.18574   0.18617   0.20085   0.21693

 Mulliken charges:
               1
     1  C   -0.380800
     2  C   -0.159080
     3  C   -0.135206
     4  N   -0.178454
     5  C    0.027382
     6  C   -0.240545
     7  N   -0.357814
     8  C    0.466380
     9  O   -0.309574
    10  H    0.119644
    11  H    0.116532
    12  H    0.116904
    13  H    0.105853
    14  H    0.110912
    15  H    0.111097
    16  H    0.086459
    17  H    0.094956
    18  H    0.131314
    19  H    0.274039
 Sum of Mulliken charges =   0.00000

 Dipole moment (field-independent basis, Debye):
    X=              2.4349    Y=             -2.4201    Z=             -0.5068  Tot=              3.4702
 Quadrupole moment (field-independent basis, Debye-Ang):
   XX=            -57.8871   YY=            -56.1922   ZZ=            -52.0554
   XY=              6.0583   XZ=              0.7104   YZ=              3.1758

  Exact polarizability: 105.609  -3.943  73.081   2.813   3.234  69.202
 Approx polarizability: 129.720  -9.906 117.270   9.032   1.185 115.949

                      1                      2                      3
                      A                      A                      A
 Frequencies --     53.7381                71.1244                83.0691
 Red. masses --      3.6313                 2.4276                 2.6604
 Frc consts  --      0.0062                 0.0072                 0.0108
 IR Inten    --      0.6940                 0.5470                 0.1863

                      4                      5                      6
                      A                      A                      A
 Frequencies --    126.7227               186.9004               236.9638
 Red. masses --      5.1190                 3.4646                 1.1310
 Frc consts  --      0.0484                 0.0713                 0.0374
 IR Inten    --      5.2771                 8.6616                 0.2451

                      7                      8                      9
                      A                      A                      A
 Frequencies --    260.4065               331.2352               393.6919
 Red. masses --      2.5518                 3.5481                 3.2819
 Frc consts  --      0.1020                 0.2294                 0.2997
 IR Inten    --      5.3369                 0.2607                 4.6689

                     10                     11                     12
                      A                      A                      A
 Frequencies --    426.1222               494.3558               610.4758
 Red. masses --      4.0867                 3.6063                 2.3517
 Frc consts  --      0.4372                 0.5193                 0.5164
 IR Inten    --      9.0651                 2.7642                76.1728

                     13                     14                     15
                      A                      A                      A
 Frequencies --    681.7852               710.9084               759.0731
 Red. masses --      3.6669                 3.7680                 1.0917
 Frc consts  --      1.0043                 1.1220                 0.3706
 IR Inten    --     49.0562                98.9776                 2.0018

                     16                     17                     18
                      A                      A                      A
 Frequencies --    845.9084               882.2090               894.8817
 Red. masses --      3.6416                 2.2226                 1.2994
 Frc consts  --      1.5353                 1.0192                 0.6131
 IR Inten    --     68.9934                 5.9892                 2.7819

                     19                     20                     21
                      A                      A                      A
 Frequencies --    922.8564               988.9784              1022.8566
 Red. masses --      2.0649                 1.5069                 3.0080
 Frc consts  --      1.0361                 0.8684                 1.8542
 IR Inten    --      8.0450                16.0477                36.8749

                     22                     23                     24
                      A                      A                      A
 Frequencies --   1039.4597              1064.4871              1079.0441
 Red. masses --      2.5110                 2.3196                 1.6762
 Frc consts  --      1.5985                 1.5486                 1.1499
 IR Inten    --     21.3922                 9.3974                60.1725

                     25                     26                     27
                      A                      A                      A
 Frequencies --   1118.6029              1134.7571              1171.0362
 Red. masses --      1.6973                 2.1255                 1.8681
 Frc consts  --      1.2513                 1.6126                 1.5093
 IR Inten    --      7.0845                10.0248                 6.4153

                     28                     29                     30
                      A                      A                      A
 Frequencies --   1200.6139              1265.3724              1315.1842
 Red. masses --      2.1609                 1.2412                 1.1583
 Frc consts  --      1.8352                 1.1709                 1.1805
 IR Inten    --      1.9986                 0.0700                 3.3629

                     31                     32                     33
                      A                      A                      A
 Frequencies --   1325.0070              1337.7371              1371.7226
 Red. masses --      1.2259                 1.5291                 1.4049
 Frc consts  --      1.2681                 1.6123                 1.5575
 IR Inten    --      9.9479                10.4631                13.1314

                     34                     35                     36
                      A                      A                      A
 Frequencies --   1400.2872              1414.0878              1485.7617
 Red. masses --      1.5127                 1.2321                 1.0763
 Frc consts  --      1.7476                 1.4516                 1.3999
 IR Inten    --      9.8402                 0.8944                 8.3422

                     37                     38                     39
                      A                      A                      A
 Frequencies --   1495.9501              1500.0234              1512.4185
 Red. masses --      1.0615                 1.0401                 1.0891
 Frc consts  --      1.3997                 1.3788                 1.4678
 IR Inten    --      1.4367                 5.0812                 4.8228

                     40                     41                     42
                      A                      A                      A
 Frequencies --   1734.4345              1985.5957              2957.5736
 Red. masses --      8.5703                12.1967                 1.0666
 Frc consts  --     15.1901                28.3318                 5.4967
 IR Inten    --    113.4527               494.9502                52.9186

                     43                     44                     45
                      A                      A                      A
 Frequencies --   3013.1703              3029.2266              3031.0340
 Red. masses --      1.0862                 1.0829                 1.0382
 Frc consts  --      5.8102                 5.8548                 5.6196
 IR Inten    --     47.5897                 6.2457                22.3411

                     46                     47                     48
                      A                      A                      A
 Frequencies --   3039.0070              3071.7260              3099.8976
 Red. masses --      1.0668                 1.1020                 1.1029
 Frc consts  --      5.8049                 6.1265                 6.2444
 IR Inten    --     37.3399                 5.5505                54.4512

                     49                     50                     51
                      A                      A                      A
 Frequencies --   3107.9483              3143.8123              3467.5640
 Red. masses --      1.1005                 1.0886                 1.0743
 Frc consts  --      6.2629                 6.3394                 7.6106
 IR Inten    --     29.1194                11.0765                50.9157

 - Thermochemistry -
 -------------------
 Temperature   298.150 Kelvin.  Pressure   1.00000 Atm.
 Atom     1 has atomic number  6 and mass  12.00000

 Molecular mass:   126.07931 amu.
 Principal axes and moments of inertia in atomic units:
                           1         2         3
     Eigenvalues --   480.716642632.900682869.23112
           X            0.99983   0.01870   0.00016
           Y           -0.01868   0.99860   0.04945
           Z            0.00077  -0.04944   0.99878
 This molecule is an asymmetric top.
 Rotational symmetry number  1.
 Warning -- assumption of classical behavior for rotation
           may cause significant error
 Rotational temperatures (Kelvin)      0.18018     0.03290     0.03019
 Rotational constants (GHZ):           3.75427     0.68546     0.62900
 Zero-point vibrational energy     412094.4 (Joules/Mol)
                                   98.49293 (Kcal/Mol)
 Warning -- explicit consideration of  12 degrees of freedom as
           vibrations may cause significant error
 Vibrational temperatures:     77.32   102.33   119.52   182.33   268.91
          (Kelvin)            340.94   374.67   476.57   566.43   613.09
                              711.27   878.34   980.94  1022.84  1092.14
                             1217.07  1269.30  1287.54  1327.78  1422.92
                             1471.66  1495.55  1531.56  1552.50  1609.42
                             1632.66  1684.86  1727.42  1820.59  1892.26
                             1906.39  1924.71  1973.60  2014.70  2034.56
                             2137.68  2152.34  2158.20  2176.03  2495.46
                             2856.83  4255.29  4335.28  4358.38  4360.98
                             4372.45  4419.53  4460.06  4471.64  4523.24
                             4989.05

 Zero-point correction=                           0.156958 (Hartree/Particle)
 Thermal correction to Energy=                    0.166662
 Thermal correction to Enthalpy=                  0.167606
 Thermal correction to Gibbs Free Energy=         0.121079
 Sum of electronic and zero-point Energies=           -419.192025
 Sum of electronic and thermal Energies=              -419.182322
 Sum of electronic and thermal Enthalpies=            -419.181377
 Sum of electronic and thermal Free Energies=         -419.227905

                     E (Thermal)             CV                S
                      KCal/Mol        Cal/Mol-Kelvin    Cal/Mol-Kelvin
 Total                  104.582             34.313             97.926
 Electronic               0.000              0.000              0.000
 Translational            0.889              2.981             40.409
 Rotational               0.889              2.981             29.675
 Vibrational            102.805             28.351             27.842
 Vibration     1          0.596              1.976              4.675
 Vibration     2          0.598              1.968              4.122
 Vibration     3          0.600              1.961              3.817
 Vibration     4          0.611              1.926              2.995
 Vibration     5          0.632              1.858              2.258
 Vibration     6          0.656              1.784              1.826
 Vibration     7          0.668              1.745              1.659
 Vibration     8          0.714              1.613              1.254
 Vibration     9          0.761              1.484              0.986
 Vibration    10          0.788              1.413              0.871
 Vibration    11          0.850              1.263              0.672
 Vibration    12          0.970              1.010              0.432

 Optimization completed.
    -- Stationary point found.
 Normal termination of Gaussian 16 at Mon Jul  4 00:54:46 2022.
