 Gaussian 16, Revision A.03,
 Gaussian 16:  ES64L-G16RevA.03 25-Dec-2016

 -----------------------------
 # opt freq b3lyp/6-31g(2df,p)
 -----------------------------

 -------------------
 Title Card Required
 -------------------
 Symbolic Z-matrix:
 Charge =  0 Multiplicity = 1

 SCF Done:  E(RB3LYP) =  -365.224074530     A.U. after   14 cycles
 SCF Done:  E(RB3LYP) =  -365.247166375     A.U. after   12 cycles
 SCF Done:  E(RB3LYP) =  -365.247767341     A.U. after   12 cycles
 SCF Done:  E(RB3LYP) =  -365.247922992     A.U. after   10 cycles
 SCF Done:  E(RB3LYP) =  -365.247946265     A.U. after    9 cycles
 SCF Done:  E(RB3LYP) =  -365.247951414     A.U. after    8 cycles
 SCF Done:  E(RB3LYP) =  -365.247952063     A.U. after    8 cycles
 SCF Done:  E(RB3LYP) =  -365.247952500     A.U. after    7 cycles
 SCF Done:  E(RB3LYP) =  -365.247952645     A.U. after    6 cycles
 Optimization completed.
    -- Stationary point found.
 Normal termination of Gaussian 16 at Thu Aug  4 15:33:50 2022.

 ----------------------------------------------------------------------
 #N Geom=AllCheck Guess=TCheck SCRF=Check GenChk RB3LYP/6-31G(2df,p) Fr
 eq
 ----------------------------------------------------------------------

 Structure from the checkpoint file:  "CCCpOpCpCpCtN.chk"
 -------------------
 Title Card Required
 -------------------
 Charge =  0 Multiplicity = 1

                         Standard orientation:
 ---------------------------------------------------------------------
 Center     Atomic      Atomic             Coordinates (Angstroms)
 Number     Number       Type             X           Y           Z
 ---------------------------------------------------------------------
      1          6           0        2.981438   -0.100306   -0.300015
      2          6           0        1.703634    0.525654    0.266069
      3          6           0        0.436247   -0.208589   -0.189816
      4          8           0        0.484100   -1.587292    0.139314
      5          6           0       -0.863113    0.440008    0.365698
      6          6           0       -1.090251    1.891456   -0.104081
      7          6           0       -2.024582   -0.382662    0.006407
      8          7           0       -2.962481   -0.992444   -0.282841
      9          1           0        3.869445    0.412905    0.079772
     10          1           0        2.998030   -0.034814   -1.393190
     11          1           0        3.049086   -1.157113   -0.031661
     12          1           0        1.647153    1.578049   -0.031342
     13          1           0        1.735977    0.517739    1.366178
     14          1           0        0.380162   -0.189535   -1.285313
     15          1           0        0.571076   -1.668768    1.096281
     16          1           0       -0.794190    0.432797    1.463280
     17          1           0       -1.083573    1.949241   -1.196484
     18          1           0       -0.312317    2.551175    0.285185
     19          1           0       -2.056520    2.260402    0.247100
 ---------------------------------------------------------------------

 SCF Done:  E(RB3LYP) =  -365.247952645     A.U. after    1 cycles

 The electronic state is 1-A.
 Alpha  occ. eigenvalues --  -19.15131 -14.31919 -10.25377 -10.23909 -10.21134
 Alpha  occ. eigenvalues --  -10.20357 -10.19923 -10.18356  -1.03612  -0.89453
 Alpha  occ. eigenvalues --   -0.82476  -0.77757  -0.69483  -0.65774  -0.61094
 Alpha  occ. eigenvalues --   -0.52681  -0.50412  -0.47222  -0.46875  -0.43713
 Alpha  occ. eigenvalues --   -0.41255  -0.40821  -0.38965  -0.38043  -0.37646
 Alpha  occ. eigenvalues --   -0.35291  -0.34700  -0.33477  -0.31775  -0.31410
 Alpha  occ. eigenvalues --   -0.28348
 Alpha virt. eigenvalues --    0.03462   0.04147   0.06758   0.08887   0.09823
 Alpha virt. eigenvalues --    0.11584   0.12558   0.14805   0.15135   0.15783
 Alpha virt. eigenvalues --    0.16339   0.17777   0.18591   0.20277   0.21162

 Mulliken charges:
               1
     1  C   -0.382675
     2  C   -0.205194
     3  C    0.147142
     4  O   -0.417037
     5  C   -0.177076
     6  C   -0.402065
     7  C    0.282928
     8  N   -0.324480
     9  H    0.114652
    10  H    0.120993
    11  H    0.131792
    12  H    0.107279
    13  H    0.089107
    14  H    0.105578
    15  H    0.281765
    16  H    0.114125
    17  H    0.139590
    18  H    0.130432
    19  H    0.143146
 Sum of Mulliken charges =  -0.00000

 Dipole moment (field-independent basis, Debye):
    X=              3.4902    Y=              3.0912    Z=              1.7801  Tot=              4.9906
 Quadrupole moment (field-independent basis, Debye-Ang):
   XX=            -60.8871   YY=            -51.5597   ZZ=            -45.8183
   XY=             -5.8238   XZ=             -1.2991   YZ=             -2.9267

  Exact polarizability:  86.376   4.672  69.809   2.090   0.358  60.320
 Approx polarizability: 112.735  12.981 101.953   6.501   2.479  94.701

                      1                      2                      3
                      A                      A                      A
 Frequencies --     53.9641                95.5898               134.4940
 Red. masses --      3.6124                 2.0473                 5.4918
 Frc consts  --      0.0062                 0.0110                 0.0585
 IR Inten    --      0.7185                 0.2850                 3.4894

                      4                      5                      6
                      A                      A                      A
 Frequencies --    193.2676               213.4780               237.0830
 Red. masses --      1.5329                 1.2355                 1.8464
 Frc consts  --      0.0337                 0.0332                 0.0611
 IR Inten    --      1.1521                 1.4814                 1.5316

                      7                      8                      9
                      A                      A                      A
 Frequencies --    266.3681               285.3758               302.2126
 Red. masses --      2.4539                 2.6568                 1.1929
 Frc consts  --      0.1026                 0.1275                 0.0642
 IR Inten    --     10.6860                 1.8750                97.9217

                     10                     11                     12
                      A                      A                      A
 Frequencies --    392.9968               412.9369               471.3561
 Red. masses --      3.6703                 5.6893                 2.7232
 Frc consts  --      0.3340                 0.5716                 0.3565
 IR Inten    --      3.5473                19.9333                 0.8498

                     13                     14                     15
                      A                      A                      A
 Frequencies --    566.2755               594.2149               781.7774
 Red. masses --      3.4122                 4.7752                 1.3865
 Frc consts  --      0.6447                 0.9934                 0.4993
 IR Inten    --      5.5710                 2.5715                 0.3270

                     16                     17                     18
                      A                      A                      A
 Frequencies --    838.4047               867.0707               946.4830
 Red. masses --      2.1185                 2.1117                 1.7391
 Frc consts  --      0.8774                 0.9354                 0.9179
 IR Inten    --      4.6800                 4.6014                15.1429

                     19                     20                     21
                      A                      A                      A
 Frequencies --    993.1134              1026.5413              1066.1711
 Red. masses --      1.9501                 1.9693                 3.4467
 Frc consts  --      1.1332                 1.2227                 2.3084
 IR Inten    --     23.8757                 2.3959                14.7520

                     22                     23                     24
                      A                      A                      A
 Frequencies --   1094.5062              1101.1308              1142.6246
 Red. masses --      2.1952                 1.4508                 1.6950
 Frc consts  --      1.5494                 1.0364                 1.3039
 IR Inten    --     20.7222                34.2376                 1.1970

                     25                     26                     27
                      A                      A                      A
 Frequencies --   1145.1313              1249.1469              1268.3041
 Red. masses --      2.7350                 1.4429                 1.3158
 Frc consts  --      2.1131                 1.3266                 1.2471
 IR Inten    --     26.9836                 9.0108                 4.8110

                     28                     29                     30
                      A                      A                      A
 Frequencies --   1316.6238              1339.4418              1362.1158
 Red. masses --      1.2625                 1.3745                 1.3276
 Frc consts  --      1.2894                 1.4529                 1.4513
 IR Inten    --      1.6458                 1.9789                 3.3513

                     31                     32                     33
                      A                      A                      A
 Frequencies --   1384.3956              1407.0321              1414.1254
 Red. masses --      1.5005                 1.2168                 1.2127
 Frc consts  --      1.6944                 1.4194                 1.4289
 IR Inten    --      2.6000                 6.6662                 2.6009

                     34                     35                     36
                      A                      A                      A
 Frequencies --   1421.9770              1482.3989              1494.9643
 Red. masses --      1.2093                 1.0756                 1.0437
 Frc consts  --      1.4407                 1.3926                 1.3743
 IR Inten    --     31.2268                 2.2105                 4.9877

                     37                     38                     39
                      A                      A                      A
 Frequencies --   1496.0375              1501.1002              1508.9652
 Red. masses --      1.0464                 1.0429                 1.0622
 Frc consts  --      1.3798                 1.3845                 1.4249
 IR Inten    --      6.3896                 5.1080                 5.3053

                     40                     41                     42
                      A                      A                      A
 Frequencies --   2359.9904              2998.2044              3005.5870
 Red. masses --     12.6530                 1.0697                 1.0804
 Frc consts  --     41.5206                 5.6656                 5.7502
 IR Inten    --      8.0816                17.7103                 8.0498

                     43                     44                     45
                      A                      A                      A
 Frequencies --   3041.6573              3044.8276              3052.1963
 Red. masses --      1.0422                 1.0781                 1.0369
 Frc consts  --      5.6808                 5.8891                 5.6912
 IR Inten    --     18.0504                29.3474                 8.1325

                     46                     47                     48
                      A                      A                      A
 Frequencies --   3072.1331              3107.2552              3126.6006
 Red. masses --      1.0900                 1.1010                 1.1019
 Frc consts  --      6.0612                 6.2629                 6.3465
 IR Inten    --     27.6398                31.7443                14.0619

                     49                     50                     51
                      A                      A                      A
 Frequencies --   3128.9906              3136.8316              3790.8483
 Red. masses --      1.1012                 1.1021                 1.0659
 Frc consts  --      6.3521                 6.3893                 9.0247
 IR Inten    --     19.2476                18.6834                16.6975

 - Thermochemistry -
 -------------------
 Temperature   298.150 Kelvin.  Pressure   1.00000 Atm.
 Atom     1 has atomic number  6 and mass  12.00000

 Molecular mass:   113.08406 amu.
 Principal axes and moments of inertia in atomic units:
                           1         2         3
     Eigenvalues --   511.913271442.863571840.72178
           X            0.99964  -0.02631  -0.00493
           Y            0.02626   0.99960  -0.01028
           Z            0.00520   0.01014   0.99994
 This molecule is an asymmetric top.
 Rotational symmetry number  1.
 Warning -- assumption of classical behavior for rotation
           may cause significant error
 Rotational temperatures (Kelvin)      0.16920     0.06003     0.04705
 Rotational constants (GHZ):           3.52548     1.25081     0.98045
 Zero-point vibrational energy     429066.5 (Joules/Mol)
                                  102.54936 (Kcal/Mol)
 Warning -- explicit consideration of  14 degrees of freedom as
           vibrations may cause significant error
 Vibrational temperatures:     77.64   137.53   193.51   278.07   307.15
          (Kelvin)            341.11   383.24   410.59   434.82   565.43
                              594.12   678.18   814.74   854.94  1124.80
                             1206.28  1247.52  1361.78  1428.87  1476.96
                             1533.98  1574.75  1584.28  1643.98  1647.59
                             1797.24  1824.81  1894.33  1927.16  1959.78
                             1991.84  2024.41  2034.61  2045.91  2132.84
                             2150.92  2152.46  2159.75  2171.06  3395.50
                             4313.75  4324.37  4376.27  4380.83  4391.43
                             4420.11  4470.65  4498.48  4501.92  4513.20
                             5454.19

 Zero-point correction=                           0.163423 (Hartree/Particle)
 Thermal correction to Energy=                    0.173193
 Thermal correction to Enthalpy=                  0.174137
 Thermal correction to Gibbs Free Energy=         0.128779
 Sum of electronic and zero-point Energies=           -365.084530
 Sum of electronic and thermal Energies=              -365.074759
 Sum of electronic and thermal Enthalpies=            -365.073815
 Sum of electronic and thermal Free Energies=         -365.119174

                     E (Thermal)             CV                S
                      KCal/Mol        Cal/Mol-Kelvin    Cal/Mol-Kelvin
 Total                  108.680             34.637             95.465
 Electronic               0.000              0.000              0.000
 Translational            0.889              2.981             40.085
 Rotational               0.889              2.981             28.699
 Vibrational            106.903             28.676             26.682
 Vibration     1          0.596              1.976              4.667
 Vibration     2          0.603              1.952              3.542
 Vibration     3          0.613              1.919              2.881
 Vibration     4          0.635              1.849              2.196
 Vibration     5          0.644              1.820              2.014
 Vibration     6          0.656              1.784              1.825
 Vibration     7          0.672              1.735              1.620
 Vibration     8          0.683              1.701              1.501
 Vibration     9          0.694              1.670              1.405
 Vibration    10          0.760              1.485              0.989
 Vibration    11          0.777              1.442              0.916
 Vibration    12          0.828              1.314              0.734
 Vibration    13          0.922              1.104              0.511
 Vibration    14          0.952              1.044              0.460

                           ! Non-Optimized Parameters !
 Normal termination of Gaussian 16 at Thu Aug  4 15:55:01 2022.
