 Gaussian 16, Revision A.03,
 Gaussian 16:  ES64L-G16RevA.03 25-Dec-2016

 -----------------------------
 # opt freq b3lyp/6-31g(2df,p)
 -----------------------------

 -------------------
 Title Card Required
 -------------------
 Symbolic Z-matrix:
 Charge =  0 Multiplicity = 1

 SCF Done:  E(RB3LYP) =  -406.961424527     A.U. after   12 cycles
 SCF Done:  E(RB3LYP) =  -406.965803058     A.U. after   10 cycles
 SCF Done:  E(RB3LYP) =  -406.967118717     A.U. after   10 cycles
 SCF Done:  E(RB3LYP) =  -406.967960327     A.U. after   10 cycles
 SCF Done:  E(RB3LYP) =  -406.968285649     A.U. after   10 cycles
 SCF Done:  E(RB3LYP) =  -406.968441775     A.U. after   10 cycles
 SCF Done:  E(RB3LYP) =  -406.968633659     A.U. after   10 cycles
 SCF Done:  E(RB3LYP) =  -406.968693689     A.U. after   10 cycles
 SCF Done:  E(RB3LYP) =  -406.968569054     A.U. after   11 cycles
 SCF Done:  E(RB3LYP) =  -406.968798883     A.U. after   11 cycles
 SCF Done:  E(RB3LYP) =  -406.969045443     A.U. after    7 cycles
 SCF Done:  E(RB3LYP) =  -406.968884931     A.U. after   10 cycles
 SCF Done:  E(RB3LYP) =  -406.968836932     A.U. after   10 cycles
 SCF Done:  E(RB3LYP) =  -406.969070240     A.U. after   10 cycles
 SCF Done:  E(RB3LYP) =  -406.969112617     A.U. after    8 cycles
 SCF Done:  E(RB3LYP) =  -406.969117378     A.U. after    8 cycles
 SCF Done:  E(RB3LYP) =  -406.969120303     A.U. after    7 cycles
 SCF Done:  E(RB3LYP) =  -406.969121952     A.U. after    7 cycles
 SCF Done:  E(RB3LYP) =  -406.969122808     A.U. after    7 cycles
 Optimization completed.
    -- Stationary point found.
 Normal termination of Gaussian 16 at Sun Jul  3 20:16:57 2022.

 ----------------------------------------------------------------------
 #N Geom=AllCheck Guess=TCheck SCRF=Check GenChk RB3LYP/6-31G(2df,p) Fr
 eq
 ----------------------------------------------------------------------

 Structure from the checkpoint file:  "CCCpCppCCOpNC.chk"
 -------------------
 Title Card Required
 -------------------
 Charge =  0 Multiplicity = 1

                         Standard orientation:
 ---------------------------------------------------------------------
 Center     Atomic      Atomic             Coordinates (Angstroms)
 Number     Number       Type             X           Y           Z
 ---------------------------------------------------------------------
      1          6           0       -0.598236    2.540924   -0.147133
      2          6           0        0.612928    1.667235   -0.482567
      3          6           0        0.625148    0.201582    0.022110
      4          6           0        0.739597    0.172562    1.561304
      5          6           0       -0.614666   -0.588283   -0.482779
      6          6           0       -1.887348   -0.564227    0.371853
      7          8           0       -2.904128   -1.384516   -0.189203
      8          7           0        1.810266   -0.392292   -0.643645
      9          6           0        2.299822   -1.680595   -0.166483
     10          1           0       -0.426072    3.564113   -0.496289
     11          1           0       -0.790678    2.593607    0.928949
     12          1           0       -1.509721    2.184368   -0.635267
     13          1           0        1.513986    2.157571   -0.086594
     14          1           0        0.740401    1.627987   -1.570837
     15          1           0       -0.084979    0.704551    2.044642
     16          1           0        1.674016    0.650220    1.877108
     17          1           0        0.738826   -0.849604    1.951043
     18          1           0       -0.344921   -1.642706   -0.594539
     19          1           0       -0.854210   -0.234108   -1.494993
     20          1           0       -2.253791    0.459632    0.530878
     21          1           0       -1.691521   -0.989611    1.360632
     22          1           0       -3.098417   -1.046327   -1.069259
     23          1           0        2.570549    0.278487   -0.596499
     24          1           0        1.541791   -2.457116   -0.309183
     25          1           0        2.605784   -1.707984    0.892235
     26          1           0        3.166654   -1.966095   -0.770728
 ---------------------------------------------------------------------

 SCF Done:  E(RB3LYP) =  -406.969122808     A.U. after    1 cycles

 The electronic state is 1-A.
 Alpha  occ. eigenvalues --  -19.12733 -14.30583 -10.21886 -10.21687 -10.19513
 Alpha  occ. eigenvalues --  -10.17919 -10.17667 -10.17229 -10.17072  -1.00793
 Alpha  occ. eigenvalues --   -0.89963  -0.78900  -0.73986  -0.70613  -0.67550
 Alpha  occ. eigenvalues --   -0.63048  -0.61081  -0.53890  -0.50265  -0.46942
 Alpha  occ. eigenvalues --   -0.46009  -0.45554  -0.44023  -0.42297  -0.40472
 Alpha  occ. eigenvalues --   -0.40129  -0.38915  -0.37721  -0.36936  -0.35968
 Alpha  occ. eigenvalues --   -0.35521  -0.33860  -0.32800  -0.31930  -0.29925
 Alpha  occ. eigenvalues --   -0.26064  -0.21521
 Alpha virt. eigenvalues --    0.07007   0.07971   0.10457   0.11522   0.12082
 Alpha virt. eigenvalues --    0.13832   0.14225   0.14832   0.14974   0.16320
 Alpha virt. eigenvalues --    0.16843   0.17429   0.19018   0.19533   0.20775

 Mulliken charges:
               1
     1  C   -0.399188
     2  C   -0.196110
     3  C    0.262217
     4  C   -0.426113
     5  C   -0.211297
     6  C   -0.073973
     7  O   -0.420172
     8  N   -0.300782
     9  C   -0.329570
    10  H    0.113927
    11  H    0.118452
    12  H    0.118332
    13  H    0.084586
    14  H    0.104824
    15  H    0.117580
    16  H    0.102262
    17  H    0.117890
    18  H    0.107762
    19  H    0.085304
    20  H    0.088895
    21  H    0.110383
    22  H    0.277919
    23  H    0.207589
    24  H    0.125373
    25  H    0.096538
    26  H    0.117372
 Sum of Mulliken charges =  -0.00000

 Dipole moment (field-independent basis, Debye):
    X=              1.1497    Y=              1.4384    Z=             -0.0860  Tot=              1.8434
 Quadrupole moment (field-independent basis, Debye-Ang):
   XX=            -59.7023   YY=            -60.1698   ZZ=            -58.4574
   XY=             -3.4263   XZ=              4.1176   YZ=             -0.0551

  Exact polarizability:  94.754  -3.359  91.733   1.066  -0.669  79.681
 Approx polarizability: 125.442   0.172 124.202   1.176  -1.368 120.115

                      1                      2                      3
                      A                      A                      A
 Frequencies --     76.8617               101.5070               103.6747
 Red. masses --      2.6017                 2.0848                 1.8976
 Frc consts  --      0.0091                 0.0127                 0.0120
 IR Inten    --      1.8035                 1.4247                 0.9515

                      4                      5                      6
                      A                      A                      A
 Frequencies --    124.0129               177.8984               210.4870
 Red. masses --      1.7008                 2.3628                 2.5151
 Frc consts  --      0.0154                 0.0441                 0.0657
 IR Inten    --      0.8055                 1.0937                 0.4904

                      7                      8                      9
                      A                      A                      A
 Frequencies --    237.2991               262.0097               288.4665
 Red. masses --      1.4272                 1.2061                 1.7307
 Frc consts  --      0.0473                 0.0488                 0.0849
 IR Inten    --      2.3925                 0.6245                 6.2676

                     10                     11                     12
                      A                      A                      A
 Frequencies --    299.3341               323.8193               344.7296
 Red. masses --      1.1575                 1.5723                 2.7501
 Frc consts  --      0.0611                 0.0971                 0.1926
 IR Inten    --     75.8332                 2.0643                20.6514

                     13                     14                     15
                      A                      A                      A
 Frequencies --    349.6550               392.6784               436.9168
 Red. masses --      2.0460                 2.7697                 3.5211
 Frc consts  --      0.1474                 0.2516                 0.3960
 IR Inten    --      1.9952                 2.2794                 1.0884

                     16                     17                     18
                      A                      A                      A
 Frequencies --    488.0937               534.4226               717.0091
 Red. masses --      2.4139                 2.5409                 1.9437
 Frc consts  --      0.3388                 0.4276                 0.5888
 IR Inten    --     15.9277                 3.9102                48.1897

                     19                     20                     21
                      A                      A                      A
 Frequencies --    748.3938               779.7439               796.4119
 Red. masses --      1.5777                 1.3608                 1.2173
 Frc consts  --      0.5206                 0.4875                 0.4549
 IR Inten    --     18.6540                 8.5061                 2.6189

                     22                     23                     24
                      A                      A                      A
 Frequencies --    873.1422               937.7104               991.1806
 Red. masses --      1.9010                 1.6088                 1.9475
 Frc consts  --      0.8539                 0.8335                 1.1273
 IR Inten    --      0.5340                 1.9648                25.8799

                     25                     26                     27
                      A                      A                      A
 Frequencies --   1015.4655              1028.8548              1046.3277
 Red. masses --      1.6645                 2.1148                 2.5114
 Frc consts  --      1.0112                 1.3190                 1.6200
 IR Inten    --      2.0153                16.2552                 0.9507

                     28                     29                     30
                      A                      A                      A
 Frequencies --   1065.0355              1075.2210              1110.6328
 Red. masses --      1.7263                 3.5208                 1.6010
 Frc consts  --      1.1537                 2.3982                 1.1636
 IR Inten    --     16.3860                85.2218                 3.4806

                     31                     32                     33
                      A                      A                      A
 Frequencies --   1124.4475              1153.2303              1165.0200
 Red. masses --      2.0895                 1.5752                 1.5500
 Frc consts  --      1.5566                 1.2343                 1.2395
 IR Inten    --     10.3146                16.3234                24.1817

                     34                     35                     36
                      A                      A                      A
 Frequencies --   1184.3652              1234.4972              1272.3023
 Red. masses --      2.3252                 1.9426                 2.0627
 Frc consts  --      1.9217                 1.7442                 1.9672
 IR Inten    --     30.3413                 6.5910                 9.1422

                     37                     38                     39
                      A                      A                      A
 Frequencies --   1311.5067              1319.2866              1334.7600
 Red. masses --      1.3030                 1.3004                 1.2252
 Frc consts  --      1.3205                 1.3336                 1.2860
 IR Inten    --      6.8104                 0.3473                 4.9626

                     40                     41                     42
                      A                      A                      A
 Frequencies --   1373.4486              1393.7183              1407.8420
 Red. masses --      1.4462                 1.2554                 1.2992
 Frc consts  --      1.6073                 1.4367                 1.5171
 IR Inten    --      1.8145                 7.9906                 9.1130

                     43                     44                     45
                      A                      A                      A
 Frequencies --   1413.5866              1426.1181              1456.2237
 Red. masses --      1.2252                 1.2688                 1.1472
 Frc consts  --      1.4425                 1.5204                 1.4333
 IR Inten    --      3.0280                35.6700                 0.1117

                     46                     47                     48
                      A                      A                      A
 Frequencies --   1474.6640              1484.1829              1486.6270
 Red. masses --      1.0854                 1.0632                 1.1128
 Frc consts  --      1.3907                 1.3798                 1.4490
 IR Inten    --      2.3172                 1.4458                 7.9826

                     49                     50                     51
                      A                      A                      A
 Frequencies --   1492.3627              1500.6219              1504.6029
 Red. masses --      1.0668                 1.0498                 1.0580
 Frc consts  --      1.3998                 1.3928                 1.4112
 IR Inten    --      0.4253                 4.9525                 9.9401

                     52                     53                     54
                      A                      A                      A
 Frequencies --   1506.1159              1516.4703              1522.2829
 Red. masses --      1.0862                 1.0889                 1.0800
 Frc consts  --      1.4517                 1.4753                 1.4746
 IR Inten    --      2.1899                 9.0632                 1.6203

                     55                     56                     57
                      A                      A                      A
 Frequencies --   1527.7184              2966.6348              3001.2704
 Red. masses --      1.0711                 1.0568                 1.0655
 Frc consts  --      1.4729                 5.4798                 5.6548
 IR Inten    --      9.8813                70.6797                30.6310

                     58                     59                     60
                      A                      A                      A
 Frequencies --   3007.6646              3014.4534              3031.6276
 Red. masses --      1.0676                 1.0689                 1.0376
 Frc consts  --      5.6901                 5.7228                 5.6184
 IR Inten    --     40.9706                26.5008                15.1247

                     61                     62                     63
                      A                      A                      A
 Frequencies --   3039.3849              3054.4949              3062.6297
 Red. masses --      1.0365                 1.0947                 1.0766
 Frc consts  --      5.6416                 6.0174                 5.9495
 IR Inten    --     25.8779                15.3559                28.5696

                     64                     65                     66
                      A                      A                      A
 Frequencies --   3074.1574              3090.3672              3098.1180
 Red. masses --      1.0866                 1.0989                 1.0999
 Frc consts  --      6.0500                 6.1833                 6.2199
 IR Inten    --     21.3663                50.4736                 1.1610

                     67                     68                     69
                      A                      A                      A
 Frequencies --   3100.4489              3101.6700              3107.8391
 Red. masses --      1.1005                 1.0995                 1.1006
 Frc consts  --      6.2328                 6.2322                 6.2630
 IR Inten    --     11.4953                82.8684                27.7011

                     70                     71                     72
                      A                      A                      A
 Frequencies --   3113.0185              3511.4589              3812.0539
 Red. masses --      1.1011                 1.0737                 1.0661
 Frc consts  --      6.2870                 7.8000                 9.1275
 IR Inten    --     33.9180                 0.9465                13.4239

 - Thermochemistry -
 -------------------
 Temperature   298.150 Kelvin.  Pressure   1.00000 Atm.
 Atom     1 has atomic number  6 and mass  12.00000

 Molecular mass:   131.13101 amu.
 Principal axes and moments of inertia in atomic units:
                           1         2         3
     Eigenvalues --  1084.326891546.806832154.00618
           X            0.99639  -0.08439   0.00937
           Y            0.08443   0.99642  -0.00356
           Z           -0.00904   0.00434   0.99995
 This molecule is an asymmetric top.
 Rotational symmetry number  1.
 Warning -- assumption of classical behavior for rotation
           may cause significant error
 Rotational temperatures (Kelvin)      0.07988     0.05600     0.04021
 Rotational constants (GHZ):           1.66439     1.16675     0.83785
 Zero-point vibrational energy     626306.6 (Joules/Mol)
                                  149.69087 (Kcal/Mol)
 Warning -- explicit consideration of  17 degrees of freedom as
           vibrations may cause significant error
 Vibrational temperatures:    110.59   146.05   149.16   178.43   255.96
          (Kelvin)            302.84   341.42   376.97   415.04   430.67
                              465.90   495.99   503.08   564.98   628.63
                              702.26   768.91  1031.62  1076.77  1121.88
                             1145.86  1256.26  1349.16  1426.09  1461.03
                             1480.29  1505.43  1532.35  1547.00  1597.95
                             1617.83  1659.24  1676.20  1704.04  1776.17
                             1830.56  1886.97  1898.16  1920.42  1976.09
                             2005.25  2025.57  2033.84  2051.87  2095.18
                             2121.71  2135.41  2138.92  2147.18  2159.06
                             2164.79  2166.96  2181.86  2190.23  2198.05
                             4268.33  4318.16  4327.36  4337.13  4361.84
                             4373.00  4394.74  4406.44  4423.03  4446.35
                             4457.50  4460.85  4462.61  4471.49  4478.94
                             5052.21  5484.70

 Zero-point correction=                           0.238548 (Hartree/Particle)
 Thermal correction to Energy=                    0.250342
 Thermal correction to Enthalpy=                  0.251286
 Thermal correction to Gibbs Free Energy=         0.201932
 Sum of electronic and zero-point Energies=           -406.730575
 Sum of electronic and thermal Energies=              -406.718781
 Sum of electronic and thermal Enthalpies=            -406.717837
 Sum of electronic and thermal Free Energies=         -406.767191

                     E (Thermal)             CV                S
                      KCal/Mol        Cal/Mol-Kelvin    Cal/Mol-Kelvin
 Total                  157.092             43.690            103.874
 Electronic               0.000              0.000              0.000
 Translational            0.889              2.981             40.526
 Rotational               0.889              2.981             29.670
 Vibrational            155.314             37.728             33.678
 Vibration     1          0.599              1.965              3.969
 Vibration     2          0.604              1.948              3.425
 Vibration     3          0.605              1.946              3.384
 Vibration     4          0.610              1.929              3.037
 Vibration     5          0.628              1.870              2.350
 Vibration     6          0.643              1.825              2.039
 Vibration     7          0.656              1.784              1.823
 Vibration     8          0.669              1.742              1.648
 Vibration     9          0.685              1.695              1.483
 Vibration    10          0.692              1.675              1.421
 Vibration    11          0.708              1.628              1.291
 Vibration    12          0.723              1.586              1.190
 Vibration    13          0.727              1.576              1.168
 Vibration    14          0.760              1.486              0.990
 Vibration    15          0.797              1.390              0.836
 Vibration    16          0.844              1.276              0.689
 Vibration    17          0.889              1.174              0.577

                           ! Non-Optimized Parameters !
 Normal termination of Gaussian 16 at Sun Jul  3 21:03:28 2022.
