 Gaussian 16, Revision A.03,
 Gaussian 16:  ES64L-G16RevA.03 25-Dec-2016

 -----------------------------
 # opt freq b3lyp/6-31g(2df,p)
 -----------------------------

 -------------------
 Title Card Required
 -------------------
 Symbolic Z-matrix:
 Charge =  0 Multiplicity = 1

 SCF Done:  E(RB3LYP) =  -405.786869499     A.U. after   13 cycles
 SCF Done:  E(RB3LYP) =  -405.790980237     A.U. after   13 cycles
 SCF Done:  E(RB3LYP) =  -405.791342787     A.U. after   12 cycles
 SCF Done:  E(RB3LYP) =  -405.792197622     A.U. after   11 cycles
 SCF Done:  E(RB3LYP) =  -405.792629624     A.U. after   11 cycles
 SCF Done:  E(RB3LYP) =  -405.792703255     A.U. after   10 cycles
 SCF Done:  E(RB3LYP) =  -405.792717251     A.U. after   10 cycles
 SCF Done:  E(RB3LYP) =  -405.792724719     A.U. after   10 cycles
 SCF Done:  E(RB3LYP) =  -405.792729395     A.U. after   10 cycles
 SCF Done:  E(RB3LYP) =  -405.792739566     A.U. after   10 cycles
 SCF Done:  E(RB3LYP) =  -405.792750802     A.U. after   11 cycles
 SCF Done:  E(RB3LYP) =  -405.792755472     A.U. after    9 cycles
 SCF Done:  E(RB3LYP) =  -405.792756767     A.U. after    8 cycles
 SCF Done:  E(RB3LYP) =  -405.792757347     A.U. after    9 cycles
 SCF Done:  E(RB3LYP) =  -405.792757458     A.U. after    8 cycles
 SCF Done:  E(RB3LYP) =  -405.792757493     A.U. after    7 cycles
 Optimization completed.
    -- Stationary point found.
 Normal termination of Gaussian 16 at Sun Jul  3 16:12:18 2022.

 ----------------------------------------------------------------------
 #N Geom=AllCheck Guess=TCheck SCRF=Check GenChk RB3LYP/6-31G(2df,p) Fr
 eq
 ----------------------------------------------------------------------

 Structure from the checkpoint file:  "CCCpdOpCCpNpCC.chk"
 -------------------
 Title Card Required
 -------------------
 Charge =  0 Multiplicity = 1

                         Standard orientation:
 ---------------------------------------------------------------------
 Center     Atomic      Atomic             Coordinates (Angstroms)
 Number     Number       Type             X           Y           Z
 ---------------------------------------------------------------------
      1          6           0       -3.883339   -0.013062   -0.112128
      2          6           0       -2.600601   -0.810663    0.109287
      3          6           0       -1.328388    0.010534   -0.063317
      4          8           0       -1.364413    1.155296   -0.462826
      5          6           0       -0.022286   -0.693052    0.287353
      6          6           0        1.255959    0.072537   -0.110284
      7          7           0        1.424607    1.359297    0.572177
      8          6           0        2.501068   -0.801314    0.107566
      9          6           0        3.785890   -0.177652   -0.442143
     10          1           0       -4.761670   -0.655257   -0.003254
     11          1           0       -3.897355    0.430258   -1.110556
     12          1           0       -3.964170    0.806387    0.607100
     13          1           0       -2.538043   -1.656823   -0.589880
     14          1           0       -2.578758   -1.269556    1.107109
     15          1           0       -0.042664   -1.691688   -0.171820
     16          1           0       -0.026871   -0.878339    1.372849
     17          1           0        1.180785    0.302491   -1.181604
     18          1           0        1.426455    1.214585    1.579636
     19          1           0        0.619628    1.940521    0.359833
     20          1           0        2.334022   -1.782064   -0.355534
     21          1           0        2.612155   -0.990864    1.185572
     22          1           0        3.728241   -0.058747   -1.529977
     23          1           0        4.655366   -0.804489   -0.220883
     24          1           0        3.946112    0.812164   -0.009219
 ---------------------------------------------------------------------

 SCF Done:  E(RB3LYP) =  -405.792757493     A.U. after    1 cycles

 The electronic state is 1-A.
 Alpha  occ. eigenvalues --  -19.13428 -14.29503 -10.27168 -10.20736 -10.19653
 Alpha  occ. eigenvalues --  -10.18988 -10.17830 -10.17611 -10.16176  -1.04351
 Alpha  occ. eigenvalues --   -0.87718  -0.78743  -0.76234  -0.73640  -0.65974
 Alpha  occ. eigenvalues --   -0.62207  -0.57129  -0.52345  -0.49197  -0.47563
 Alpha  occ. eigenvalues --   -0.46423  -0.44597  -0.43961  -0.41900  -0.41129
 Alpha  occ. eigenvalues --   -0.39192  -0.37820  -0.37178  -0.36448  -0.35537
 Alpha  occ. eigenvalues --   -0.34687  -0.33700  -0.32850  -0.32210  -0.25220
 Alpha  occ. eigenvalues --   -0.22439
 Alpha virt. eigenvalues --   -0.01411   0.07236   0.09987   0.11673   0.12476
 Alpha virt. eigenvalues --    0.13754   0.14507   0.14834   0.15453   0.16857
 Alpha virt. eigenvalues --    0.17837   0.18023   0.18840   0.19244   0.19354

 Mulliken charges:
               1
     1  C   -0.376443
     2  C   -0.271628
     3  C    0.369310
     4  O   -0.304104
     5  C   -0.312463
     6  C    0.053030
     7  N   -0.514957
     8  C   -0.163651
     9  C   -0.380083
    10  H    0.110375
    11  H    0.134782
    12  H    0.127990
    13  H    0.124612
    14  H    0.117974
    15  H    0.110437
    16  H    0.113504
    17  H    0.087360
    18  H    0.209386
    19  H    0.243483
    20  H    0.086985
    21  H    0.083975
    22  H    0.109440
    23  H    0.102615
    24  H    0.138071
 Sum of Mulliken charges =  -0.00000

 Dipole moment (field-independent basis, Debye):
    X=             -1.2001    Y=             -2.6873    Z=              1.1732  Tot=              3.1683
 Quadrupole moment (field-independent basis, Debye-Ang):
   XX=            -59.1722   YY=            -59.6303   ZZ=            -54.3959
   XY=              0.6653   XZ=             -0.5596   YZ=              1.8134

  Exact polarizability: 105.932   0.042  81.889   0.084  -1.198  72.549
 Approx polarizability: 117.461  -0.186 129.738   1.854  -5.004 114.197

                      1                      2                      3
                      A                      A                      A
 Frequencies --     31.6990                47.7855                83.7812
 Red. masses --      2.8014                 2.2265                 3.0902
 Frc consts  --      0.0017                 0.0030                 0.0128
 IR Inten    --      0.3941                 0.1834                 0.6643

                      4                      5                      6
                      A                      A                      A
 Frequencies --    117.9528               128.7549               194.2908
 Red. masses --      1.8080                 3.1173                 1.1307
 Frc consts  --      0.0148                 0.0304                 0.0251
 IR Inten    --      1.7518                 0.7946                 0.0928

                      7                      8                      9
                      A                      A                      A
 Frequencies --    220.0915               243.0998               279.3102
 Red. masses --      1.2720                 2.5834                 3.7729
 Frc consts  --      0.0363                 0.0900                 0.1734
 IR Inten    --      1.1318                 2.6665                 5.7810

                     10                     11                     12
                      A                      A                      A
 Frequencies --    321.7562               326.7989               355.6342
 Red. masses --      3.0720                 1.4238                 2.1212
 Frc consts  --      0.1874                 0.0896                 0.1581
 IR Inten    --      4.1791                14.3927                22.1727

                     13                     14                     15
                      A                      A                      A
 Frequencies --    445.4795               472.4902               530.7737
 Red. masses --      1.7974                 2.0953                 2.5226
 Frc consts  --      0.2102                 0.2756                 0.4187
 IR Inten    --      5.5651                 1.4557                 4.1405

                     16                     17                     18
                      A                      A                      A
 Frequencies --    653.4220               735.1363               782.6123
 Red. masses --      3.5195                 1.3932                 1.3783
 Frc consts  --      0.8853                 0.4436                 0.4974
 IR Inten    --      6.4906                 1.5175                 4.3762

                     19                     20                     21
                      A                      A                      A
 Frequencies --    814.7622               865.6339               887.7226
 Red. masses --      2.4082                 2.8875                 1.4579
 Frc consts  --      0.9419                 1.2748                 0.6769
 IR Inten    --      3.8108                 0.2189               115.3347

                     22                     23                     24
                      A                      A                      A
 Frequencies --    901.7868               986.8694              1007.5933
 Red. masses --      1.6671                 2.5589                 1.5958
 Frc consts  --      0.7988                 1.4683                 0.9546
 IR Inten    --     67.9054                 5.8173                16.8823

                     25                     26                     27
                      A                      A                      A
 Frequencies --   1016.8680              1033.5963              1045.3507
 Red. masses --      1.7172                 1.7469                 1.6869
 Frc consts  --      1.0461                 1.0996                 1.0861
 IR Inten    --     11.0609                35.1437                 0.8204

                     28                     29                     30
                      A                      A                      A
 Frequencies --   1055.2243              1117.8708              1130.7201
 Red. masses --      1.3999                 2.0745                 2.3383
 Frc consts  --      0.9184                 1.5274                 1.7614
 IR Inten    --      5.7777                66.4912                 6.2670

                     31                     32                     33
                      A                      A                      A
 Frequencies --   1165.0290              1201.6924              1252.1750
 Red. masses --      2.3997                 1.3763                 1.4623
 Frc consts  --      1.9190                 1.1710                 1.3508
 IR Inten    --     13.6915                 5.1448                 1.0456

                     34                     35                     36
                      A                      A                      A
 Frequencies --   1284.1046              1300.9534              1338.7501
 Red. masses --      1.2342                 1.2429                 1.2876
 Frc consts  --      1.1991                 1.2394                 1.3596
 IR Inten    --      1.1389                 5.4292                 2.8924

                     37                     38                     39
                      A                      A                      A
 Frequencies --   1356.6853              1377.9102              1384.6827
 Red. masses --      1.4543                 1.8601                 1.4732
 Frc consts  --      1.5772                 2.0808                 1.6643
 IR Inten    --      6.5772                35.4970                13.4573

                     40                     41                     42
                      A                      A                      A
 Frequencies --   1402.6191              1413.6046              1416.4235
 Red. masses --      1.2797                 1.2247                 1.2995
 Frc consts  --      1.4833                 1.4419                 1.5360
 IR Inten    --      2.5584                 3.8907                10.6554

                     43                     44                     45
                      A                      A                      A
 Frequencies --   1437.3448              1452.7557              1483.5476
 Red. masses --      1.1166                 1.0947                 1.0752
 Frc consts  --      1.3592                 1.3613                 1.3942
 IR Inten    --      3.6171                12.1997                 0.8990

                     46                     47                     48
                      A                      A                      A
 Frequencies --   1492.8392              1493.2508              1498.3115
 Red. masses --      1.0383                 1.0416                 1.0506
 Frc consts  --      1.3633                 1.3684                 1.3896
 IR Inten    --      5.4852                 5.1297                 7.6257

                     49                     50                     51
                      A                      A                      A
 Frequencies --   1511.0293              1656.7108              1793.9023
 Red. masses --      1.0603                 1.0925                10.5121
 Frc consts  --      1.4264                 1.7667                19.9314
 IR Inten    --      4.0541                21.1700               107.1810

                     52                     53                     54
                      A                      A                      A
 Frequencies --   2995.0574              2998.7723              3015.3705
 Red. masses --      1.0619                 1.0668                 1.0666
 Frc consts  --      5.6123                 5.6520                 5.7137
 IR Inten    --      3.9626                21.0957                 9.3235

                     55                     56                     57
                      A                      A                      A
 Frequencies --   3021.7819              3031.4633              3035.5497
 Red. masses --      1.0767                 1.0913                 1.0448
 Frc consts  --      5.7924                 5.9086                 5.6722
 IR Inten    --     35.0342                 6.3595                27.0287

                     58                     59                     60
                      A                      A                      A
 Frequencies --   3044.1905              3049.4800              3051.3643
 Red. masses --      1.0950                 1.0927                 1.0370
 Frc consts  --      5.9785                 5.9868                 5.6889
 IR Inten    --      3.9480                61.9456                23.8300

                     61                     62                     63
                      A                      A                      A
 Frequencies --   3097.2824              3120.7438              3129.2839
 Red. masses --      1.1007                 1.1021                 1.1015
 Frc consts  --      6.2215                 6.3238                 6.3551
 IR Inten    --     41.1996                22.2263                18.5228

                     64                     65                     66
                      A                      A                      A
 Frequencies --   3130.5120              3474.7421              3569.2424
 Red. masses --      1.0997                 1.0513                 1.0890
 Frc consts  --      6.3499                 7.4785                 8.1737
 IR Inten    --     18.5713                 4.7483                11.1659

 - Thermochemistry -
 -------------------
 Temperature   298.150 Kelvin.  Pressure   1.00000 Atm.
 Atom     1 has atomic number  6 and mass  12.00000

 Molecular mass:   129.11536 amu.
 Principal axes and moments of inertia in atomic units:
                           1         2         3
     Eigenvalues --   407.747132740.715802969.30992
           X            0.99999   0.00232  -0.00392
           Y           -0.00229   0.99995   0.00936
           Z            0.00394  -0.00935   0.99995
 This molecule is an asymmetric top.
 Rotational symmetry number  1.
 Rotational temperatures (Kelvin)      0.21242     0.03160     0.02917
 Rotational constants (GHZ):           4.42613     0.65849     0.60780
 Zero-point vibrational energy     564123.1 (Joules/Mol)
                                  134.82867 (Kcal/Mol)
 Warning -- explicit consideration of  15 degrees of freedom as
           vibrations may cause significant error
 Vibrational temperatures:     45.61    68.75   120.54   169.71   185.25
          (Kelvin)            279.54   316.66   349.77   401.87   462.94
                              470.19   511.68   640.95   679.81   763.66
                              940.13  1057.70  1126.00  1172.26  1245.45
                             1277.23  1297.47  1419.88  1449.70  1463.05
                             1487.11  1504.03  1518.23  1608.37  1626.85
                             1676.22  1728.97  1801.60  1847.54  1871.78
                             1926.16  1951.97  1982.51  1992.25  2018.06
                             2033.86  2037.92  2068.02  2090.19  2134.49
                             2147.86  2148.45  2155.74  2174.03  2383.64
                             2581.03  4309.22  4314.56  4338.45  4347.67
                             4361.60  4367.48  4379.91  4387.52  4390.23
                             4456.30  4490.05  4502.34  4504.11  4999.38
                             5135.34

 Zero-point correction=                           0.214863 (Hartree/Particle)
 Thermal correction to Energy=                    0.226430
 Thermal correction to Enthalpy=                  0.227374
 Thermal correction to Gibbs Free Energy=         0.176806
 Sum of electronic and zero-point Energies=           -405.577894
 Sum of electronic and thermal Energies=              -405.566327
 Sum of electronic and thermal Enthalpies=            -405.565383
 Sum of electronic and thermal Free Energies=         -405.615952

                     E (Thermal)             CV                S
                      KCal/Mol        Cal/Mol-Kelvin    Cal/Mol-Kelvin
 Total                  142.087             41.081            106.430
 Electronic               0.000              0.000              0.000
 Translational            0.889              2.981             40.480
 Rotational               0.889              2.981             29.585
 Vibrational            140.310             35.119             36.365
 Vibration     1          0.594              1.983              5.720
 Vibration     2          0.595              1.978              4.907
 Vibration     3          0.601              1.960              3.800
 Vibration     4          0.608              1.934              3.134
 Vibration     5          0.611              1.924              2.965
 Vibration     6          0.635              1.848              2.186
 Vibration     7          0.647              1.810              1.958
 Vibration     8          0.659              1.774              1.780
 Vibration     9          0.680              1.712              1.538
 Vibration    10          0.707              1.632              1.301
 Vibration    11          0.710              1.622              1.276
 Vibration    12          0.731              1.564              1.141
 Vibration    13          0.805              1.371              0.810
 Vibration    14          0.829              1.311              0.731
 Vibration    15          0.886              1.182              0.585

 Optimization completed.
    -- Stationary point found.
 Normal termination of Gaussian 16 at Sun Jul  3 16:42:45 2022.
