 Gaussian 16, Revision A.03,
 Gaussian 16:  ES64L-G16RevA.03 25-Dec-2016

 -----------------------------
 # opt freq b3lyp/6-31g(2df,p)
 -----------------------------

 -------------------
 Title Card Required
 -------------------
 Symbolic Z-matrix:
 Charge =  0 Multiplicity = 1

 SCF Done:  E(RB3LYP) =  -423.932011604     A.U. after   13 cycles
 SCF Done:  E(RB3LYP) =  -423.954130074     A.U. after   12 cycles
 SCF Done:  E(RB3LYP) =  -423.955176597     A.U. after   12 cycles
 SCF Done:  E(RB3LYP) =  -423.950689071     A.U. after   12 cycles
 SCF Done:  E(RB3LYP) =  -423.955633588     A.U. after   10 cycles
 SCF Done:  E(RB3LYP) =  -423.954800107     A.U. after   11 cycles
 SCF Done:  E(RB3LYP) =  -423.955754709     A.U. after    9 cycles
 SCF Done:  E(RB3LYP) =  -423.955770012     A.U. after    9 cycles
 SCF Done:  E(RB3LYP) =  -423.955772793     A.U. after    8 cycles
 SCF Done:  E(RB3LYP) =  -423.955773840     A.U. after    7 cycles
 SCF Done:  E(RB3LYP) =  -423.955822680     A.U. after    9 cycles
 SCF Done:  E(RB3LYP) =  -423.955823168     A.U. after    8 cycles
 SCF Done:  E(RB3LYP) =  -423.955827151     A.U. after   10 cycles
 SCF Done:  E(RB3LYP) =  -423.955829519     A.U. after   10 cycles
 SCF Done:  E(RB3LYP) =  -423.955831952     A.U. after   10 cycles
 SCF Done:  E(RB3LYP) =  -423.955829503     A.U. after   10 cycles
 SCF Done:  E(RB3LYP) =  -423.955832226     A.U. after   10 cycles
 SCF Done:  E(RB3LYP) =  -423.955832586     A.U. after   10 cycles
 SCF Done:  E(RB3LYP) =  -423.955832625     A.U. after    8 cycles
 Optimization completed.
    -- Stationary point found.
 Normal termination of Gaussian 16 at Wed Aug  3 03:23:00 2022.

 ----------------------------------------------------------------------
 #N Geom=AllCheck Guess=TCheck SCRF=Check GenChk RB3LYP/6-31G(2df,p) Fr
 eq
 ----------------------------------------------------------------------

 Structure from the checkpoint file:  "CCCpNpCCtCCpCpN.chk"
 -------------------
 Title Card Required
 -------------------
 Charge =  0 Multiplicity = 1

                         Standard orientation:
 ---------------------------------------------------------------------
 Center     Atomic      Atomic             Coordinates (Angstroms)
 Number     Number       Type             X           Y           Z
 ---------------------------------------------------------------------
      1          6           0       -4.422498   -0.131612   -0.597734
      2          6           0       -3.280493   -0.553950    0.329763
      3          6           0       -1.895858   -0.028775   -0.103393
      4          7           0       -1.779043    1.430056   -0.180184
      5          6           0       -0.803306   -0.569516    0.847613
      6          6           0        0.558656   -0.332525    0.385165
      7          6           0        1.678740   -0.164979   -0.023694
      8          6           0        3.048308    0.074214   -0.481898
      9          6           0        3.725386    1.164193    0.376007
     10          7           0        3.785737   -1.203133   -0.535081
     11          1           0       -5.377639   -0.546500   -0.262145
     12          1           0       -4.250224   -0.481134   -1.622207
     13          1           0       -4.533016    0.957320   -0.630939
     14          1           0       -3.244664   -1.649992    0.381219
     15          1           0       -3.486064   -0.205204    1.352345
     16          1           0       -1.679938   -0.413090   -1.108842
     17          1           0       -2.070759    1.846929    0.701277
     18          1           0       -2.402936    1.797784   -0.891057
     19          1           0       -0.957339   -1.647198    0.986383
     20          1           0       -0.948360   -0.114825    1.838694
     21          1           0        3.000401    0.443724   -1.516124
     22          1           0        3.793719    0.840183    1.419551
     23          1           0        3.158825    2.099867    0.345471
     24          1           0        4.737975    1.360623    0.006244
     25          1           0        3.805591   -1.608574    0.397536
     26          1           0        4.753952   -1.010686   -0.781521
 ---------------------------------------------------------------------

 SCF Done:  E(RB3LYP) =  -423.955832625     A.U. after    1 cycles

 The electronic state is 1-A.
 Alpha  occ. eigenvalues --  -14.30496 -14.30311 -10.22373 -10.21145 -10.19652
 Alpha  occ. eigenvalues --  -10.18030 -10.17710 -10.17156 -10.15965 -10.15381
 Alpha  occ. eigenvalues --   -0.88490  -0.88048  -0.77603  -0.75817  -0.73664
 Alpha  occ. eigenvalues --   -0.69222  -0.64127  -0.60992  -0.57707  -0.50756
 Alpha  occ. eigenvalues --   -0.49487  -0.46351  -0.45173  -0.44276  -0.42868
 Alpha  occ. eigenvalues --   -0.42471  -0.41517  -0.40544  -0.38609  -0.37237
 Alpha  occ. eigenvalues --   -0.36876  -0.35310  -0.35232  -0.34280  -0.33115
 Alpha  occ. eigenvalues --   -0.24438  -0.24136  -0.23250  -0.22700
 Alpha virt. eigenvalues --    0.05230   0.06942   0.07760   0.10234   0.11442
 Alpha virt. eigenvalues --    0.12200   0.13450   0.14063   0.15101   0.15753
 Alpha virt. eigenvalues --    0.16294   0.16688   0.16926   0.17864   0.18178

 Mulliken charges:
               1
     1  C   -0.397634
     2  C   -0.164418
     3  C    0.046398
     4  N   -0.497921
     5  C   -0.364038
     6  C    0.015547
     7  C    0.182111
     8  C   -0.124621
     9  C   -0.378252
    10  N   -0.504254
    11  H    0.115948
    12  H    0.116912
    13  H    0.107138
    14  H    0.094438
    15  H    0.086498
    16  H    0.090938
    17  H    0.217189
    18  H    0.227838
    19  H    0.123059
    20  H    0.113728
    21  H    0.107897
    22  H    0.114717
    23  H    0.125668
    24  H    0.101645
    25  H    0.223799
    26  H    0.219670
 Sum of Mulliken charges =  -0.00000

 Dipole moment (field-independent basis, Debye):
    X=             -1.0033    Y=              0.6262    Z=              1.0220  Tot=              1.5631
 Quadrupole moment (field-independent basis, Debye-Ang):
   XX=            -49.9764   YY=            -64.1291   ZZ=            -61.7474
   XY=              0.5327   XZ=              0.9847   YZ=             -2.0938

  Exact polarizability: 142.212   3.085  87.582  -6.094  -1.819  82.845
 Approx polarizability: 173.551   5.190 126.633 -17.021  -3.476 128.070

                      1                      2                      3
                      A                      A                      A
 Frequencies --      6.1486                45.4585                60.3703
 Red. masses --      3.0843                 3.5595                 3.5588
 Frc consts  --      0.0001                 0.0043                 0.0076
 IR Inten    --      0.7091                 1.0898                 1.5304

                      4                      5                      6
                      A                      A                      A
 Frequencies --    104.5461               126.0197               162.1260
 Red. masses --      2.2314                 2.7178                 2.5493
 Frc consts  --      0.0144                 0.0254                 0.0395
 IR Inten    --      1.2632                 0.8528                 2.8999

                      7                      8                      9
                      A                      A                      A
 Frequencies --    222.3375               225.8708               251.5713
 Red. masses --      1.1343                 2.5029                 1.0634
 Frc consts  --      0.0330                 0.0752                 0.0397
 IR Inten    --     12.0348                 0.0740                18.1837

                     10                     11                     12
                      A                      A                      A
 Frequencies --    262.1542               272.5922               314.5294
 Red. masses --      1.2094                 1.2516                 2.7417
 Frc consts  --      0.0490                 0.0548                 0.1598
 IR Inten    --     21.9305                20.7051                 5.4179

                     13                     14                     15
                      A                      A                      A
 Frequencies --    331.1703               384.4370               401.9988
 Red. masses --      3.3642                 2.8800                 3.2939
 Frc consts  --      0.2174                 0.2508                 0.3136
 IR Inten    --      4.4807                 1.6882                 5.3311

                     16                     17                     18
                      A                      A                      A
 Frequencies --    446.1943               534.1234               537.9124
 Red. masses --      1.9843                 3.4212                 2.9317
 Frc consts  --      0.2328                 0.5751                 0.4998
 IR Inten    --      2.4597                 2.2817                 9.7289

                     19                     20                     21
                      A                      A                      A
 Frequencies --    552.6513               728.4602               776.2357
 Red. masses --      4.9857                 2.9835                 1.2265
 Frc consts  --      0.8972                 0.9328                 0.4354
 IR Inten    --      6.8002                 0.5756                 6.8937

                     22                     23                     24
                      A                      A                      A
 Frequencies --    828.4210               864.1279               886.8048
 Red. masses --      2.0748                 2.4284                 1.8187
 Frc consts  --      0.8389                 1.0684                 0.8427
 IR Inten    --     73.5040                91.9361                34.3840

                     25                     26                     27
                      A                      A                      A
 Frequencies --    904.6951               923.8994               974.6532
 Red. masses --      1.5061                 1.2791                 2.1154
 Frc consts  --      0.7263                 0.6433                 1.1840
 IR Inten    --     39.4195                61.9118                16.3223

                     28                     29                     30
                      A                      A                      A
 Frequencies --   1007.5357              1012.6139              1062.0468
 Red. masses --      1.6350                 1.5200                 2.2460
 Frc consts  --      0.9779                 0.9183                 1.4926
 IR Inten    --      4.9072                 3.2462                 2.1794

                     31                     32                     33
                      A                      A                      A
 Frequencies --   1078.1984              1091.0856              1109.1006
 Red. masses --      2.6507                 2.1262                 1.8513
 Frc consts  --      1.8156                 1.4914                 1.3418
 IR Inten    --     27.7904                 2.2863                18.8616

                     34                     35                     36
                      A                      A                      A
 Frequencies --   1156.7041              1172.3137              1197.2922
 Red. masses --      1.9115                 1.3450                 1.6870
 Frc consts  --      1.5068                 1.0890                 1.4248
 IR Inten    --     18.0895                 6.3565                 3.9946

                     37                     38                     39
                      A                      A                      A
 Frequencies --   1215.1701              1266.5154              1290.9007
 Red. masses --      1.6402                 1.3283                 1.2118
 Frc consts  --      1.4270                 1.2554                 1.1897
 IR Inten    --     13.8100                 6.3534                 6.0919

                     40                     41                     42
                      A                      A                      A
 Frequencies --   1334.4289              1340.1368              1358.1722
 Red. masses --      1.3200                 1.2740                 1.4345
 Frc consts  --      1.3849                 1.3481                 1.5590
 IR Inten    --      1.5343                15.0243                 5.0415

                     43                     44                     45
                      A                      A                      A
 Frequencies --   1378.6055              1398.7881              1403.9076
 Red. masses --      1.4733                 1.2273                 1.2518
 Frc consts  --      1.6497                 1.4149                 1.4537
 IR Inten    --      0.8609                 2.2678                12.8876

                     46                     47                     48
                      A                      A                      A
 Frequencies --   1407.6019              1419.1822              1464.8334
 Red. masses --      1.4214                 1.3012                 1.0923
 Frc consts  --      1.6593                 1.5441                 1.3810
 IR Inten    --     37.3957                 2.1307                 2.9973

                     49                     50                     51
                      A                      A                      A
 Frequencies --   1483.3475              1486.6977              1496.8347
 Red. masses --      1.0798                 1.0477                 1.0688
 Frc consts  --      1.3999                 1.3643                 1.4109
 IR Inten    --      1.7039                 2.4681                 2.4864

                     52                     53                     54
                      A                      A                      A
 Frequencies --   1500.2897              1507.9621              1649.1855
 Red. masses --      1.0456                 1.0557                 1.0877
 Frc consts  --      1.3866                 1.4144                 1.7429
 IR Inten    --      5.2495                 3.7728                22.5039

                     55                     56                     57
                      A                      A                      A
 Frequencies --   1657.0844              2369.9160              2997.5260
 Red. masses --      1.0939                11.8974                 1.0634
 Frc consts  --      1.7697                39.3702                 5.6295
 IR Inten    --     18.0044                 5.6972                10.1480

                     58                     59                     60
                      A                      A                      A
 Frequencies --   3001.7646              3002.9490              3026.0449
 Red. masses --      1.0647                 1.0822                 1.0763
 Frc consts  --      5.6525                 5.7499                 5.8065
 IR Inten    --     35.7024                15.7856                23.8684

                     61                     62                     63
                      A                      A                      A
 Frequencies --   3026.5942              3030.3988              3037.9711
 Red. masses --      1.0361                 1.0404                 1.0952
 Frc consts  --      5.5921                 5.6293                 5.9552
 IR Inten    --     25.3521                33.0708                 3.6087

                     64                     65                     66
                      A                      A                      A
 Frequencies --   3051.3971              3095.9285              3100.0851
 Red. masses --      1.0972                 1.1013                 1.1016
 Frc consts  --      6.0193                 6.2195                 6.2379
 IR Inten    --     44.3063                44.2870                36.9437

                     67                     68                     69
                      A                      A                      A
 Frequencies --   3103.7547              3111.2561              3469.0292
 Red. masses --      1.1004                 1.1021                 1.0486
 Frc consts  --      6.2454                 6.2856                 7.4352
 IR Inten    --     31.5142                26.4790                 3.2229

                     70                     71                     72
                      A                      A                      A
 Frequencies --   3476.8019              3552.7366              3568.2488
 Red. masses --      1.0507                 1.0922                 1.0900
 Frc consts  --      7.4831                 8.1221                 8.1769
 IR Inten    --      0.6964                 0.4402                 0.2650

 - Thermochemistry -
 -------------------
 Temperature   298.150 Kelvin.  Pressure   1.00000 Atm.
 Atom     1 has atomic number  6 and mass  12.00000

 Molecular mass:   140.13135 amu.
 Principal axes and moments of inertia in atomic units:
                           1         2         3
     Eigenvalues --   505.869044345.499744549.12016
           X            0.99997   0.00705   0.00412
           Y           -0.00699   0.99987  -0.01443
           Z           -0.00422   0.01440   0.99989
 This molecule is an asymmetric top.
 Rotational symmetry number  1.
 Warning -- assumption of classical behavior for rotation
           may cause significant error
 Rotational temperatures (Kelvin)      0.17122     0.01993     0.01904
 Rotational constants (GHZ):           3.56761     0.41531     0.39672
 Zero-point vibrational energy     610684.3 (Joules/Mol)
                                  145.95706 (Kcal/Mol)
 Warning -- explicit consideration of  19 degrees of freedom as
           vibrations may cause significant error
 Vibrational temperatures:      8.85    65.40    86.86   150.42   181.31
          (Kelvin)            233.26   319.89   324.98   361.96   377.18
                              392.20   452.54   476.48   553.12   578.39
                              641.97   768.48   773.94   795.14  1048.09
                             1116.83  1191.91  1243.29  1275.91  1301.65
                             1329.29  1402.31  1449.62  1456.93  1528.05
                             1551.29  1569.83  1595.75  1664.24  1686.70
                             1722.64  1748.36  1822.23  1857.32  1919.95
                             1928.16  1954.11  1983.51  2012.54  2019.91
                             2025.23  2041.89  2107.57  2134.21  2139.03
                             2153.61  2158.58  2169.62  2372.81  2384.17
                             3409.78  4312.77  4318.87  4320.57  4353.80
                             4354.59  4360.07  4370.96  4390.28  4454.35
                             4460.33  4465.61  4476.40  4991.16  5002.34
                             5111.60  5133.91

 Zero-point correction=                           0.232597 (Hartree/Particle)
 Thermal correction to Energy=                    0.245673
 Thermal correction to Enthalpy=                  0.246617
 Thermal correction to Gibbs Free Energy=         0.191082
 Sum of electronic and zero-point Energies=           -423.723235
 Sum of electronic and thermal Energies=              -423.710160
 Sum of electronic and thermal Enthalpies=            -423.709216
 Sum of electronic and thermal Free Energies=         -423.764750

                     E (Thermal)             CV                S
                      KCal/Mol        Cal/Mol-Kelvin    Cal/Mol-Kelvin
 Total                  154.162             46.630            116.882
 Electronic               0.000              0.000              0.000
 Translational            0.889              2.981             40.724
 Rotational               0.889              2.981             30.681
 Vibrational            152.384             40.668             45.477
 Vibration     1          0.593              1.987              8.977
 Vibration     2          0.595              1.979              5.006
 Vibration     3          0.597              1.973              4.445
 Vibration     4          0.605              1.946              3.368
 Vibration     5          0.611              1.927              3.006
 Vibration     6          0.622              1.889              2.525
 Vibration     7          0.648              1.807              1.940
 Vibration     8          0.650              1.802              1.912
 Vibration     9          0.664              1.760              1.720
 Vibration    10          0.669              1.742              1.647
 Vibration    11          0.676              1.724              1.580
 Vibration    12          0.702              1.646              1.338
 Vibration    13          0.714              1.613              1.254
 Vibration    14          0.753              1.503              1.022
 Vibration    15          0.768              1.466              0.955
 Vibration    16          0.805              1.369              0.807
 Vibration    17          0.889              1.175              0.578
 Vibration    18          0.893              1.166              0.570
 Vibration    19          0.908              1.134              0.539

 Optimization completed.
    -- Stationary point found.
 Normal termination of Gaussian 16 at Wed Aug  3 04:02:54 2022.
