 Gaussian 16, Revision A.03,
 Gaussian 16:  ES64L-G16RevA.03 25-Dec-2016

 -----------------------------
 # opt freq b3lyp/6-31g(2df,p)
 -----------------------------

 -------------------
 Title Card Required
 -------------------
 Symbolic Z-matrix:
 Charge =  0 Multiplicity = 1

 SCF Done:  E(RB3LYP) =  -461.527345003     A.U. after   13 cycles
 SCF Done:  E(RB3LYP) =  -461.532717129     A.U. after   13 cycles
 SCF Done:  E(RB3LYP) =  -461.528283072     A.U. after   13 cycles
 SCF Done:  E(RB3LYP) =  -461.533878556     A.U. after   12 cycles
 SCF Done:  E(RB3LYP) =  -461.534111908     A.U. after   12 cycles
 SCF Done:  E(RB3LYP) =  -461.534187570     A.U. after   11 cycles
 SCF Done:  E(RB3LYP) =  -461.534199561     A.U. after   10 cycles
 SCF Done:  E(RB3LYP) =  -461.534202600     A.U. after    8 cycles
 SCF Done:  E(RB3LYP) =  -461.534203261     A.U. after    7 cycles
 SCF Done:  E(RB3LYP) =  -461.534203610     A.U. after    7 cycles
 SCF Done:  E(RB3LYP) =  -461.534203674     A.U. after    7 cycles
 Optimization completed.
    -- Stationary point found.
 Normal termination of Gaussian 16 at Wed Aug  3 23:55:05 2022.

 ----------------------------------------------------------------------
 #N Geom=AllCheck Guess=TCheck SCRF=Check GenChk RB3LYP/6-31G(2df,p) Fr
 eq
 ----------------------------------------------------------------------

 Structure from the checkpoint file:  "CCCpCdOpOCCO.chk"
 -------------------
 Title Card Required
 -------------------
 Charge =  0 Multiplicity = 1

                         Standard orientation:
 ---------------------------------------------------------------------
 Center     Atomic      Atomic             Coordinates (Angstroms)
 Number     Number       Type             X           Y           Z
 ---------------------------------------------------------------------
      1          6           0        3.251304   -0.965366    0.354256
      2          6           0        1.880352   -1.146732   -0.300311
      3          6           0        0.832980   -0.123424    0.171258
      4          6           0        1.169350    1.248545   -0.404758
      5          8           0        1.906528    2.049926    0.107299
      6          8           0       -0.428902   -0.554556   -0.298311
      7          6           0       -1.528098    0.113065    0.293084
      8          6           0       -2.807162   -0.456907   -0.314509
      9          8           0       -3.960399    0.174129    0.210677
     10          1           0        3.963351   -1.694461   -0.042482
     11          1           0        3.192956   -1.109491    1.438203
     12          1           0        3.654659    0.035335    0.177037
     13          1           0        1.469019   -2.136429   -0.075350
     14          1           0        1.962236   -1.088450   -1.392977
     15          1           0        0.847068   -0.056513    1.270515
     16          1           0        0.689909    1.430236   -1.395882
     17          1           0       -1.491575    1.199294    0.117248
     18          1           0       -1.525978   -0.040247    1.386703
     19          1           0       -2.823069   -1.547192   -0.171872
     20          1           0       -2.811729   -0.267704   -1.392039
     21          1           0       -4.057022   -0.095464    1.129450
 ---------------------------------------------------------------------

 SCF Done:  E(RB3LYP) =  -461.534203674     A.U. after    1 cycles

 The electronic state is 1-A.
 Alpha  occ. eigenvalues --  -19.15664 -19.14773 -19.14428 -10.27320 -10.24576
 Alpha  occ. eigenvalues --  -10.23768 -10.23378 -10.19652 -10.18081  -1.05890
 Alpha  occ. eigenvalues --   -1.04657  -1.02449  -0.80534  -0.74596  -0.69371
 Alpha  occ. eigenvalues --   -0.63430  -0.61581  -0.57933  -0.52634  -0.50697
 Alpha  occ. eigenvalues --   -0.48641  -0.46444  -0.45905  -0.44475  -0.42614
 Alpha  occ. eigenvalues --   -0.41344  -0.40121  -0.38313  -0.37176  -0.36186
 Alpha  occ. eigenvalues --   -0.35291  -0.33259  -0.33037  -0.28892  -0.27768
 Alpha  occ. eigenvalues --   -0.24635
 Alpha virt. eigenvalues --   -0.03241   0.06298   0.08900   0.10204   0.11499
 Alpha virt. eigenvalues --    0.13553   0.14086   0.14899   0.15536   0.16212
 Alpha virt. eigenvalues --    0.16893   0.17726   0.18114   0.19429   0.20528

 Mulliken charges:
               1
     1  C   -0.390243
     2  C   -0.211117
     3  C    0.060439
     4  C    0.133674
     5  O   -0.240035
     6  O   -0.259524
     7  C   -0.082772
     8  C   -0.082066
     9  O   -0.411367
    10  H    0.118549
    11  H    0.120312
    12  H    0.142500
    13  H    0.115216
    14  H    0.110076
    15  H    0.086828
    16  H    0.087280
    17  H    0.107480
    18  H    0.082960
    19  H    0.100785
    20  H    0.124211
    21  H    0.286814
 Sum of Mulliken charges =   0.00000

 Dipole moment (field-independent basis, Debye):
    X=             -0.3553    Y=             -2.1739    Z=              0.8534  Tot=              2.3623
 Quadrupole moment (field-independent basis, Debye-Ang):
   XX=            -60.3428   YY=            -59.6363   ZZ=            -51.2365
   XY=             -2.7118   XZ=             -5.7986   YZ=             -2.1223

  Exact polarizability:  90.108  -0.484  72.247   1.362  -0.045  67.739
 Approx polarizability: 107.456   3.994 106.416   3.531   3.233 103.699

                      1                      2                      3
                      A                      A                      A
 Frequencies --     48.5197                61.5499                81.9478
 Red. masses --      5.1458                 1.9326                 4.0735
 Frc consts  --      0.0071                 0.0043                 0.0161
 IR Inten    --      0.2561                 2.5241                 5.3935

                      4                      5                      6
                      A                      A                      A
 Frequencies --     95.5207               119.9536               157.7920
 Red. masses --      2.0662                 3.6625                 2.4770
 Frc consts  --      0.0111                 0.0310                 0.0363
 IR Inten    --      4.6294                 1.0437                 3.6124

                      7                      8                      9
                      A                      A                      A
 Frequencies --    218.6383               244.1968               286.8727
 Red. masses --      1.4932                 2.0826                 2.7230
 Frc consts  --      0.0421                 0.0732                 0.1320
 IR Inten    --      0.3400                 0.9036                 2.8264

                     10                     11                     12
                      A                      A                      A
 Frequencies --    304.3153               331.2188               373.0314
 Red. masses --      1.1576                 4.0387                 3.0217
 Frc consts  --      0.0632                 0.2611                 0.2477
 IR Inten    --    105.7322                18.6536                21.5507

                     13                     14                     15
                      A                      A                      A
 Frequencies --    417.1244               487.2028               600.6836
 Red. masses --      3.5918                 4.2420                 6.0050
 Frc consts  --      0.3682                 0.5933                 1.2766
 IR Inten    --      0.4506                 5.1919                 1.0288

                     16                     17                     18
                      A                      A                      A
 Frequencies --    782.8343               813.7012               881.6277
 Red. masses --      1.1866                 1.1000                 2.0140
 Frc consts  --      0.4284                 0.4291                 0.9223
 IR Inten    --     11.0441                 1.3850                 2.1108

                     19                     20                     21
                      A                      A                      A
 Frequencies --    952.0348               986.8589              1019.6213
 Red. masses --      1.4452                 2.1614                 3.7336
 Frc consts  --      0.7718                 1.2402                 2.2870
 IR Inten    --      5.9043                14.0152                11.0473

                     22                     23                     24
                      A                      A                      A
 Frequencies --   1052.9321              1076.4487              1085.4438
 Red. masses --      2.2176                 2.9748                 3.1152
 Frc consts  --      1.4486                 2.0309                 2.1625
 IR Inten    --     28.1615                12.8957                86.0917

                     25                     26                     27
                      A                      A                      A
 Frequencies --   1108.9207              1139.6622              1156.2782
 Red. masses --      1.8818                 3.2369                 3.2589
 Frc consts  --      1.3634                 2.4770                 2.5671
 IR Inten    --      2.6280               105.5957               101.2141

                     28                     29                     30
                      A                      A                      A
 Frequencies --   1168.3155              1214.1062              1258.3944
 Red. masses --      2.3216                 1.2467                 1.3236
 Frc consts  --      1.8671                 1.0828                 1.2349
 IR Inten    --     23.5078                10.9448                 0.7022

                     31                     32                     33
                      A                      A                      A
 Frequencies --   1302.1363              1311.6380              1328.4454
 Red. masses --      1.1351                 1.1889                 1.3001
 Frc consts  --      1.1340                 1.2051                 1.3518
 IR Inten    --      3.0892                23.5142                14.6539

                     34                     35                     36
                      A                      A                      A
 Frequencies --   1351.2008              1364.5216              1397.6216
 Red. masses --      1.3213                 1.3246                 1.2332
 Frc consts  --      1.4214                 1.4531                 1.4193
 IR Inten    --      6.3258                 2.7363                44.0485

                     37                     38                     39
                      A                      A                      A
 Frequencies --   1404.5593              1419.8784              1441.3420
 Red. masses --      1.2521                 1.2291                 1.4480
 Frc consts  --      1.4554                 1.4600                 1.7724
 IR Inten    --      9.6735                 2.1652                 2.6027

                     40                     41                     42
                      A                      A                      A
 Frequencies --   1490.8608              1499.2556              1507.7142
 Red. masses --      1.0600                 1.0384                 1.0815
 Frc consts  --      1.3881                 1.3752                 1.4485
 IR Inten    --      0.5175                 5.6587                 0.6156

                     43                     44                     45
                      A                      A                      A
 Frequencies --   1508.9364              1524.3146              1833.2694
 Red. masses --      1.0710                 1.0867                10.6307
 Frc consts  --      1.4367                 1.4877                21.0506
 IR Inten    --      3.7105                 3.0929               128.3793

                     46                     47                     48
                      A                      A                      A
 Frequencies --   2859.4255              2951.1892              2987.4496
 Red. masses --      1.0828                 1.0626                 1.0830
 Frc consts  --      5.2164                 5.4529                 5.6951
 IR Inten    --     85.7071                46.3634                30.9390

                     49                     50                     51
                      A                      A                      A
 Frequencies --   2996.2867              3010.8869              3032.5173
 Red. masses --      1.0839                 1.0795                 1.0621
 Frc consts  --      5.7334                 5.7656                 5.7545
 IR Inten    --      3.9646                74.7595                20.4059

                     52                     53                     54
                      A                      A                      A
 Frequencies --   3042.0922              3074.5441              3091.9788
 Red. masses --      1.0365                 1.0995                 1.0968
 Frc consts  --      5.6516                 6.1236                 6.1779
 IR Inten    --     26.0228                 8.8973                29.7022

                     55                     56                     57
                      A                      A                      A
 Frequencies --   3108.8853              3122.5570              3818.3346
 Red. masses --      1.1013                 1.1015                 1.0663
 Frc consts  --      6.2715                 6.3277                 9.1594
 IR Inten    --     32.1041                18.4736                20.0276

 - Thermochemistry -
 -------------------
 Temperature   298.150 Kelvin.  Pressure   1.00000 Atm.
 Atom     1 has atomic number  6 and mass  12.00000

 Molecular mass:   132.07864 amu.
 Principal axes and moments of inertia in atomic units:
                           1         2         3
     Eigenvalues --   567.720452624.716373033.11058
           X            0.99983  -0.01859   0.00002
           Y            0.01859   0.99976  -0.01155
           Z            0.00020   0.01155   0.99993
 This molecule is an asymmetric top.
 Rotational symmetry number  1.
 Warning -- assumption of classical behavior for rotation
           may cause significant error
 Rotational temperatures (Kelvin)      0.15256     0.03300     0.02856
 Rotational constants (GHZ):           3.17893     0.68759     0.59501
 Zero-point vibrational energy     468383.4 (Joules/Mol)
                                  111.94632 (Kcal/Mol)
 Warning -- explicit consideration of  15 degrees of freedom as
           vibrations may cause significant error
 Vibrational temperatures:     69.81    88.56   117.90   137.43   172.59
          (Kelvin)            227.03   314.57   351.34   412.75   437.84
                              476.55   536.71   600.15   700.98   864.25
                             1126.32  1170.73  1268.47  1369.77  1419.87
                             1467.01  1514.93  1548.77  1561.71  1595.49
                             1639.72  1663.63  1680.95  1746.83  1810.55
                             1873.48  1887.15  1911.34  1944.08  1963.24
                             2010.87  2020.85  2042.89  2073.77  2145.02
                             2157.09  2169.26  2171.02  2193.15  2637.67
                             4114.08  4246.10  4298.27  4310.99  4331.99
                             4363.12  4376.89  4423.58  4448.67  4472.99
                             4492.66  5493.73

 Zero-point correction=                           0.178398 (Hartree/Particle)
 Thermal correction to Energy=                    0.189636
 Thermal correction to Enthalpy=                  0.190580
 Thermal correction to Gibbs Free Energy=         0.140508
 Sum of electronic and zero-point Energies=           -461.355806
 Sum of electronic and thermal Energies=              -461.344568
 Sum of electronic and thermal Enthalpies=            -461.343623
 Sum of electronic and thermal Free Energies=         -461.393695

                     E (Thermal)             CV                S
                      KCal/Mol        Cal/Mol-Kelvin    Cal/Mol-Kelvin
 Total                  118.998             38.223            105.385
 Electronic               0.000              0.000              0.000
 Translational            0.889              2.981             40.547
 Rotational               0.889              2.981             29.892
 Vibrational            117.221             32.261             34.945
 Vibration     1          0.595              1.978              4.877
 Vibration     2          0.597              1.973              4.407
 Vibration     3          0.600              1.962              3.844
 Vibration     4          0.603              1.952              3.544
 Vibration     5          0.609              1.933              3.101
 Vibration     6          0.621              1.894              2.576
 Vibration     7          0.646              1.813              1.970
 Vibration     8          0.660              1.772              1.772
 Vibration     9          0.684              1.698              1.492
 Vibration    10          0.695              1.666              1.393
 Vibration    11          0.714              1.613              1.254
 Vibration    12          0.744              1.527              1.067
 Vibration    13          0.780              1.433              0.902
 Vibration    14          0.843              1.278              0.691
 Vibration    15          0.959              1.030              0.448

 Optimization completed.
    -- Stationary point found.
 Normal termination of Gaussian 16 at Thu Aug  4 00:23:05 2022.
