 Gaussian 16, Revision A.03,
 Gaussian 16:  ES64L-G16RevA.03 25-Dec-2016

 -----------------------------
 # opt freq b3lyp/6-31g(2df,p)
 -----------------------------

 -------------------
 Title Card Required
 -------------------
 Symbolic Z-matrix:
 Charge =  0 Multiplicity = 1

 SCF Done:  E(RB3LYP) =  -405.724274333     A.U. after   13 cycles
 SCF Done:  E(RB3LYP) =  -405.730634823     A.U. after   11 cycles
 SCF Done:  E(RB3LYP) =  -405.732524125     A.U. after   11 cycles
 SCF Done:  E(RB3LYP) =  -405.733749119     A.U. after   11 cycles
 SCF Done:  E(RB3LYP) =  -405.734492419     A.U. after   11 cycles
 SCF Done:  E(RB3LYP) =  -405.734697018     A.U. after   11 cycles
 SCF Done:  E(RB3LYP) =  -405.734791980     A.U. after   10 cycles
 SCF Done:  E(RB3LYP) =  -405.734822765     A.U. after    9 cycles
 SCF Done:  E(RB3LYP) =  -405.734833635     A.U. after    9 cycles
 SCF Done:  E(RB3LYP) =  -405.734838199     A.U. after    9 cycles
 SCF Done:  E(RB3LYP) =  -405.734839180     A.U. after    7 cycles
 SCF Done:  E(RB3LYP) =  -405.734839342     A.U. after    7 cycles
 SCF Done:  E(RB3LYP) =  -405.734839385     A.U. after    6 cycles
 Optimization completed.
    -- Stationary point found.
 Normal termination of Gaussian 16 at Sun Jul  3 14:21:13 2022.

 ----------------------------------------------------------------------
 #N Geom=AllCheck Guess=TCheck SCRF=Check GenChk RB3LYP/6-31G(2df,p) Fr
 eq
 ----------------------------------------------------------------------

 Structure from the checkpoint file:  "CCCpCppCNpC1CO1.chk"
 -------------------
 Title Card Required
 -------------------
 Charge =  0 Multiplicity = 1

                         Standard orientation:
 ---------------------------------------------------------------------
 Center     Atomic      Atomic             Coordinates (Angstroms)
 Number     Number       Type             X           Y           Z
 ---------------------------------------------------------------------
      1          6           0       -2.201939    1.565600   -0.036992
      2          6           0       -0.806567    1.264119   -0.597238
      3          6           0       -0.051084    0.039135   -0.013786
      4          6           0       -0.008712    0.074728    1.521339
      5          6           0       -0.630401   -1.314680   -0.506949
      6          7           0       -1.964803   -1.628115    0.021421
      7          6           0        1.358558    0.096297   -0.605329
      8          6           0        2.538370    0.668185    0.054760
      9          8           0        2.368511   -0.749453   -0.047893
     10          1           0       -2.631545    2.430597   -0.553479
     11          1           0       -2.161935    1.811794    1.029050
     12          1           0       -2.868777    0.711039   -0.158346
     13          1           0       -0.169387    2.146834   -0.447045
     14          1           0       -0.879890    1.132406   -1.685372
     15          1           0       -0.996256   -0.123994    1.943965
     16          1           0        0.302857    1.057200    1.890137
     17          1           0        0.693153   -0.673078    1.902667
     18          1           0        0.115222   -2.094073   -0.280865
     19          1           0       -0.715010   -1.270178   -1.599835
     20          1           0       -1.890590   -1.947220    0.982358
     21          1           0       -2.353538   -2.409276   -0.497558
     22          1           0        1.365690    0.102972   -1.698869
     23          1           0        2.463557    1.071750    1.061709
     24          1           0        3.342637    1.085361   -0.550143
 ---------------------------------------------------------------------

 SCF Done:  E(RB3LYP) =  -405.734839385     A.U. after    1 cycles

 The electronic state is 1-A.
 Alpha  occ. eigenvalues --  -19.14626 -14.30889 -10.23073 -10.22883 -10.20126
 Alpha  occ. eigenvalues --  -10.19319 -10.17541 -10.16936 -10.15875  -1.06504
 Alpha  occ. eigenvalues --   -0.88022  -0.80380  -0.72307  -0.68069  -0.66653
 Alpha  occ. eigenvalues --   -0.62563  -0.60054  -0.53403  -0.50332  -0.48496
 Alpha  occ. eigenvalues --   -0.47776  -0.44695  -0.43167  -0.41679  -0.40157
 Alpha  occ. eigenvalues --   -0.39193  -0.37837  -0.37291  -0.36177  -0.34415
 Alpha  occ. eigenvalues --   -0.32706  -0.32527  -0.31290  -0.29532  -0.26113
 Alpha  occ. eigenvalues --   -0.23252
 Alpha virt. eigenvalues --    0.07228   0.09770   0.10969   0.11596   0.11643
 Alpha virt. eigenvalues --    0.12660   0.14231   0.14840   0.15523   0.16769
 Alpha virt. eigenvalues --    0.17494   0.18010   0.19322   0.20188   0.20585

 Mulliken charges:
               1
     1  C   -0.398640
     2  C   -0.187426
     3  C    0.241999
     4  C   -0.454708
     5  C   -0.176464
     6  N   -0.517824
     7  C    0.088824
     8  C   -0.196231
     9  O   -0.251855
    10  H    0.100312
    11  H    0.107716
    12  H    0.145646
    13  H    0.088714
    14  H    0.087546
    15  H    0.120998
    16  H    0.111739
    17  H    0.127385
    18  H    0.101165
    19  H    0.094632
    20  H    0.228481
    21  H    0.228096
    22  H    0.084013
    23  H    0.114077
    24  H    0.111804
 Sum of Mulliken charges =  -0.00000

 Dipole moment (field-independent basis, Debye):
    X=             -0.3825    Y=              0.1450    Z=             -0.1265  Tot=              0.4282
 Quadrupole moment (field-independent basis, Debye-Ang):
   XX=            -61.2444   YY=            -54.1930   ZZ=            -54.6757
   XY=              7.2881   XZ=             -0.3516   YZ=              0.0791

  Exact polarizability:  94.703   3.824  81.562   0.958   0.894  78.264
 Approx polarizability: 123.086   3.681 118.515   3.336   1.397 117.657

                      1                      2                      3
                      A                      A                      A
 Frequencies --     73.8138                85.7429               126.8404
 Red. masses --      2.6208                 2.5025                 2.3230
 Frc consts  --      0.0084                 0.0108                 0.0220
 IR Inten    --      0.7026                 4.0103                 2.9621

                      4                      5                      6
                      A                      A                      A
 Frequencies --    181.0869               217.1045               223.5071
 Red. masses --      3.3456                 1.8684                 1.3469
 Frc consts  --      0.0646                 0.0519                 0.0396
 IR Inten    --      4.5731                13.2481                19.4667

                      7                      8                      9
                      A                      A                      A
 Frequencies --    230.3930               279.1226               296.1883
 Red. masses --      1.2147                 1.4730                 2.7998
 Frc consts  --      0.0380                 0.0676                 0.1447
 IR Inten    --      3.5274                 3.7492                 1.6938

                     10                     11                     12
                      A                      A                      A
 Frequencies --    329.4649               353.8707               391.1906
 Red. masses --      1.5772                 2.3319                 2.9423
 Frc consts  --      0.1009                 0.1720                 0.2653
 IR Inten    --      2.0102                 1.3873                 0.9733

                     13                     14                     15
                      A                      A                      A
 Frequencies --    407.9882               477.4945               583.1130
 Red. masses --      2.9841                 3.0298                 2.4002
 Frc consts  --      0.2927                 0.4070                 0.4808
 IR Inten    --      6.5363                 2.7753                10.5878

                     16                     17                     18
                      A                      A                      A
 Frequencies --    709.1428               780.7403               831.2119
 Red. masses --      2.7613                 1.2808                 2.4538
 Frc consts  --      0.8181                 0.4600                 0.9989
 IR Inten    --      4.6803                 2.7492                 8.2219

                     19                     20                     21
                      A                      A                      A
 Frequencies --    856.6072               865.7940               898.9333
 Red. masses --      1.4022                 3.1659                 2.0013
 Frc consts  --      0.6062                 1.3982                 0.9529
 IR Inten    --     82.4534                10.7234                18.7395

                     22                     23                     24
                      A                      A                      A
 Frequencies --    950.0229               965.1168               991.7545
 Red. masses --      2.3480                 1.7380                 1.4000
 Frc consts  --      1.2486                 0.9538                 0.8113
 IR Inten    --     21.7615                11.8354                17.6499

                     25                     26                     27
                      A                      A                      A
 Frequencies --   1021.4815              1064.9374              1074.2998
 Red. masses --      1.8244                 1.9344                 1.9501
 Frc consts  --      1.1216                 1.2926                 1.3261
 IR Inten    --      2.1976                 2.7138                17.3032

                     28                     29                     30
                      A                      A                      A
 Frequencies --   1089.4872              1103.1103              1141.6923
 Red. masses --      1.7106                 1.3122                 1.4107
 Frc consts  --      1.1963                 0.9407                 1.0833
 IR Inten    --      2.0296                 0.7813                 3.1137

                     31                     32                     33
                      A                      A                      A
 Frequencies --   1156.4201              1179.7624              1185.9430
 Red. masses --      1.4912                 1.4952                 1.7644
 Frc consts  --      1.1750                 1.2262                 1.4621
 IR Inten    --      1.1125                 1.4920                 3.5069

                     34                     35                     36
                      A                      A                      A
 Frequencies --   1231.6214              1272.2258              1306.2798
 Red. masses --      2.3853                 2.0483                 1.4814
 Frc consts  --      2.1318                 1.9533                 1.4894
 IR Inten    --      0.2039                 0.8144                 3.1172

                     37                     38                     39
                      A                      A                      A
 Frequencies --   1335.8553              1357.7784              1375.7690
 Red. masses --      1.3440                 1.2974                 1.3529
 Frc consts  --      1.4131                 1.4093                 1.5087
 IR Inten    --      0.4439                 5.9025                 1.9119

                     40                     41                     42
                      A                      A                      A
 Frequencies --   1392.8478              1409.7048              1425.3925
 Red. masses --      1.3089                 1.2263                 1.5406
 Frc consts  --      1.4962                 1.4359                 1.8442
 IR Inten    --      7.2401                 5.5371                 8.9459

                     43                     44                     45
                      A                      A                      A
 Frequencies --   1442.9645              1483.0929              1493.0340
 Red. masses --      1.4159                 1.0756                 1.0439
 Frc consts  --      1.7369                 1.3939                 1.3711
 IR Inten    --      2.8035                 0.3631                 3.5965

                     46                     47                     48
                      A                      A                      A
 Frequencies --   1500.7192              1508.9230              1513.9826
 Red. masses --      1.0886                 1.0619                 1.1078
 Frc consts  --      1.4444                 1.4245                 1.4961
 IR Inten    --      5.8273                 7.1327                 7.7252

                     49                     50                     51
                      A                      A                      A
 Frequencies --   1519.8562              1532.3038              1660.7375
 Red. masses --      1.0559                 1.2626                 1.0856
 Frc consts  --      1.4371                 1.7466                 1.7641
 IR Inten    --      1.4171                 1.3234                25.4371

                     52                     53                     54
                      A                      A                      A
 Frequencies --   2967.8603              3001.5703              3032.4414
 Red. masses --      1.0684                 1.0596                 1.0957
 Frc consts  --      5.5446                 5.6243                 5.9364
 IR Inten    --     51.6797                31.5021                13.3504

                     55                     56                     57
                      A                      A                      A
 Frequencies --   3037.8284              3040.9139              3044.1112
 Red. masses --      1.0412                 1.0395                 1.0918
 Frc consts  --      5.6615                 5.6637                 5.9608
 IR Inten    --     24.5717                36.3604                20.7369

                     58                     59                     60
                      A                      A                      A
 Frequencies --   3067.9977              3089.8311              3095.0676
 Red. masses --      1.0845                 1.0546                 1.1003
 Frc consts  --      6.0142                 5.9322                 6.2099
 IR Inten    --     42.2307                22.7984                44.3465

                     61                     62                     63
                      A                      A                      A
 Frequencies --   3104.6441              3122.3661              3145.2715
 Red. masses --      1.0991                 1.1007                 1.0989
 Frc consts  --      6.2421                 6.3227                 6.4053
 IR Inten    --     29.3557                16.9223                 7.9938

                     64                     65                     66
                      A                      A                      A
 Frequencies --   3177.3251              3497.2854              3570.5700
 Red. masses --      1.1172                 1.0496                 1.0919
 Frc consts  --      6.6453                 7.5640                 8.2018
 IR Inten    --     23.5851                 0.2170                 0.4277

 - Thermochemistry -
 -------------------
 Temperature   298.150 Kelvin.  Pressure   1.00000 Atm.
 Atom     1 has atomic number  6 and mass  12.00000

 Molecular mass:   129.11536 amu.
 Principal axes and moments of inertia in atomic units:
                           1         2         3
     Eigenvalues --   784.347911530.125881861.86290
           X            0.99993   0.01199   0.00008
           Y           -0.01199   0.99992   0.00340
           Z           -0.00004  -0.00340   0.99999
 This molecule is an asymmetric top.
 Rotational symmetry number  1.
 Warning -- assumption of classical behavior for rotation
           may cause significant error
 Rotational temperatures (Kelvin)      0.11043     0.05661     0.04652
 Rotational constants (GHZ):           2.30094     1.17947     0.96932
 Zero-point vibrational energy     567517.7 (Joules/Mol)
                                  135.63999 (Kcal/Mol)
 Warning -- explicit consideration of  15 degrees of freedom as
           vibrations may cause significant error
 Vibrational temperatures:    106.20   123.36   182.50   260.54   312.37
          (Kelvin)            321.58   331.48   401.60   426.15   474.03
                              509.14   562.84   587.00   687.01   838.97
                             1020.30  1123.31  1195.93  1232.47  1245.68
                             1293.36  1366.87  1388.59  1426.91  1469.68
                             1532.21  1545.68  1567.53  1587.13  1642.64
                             1663.83  1697.41  1706.31  1772.03  1830.45
                             1879.45  1922.00  1953.54  1979.42  2004.00
                             2028.25  2050.82  2076.10  2133.84  2148.14
                             2159.20  2171.00  2178.28  2186.73  2204.64
                             2389.43  4270.09  4318.59  4363.01  4370.76
                             4375.20  4379.80  4414.16  4445.58  4453.11
                             4466.89  4492.39  4525.34  4571.46  5031.81
                             5137.25

 Zero-point correction=                           0.216156 (Hartree/Particle)
 Thermal correction to Energy=                    0.226944
 Thermal correction to Enthalpy=                  0.227888
 Thermal correction to Gibbs Free Energy=         0.180644
 Sum of electronic and zero-point Energies=           -405.518683
 Sum of electronic and thermal Energies=              -405.507896
 Sum of electronic and thermal Enthalpies=            -405.506952
 Sum of electronic and thermal Free Energies=         -405.554196

                     E (Thermal)             CV                S
                      KCal/Mol        Cal/Mol-Kelvin    Cal/Mol-Kelvin
 Total                  142.409             40.191             99.434
 Electronic               0.000              0.000              0.000
 Translational            0.889              2.981             40.480
 Rotational               0.889              2.981             29.192
 Vibrational            140.632             34.229             29.762
 Vibration     1          0.599              1.966              4.049
 Vibration     2          0.601              1.959              3.755
 Vibration     3          0.611              1.926              2.993
 Vibration     4          0.630              1.865              2.317
 Vibration     5          0.646              1.815              1.983
 Vibration     6          0.649              1.805              1.930
 Vibration     7          0.652              1.795              1.876
 Vibration     8          0.679              1.712              1.539
 Vibration     9          0.690              1.681              1.438
 Vibration    10          0.712              1.617              1.263
 Vibration    11          0.730              1.567              1.149
 Vibration    12          0.759              1.489              0.996
 Vibration    13          0.773              1.453              0.934
 Vibration    14          0.834              1.300              0.717
 Vibration    15          0.940              1.068              0.480

 Optimization completed.
    -- Stationary point found.
 Normal termination of Gaussian 16 at Sun Jul  3 15:05:33 2022.
