 Gaussian 16, Revision A.03,
 Gaussian 16:  ES64L-G16RevA.03 25-Dec-2016

 -----------------------------
 # opt freq b3lyp/6-31g(2df,p)
 -----------------------------

 -------------------
 Title Card Required
 -------------------
 Symbolic Z-matrix:
 Charge =  0 Multiplicity = 1

 SCF Done:  E(RB3LYP) =  -421.790264583     A.U. after   13 cycles
 SCF Done:  E(RB3LYP) =  -421.794237285     A.U. after   13 cycles
 SCF Done:  E(RB3LYP) =  -421.796858341     A.U. after   12 cycles
 SCF Done:  E(RB3LYP) =  -421.800142795     A.U. after   12 cycles
 SCF Done:  E(RB3LYP) =  -421.802944745     A.U. after   12 cycles
 SCF Done:  E(RB3LYP) =  -421.803482541     A.U. after   13 cycles
 SCF Done:  E(RB3LYP) =  -421.804158375     A.U. after   11 cycles
 SCF Done:  E(RB3LYP) =  -421.804261185     A.U. after   10 cycles
 SCF Done:  E(RB3LYP) =  -421.804327344     A.U. after    9 cycles
 SCF Done:  E(RB3LYP) =  -421.804335340     A.U. after    9 cycles
 SCF Done:  E(RB3LYP) =  -421.804337828     A.U. after    8 cycles
 SCF Done:  E(RB3LYP) =  -421.804338207     A.U. after    7 cycles
 SCF Done:  E(RB3LYP) =  -421.804338327     A.U. after    7 cycles
 Optimization completed.
    -- Stationary point found.
 Normal termination of Gaussian 16 at Thu Aug  4 00:01:33 2022.

 ----------------------------------------------------------------------
 #N Geom=AllCheck Guess=TCheck SCRF=Check GenChk RB3LYP/6-31G(2df,p) Fr
 eq
 ----------------------------------------------------------------------

 Structure from the checkpoint file:  "CCCpOpCCpNpCdN.chk"
 -------------------
 Title Card Required
 -------------------
 Charge =  0 Multiplicity = 1

                         Standard orientation:
 ---------------------------------------------------------------------
 Center     Atomic      Atomic             Coordinates (Angstroms)
 Number     Number       Type             X           Y           Z
 ---------------------------------------------------------------------
      1          6           0        3.740753   -0.270273    0.199330
      2          6           0        2.404390   -0.775621   -0.349847
      3          6           0        1.191655   -0.036648    0.229566
      4          8           0        1.287584    1.373822   -0.007170
      5          6           0       -0.139487   -0.621494   -0.264563
      6          6           0       -1.395640    0.011330    0.377822
      7          7           0       -1.703471    1.381928   -0.028404
      8          6           0       -2.613912   -0.874981    0.157755
      9          7           0       -3.785656   -0.496167   -0.136272
     10          1           0        4.582073   -0.784438   -0.274253
     11          1           0        3.810059   -0.439585    1.279425
     12          1           0        3.850372    0.803395    0.026432
     13          1           0        2.293516   -1.847512   -0.145383
     14          1           0        2.384625   -0.673591   -1.445338
     15          1           0        1.219549   -0.119295    1.324772
     16          1           0        1.344452    1.503222   -0.961263
     17          1           0       -0.131101   -1.699225   -0.052403
     18          1           0       -0.203718   -0.525083   -1.359053
     19          1           0       -1.224547    0.031135    1.466543
     20          1           0       -1.795818    1.415979   -1.041692
     21          1           0       -0.907645    1.969601    0.201082
     22          1           0       -2.432474   -1.949678    0.277730
     23          1           0       -3.792682    0.530287   -0.186883
 ---------------------------------------------------------------------

 SCF Done:  E(RB3LYP) =  -421.804338327     A.U. after    1 cycles

 The electronic state is 1-A.
 Alpha  occ. eigenvalues --  -19.15161 -14.31283 -14.30314 -10.24268 -10.22127
 Alpha  occ. eigenvalues --  -10.21741 -10.19245 -10.19198 -10.17932  -1.03105
 Alpha  occ. eigenvalues --   -0.91094  -0.86591  -0.79696  -0.75239  -0.68452
 Alpha  occ. eigenvalues --   -0.62383  -0.60591  -0.56771  -0.51221  -0.48959
 Alpha  occ. eigenvalues --   -0.48093  -0.45755  -0.44296  -0.43184  -0.42319
 Alpha  occ. eigenvalues --   -0.39761  -0.38662  -0.37885  -0.36837  -0.36153
 Alpha  occ. eigenvalues --   -0.34766  -0.32700  -0.30170  -0.28774  -0.24926
 Alpha  occ. eigenvalues --   -0.24296
 Alpha virt. eigenvalues --    0.00778   0.05448   0.09115   0.10062   0.11319
 Alpha virt. eigenvalues --    0.11780   0.12906   0.13967   0.14978   0.16244
 Alpha virt. eigenvalues --    0.16969   0.17831   0.18217   0.18967   0.19949

 Mulliken charges:
               1
     1  C   -0.381912
     2  C   -0.192970
     3  C    0.126588
     4  O   -0.425075
     5  C   -0.222087
     6  C   -0.026012
     7  N   -0.524349
     8  C    0.060572
     9  N   -0.406769
    10  H    0.113090
    11  H    0.117357
    12  H    0.126790
    13  H    0.101870
    14  H    0.087689
    15  H    0.090438
    16  H    0.276603
    17  H    0.101209
    18  H    0.087142
    19  H    0.102153
    20  H    0.218407
    21  H    0.244064
    22  H    0.095273
    23  H    0.229928
 Sum of Mulliken charges =   0.00000

 Dipole moment (field-independent basis, Debye):
    X=              3.7052    Y=             -0.1944    Z=             -1.1903  Tot=              3.8966
 Quadrupole moment (field-independent basis, Debye-Ang):
   XX=            -73.6521   YY=            -56.9001   ZZ=            -53.2473
   XY=             -4.0854   XZ=             -1.3034   YZ=             -4.2713

  Exact polarizability: 105.973  -2.667  78.563   2.936  -2.493  67.767
 Approx polarizability: 129.868  -5.503 117.774   6.485  -4.624 108.195

                      1                      2                      3
                      A                      A                      A
 Frequencies --     60.9137                73.5846               106.6964
 Red. masses --      3.4240                 3.1979                 3.3839
 Frc consts  --      0.0075                 0.0102                 0.0227
 IR Inten    --      2.1375                 1.5925                 1.3412

                      4                      5                      6
                      A                      A                      A
 Frequencies --    130.7947               175.4347               221.6005
 Red. masses --      2.2467                 2.3599                 1.2462
 Frc consts  --      0.0226                 0.0428                 0.0361
 IR Inten    --      2.0446                 0.7544                 1.8343

                      7                      8                      9
                      A                      A                      A
 Frequencies --    282.6562               286.3980               304.0776
 Red. masses --      2.4508                 3.7322                 1.4738
 Frc consts  --      0.1154                 0.1804                 0.0803
 IR Inten    --     17.5413                 0.0969                33.2454

                     10                     11                     12
                      A                      A                      A
 Frequencies --    319.6957               335.1351               367.3094
 Red. masses --      1.8181                 3.1939                 1.2529
 Frc consts  --      0.1095                 0.2114                 0.0996
 IR Inten    --     12.3586                 2.0261               121.6827

                     13                     14                     15
                      A                      A                      A
 Frequencies --    455.3497               481.3846               535.9240
 Red. masses --      1.7288                 2.2666                 2.6955
 Frc consts  --      0.2112                 0.3095                 0.4561
 IR Inten    --      7.5095                 3.5703                18.2335

                     16                     17                     18
                      A                      A                      A
 Frequencies --    658.9678               777.4045               782.2017
 Red. masses --      2.7512                 1.3960                 2.1594
 Frc consts  --      0.7039                 0.4971                 0.7784
 IR Inten    --     29.7709                 1.0150                11.3264

                     19                     20                     21
                      A                      A                      A
 Frequencies --    846.1504               875.6057               912.0930
 Red. masses --      2.5987                 2.2398                 1.3795
 Frc consts  --      1.0962                 1.0118                 0.6762
 IR Inten    --      4.5665                19.4479               119.7006

                     22                     23                     24
                      A                      A                      A
 Frequencies --    937.0574               976.7665              1024.3713
 Red. masses --      2.1908                 2.1297                 1.5741
 Frc consts  --      1.1334                 1.1972                 0.9732
 IR Inten    --     13.4402                39.6882                14.8457

                     25                     26                     27
                      A                      A                      A
 Frequencies --   1030.7640              1080.8037              1097.9590
 Red. masses --      2.9511                 3.2705                 1.4615
 Frc consts  --      1.8474                 2.2509                 1.0381
 IR Inten    --     15.8918                 8.3291                14.1306

                     28                     29                     30
                      A                      A                      A
 Frequencies --   1127.4338              1144.5982              1159.4627
 Red. masses --      1.9130                 1.5534                 1.4710
 Frc consts  --      1.4327                 1.1991                 1.1651
 IR Inten    --     20.0388                24.3739                12.0843

                     31                     32                     33
                      A                      A                      A
 Frequencies --   1176.1122              1225.1297              1257.3930
 Red. masses --      1.1023                 1.4262                 1.3031
 Frc consts  --      0.8984                 1.2612                 1.2139
 IR Inten    --     33.2539                78.6531                 8.9881

                     34                     35                     36
                      A                      A                      A
 Frequencies --   1265.4780              1301.0044              1323.9105
 Red. masses --      1.2669                 1.3320                 1.3067
 Frc consts  --      1.1953                 1.3283                 1.3494
 IR Inten    --     47.1621                25.2500                 1.0625

                     37                     38                     39
                      A                      A                      A
 Frequencies --   1355.5994              1372.5673              1387.9620
 Red. masses --      1.3497                 1.3671                 1.5603
 Frc consts  --      1.4613                 1.5175                 1.7709
 IR Inten    --      2.2967                 7.6942                 1.3783

                     40                     41                     42
                      A                      A                      A
 Frequencies --   1406.5062              1408.2108              1421.2837
 Red. masses --      1.3563                 1.2864                 1.2020
 Frc consts  --      1.5808                 1.5030                 1.4306
 IR Inten    --      3.0708                 8.6043                29.0715

                     43                     44                     45
                      A                      A                      A
 Frequencies --   1434.9392              1466.2152              1483.6978
 Red. masses --      1.2401                 1.0982                 1.0804
 Frc consts  --      1.5044                 1.3911                 1.4012
 IR Inten    --     39.9346                 1.4022                 3.1968

                     46                     47                     48
                      A                      A                      A
 Frequencies --   1496.0427              1508.7440              1668.2859
 Red. masses --      1.0403                 1.0614                 1.1286
 Frc consts  --      1.3718                 1.4235                 1.8507
 IR Inten    --      5.0158                 4.5302                20.7580

                     49                     50                     51
                      A                      A                      A
 Frequencies --   1733.4041              2978.8137              2995.1932
 Red. masses --      6.8793                 1.0793                 1.0643
 Frc consts  --     12.1785                 5.6425                 5.6253
 IR Inten    --     55.9035                 8.8037                 4.9174

                     52                     53                     54
                      A                      A                      A
 Frequencies --   2999.1680              3022.0772              3039.0745
 Red. masses --      1.0685                 1.0808                 1.0425
 Frc consts  --      5.6625                 5.8159                 5.6730
 IR Inten    --     24.4181                33.1163                32.6607

                     55                     56                     57
                      A                      A                      A
 Frequencies --   3041.7728              3056.7041              3061.9521
 Red. masses --      1.0916                 1.0934                 1.0893
 Frc consts  --      5.9508                 6.0191                 6.0171
 IR Inten    --      7.1241                15.4219                77.6887

                     58                     59                     60
                      A                      A                      A
 Frequencies --   3104.4388              3122.8689              3386.9193
 Red. masses --      1.1007                 1.1012                 1.0713
 Frc consts  --      6.2499                 6.3276                 7.2405
 IR Inten    --     34.7921                23.4988                 3.1447

                     61                     62                     63
                      A                      A                      A
 Frequencies --   3476.8335              3565.2447              3787.7181
 Red. masses --      1.0520                 1.0885                 1.0657
 Frc consts  --      7.4925                 8.1519                 9.0087
 IR Inten    --      3.3650                18.7207                13.5843

 - Thermochemistry -
 -------------------
 Temperature   298.150 Kelvin.  Pressure   1.00000 Atm.
 Atom     1 has atomic number  6 and mass  12.00000

 Molecular mass:   130.11061 amu.
 Principal axes and moments of inertia in atomic units:
                           1         2         3
     Eigenvalues --   430.717772628.066992933.79908
           X            0.99993  -0.01218   0.00077
           Y            0.01219   0.99976  -0.01797
           Z           -0.00055   0.01798   0.99984
 This molecule is an asymmetric top.
 Rotational symmetry number  1.
 Rotational temperatures (Kelvin)      0.20109     0.03296     0.02952
 Rotational constants (GHZ):           4.19008     0.68672     0.61516
 Zero-point vibrational energy     537720.6 (Joules/Mol)
                                  128.51830 (Kcal/Mol)
 Warning -- explicit consideration of  15 degrees of freedom as
           vibrations may cause significant error
 Vibrational temperatures:     87.64   105.87   153.51   188.18   252.41
          (Kelvin)            318.83   406.68   412.06   437.50   459.97
                              482.18   528.48   655.15   692.61   771.08
                              948.11  1118.51  1125.41  1217.42  1259.80
                             1312.30  1348.22  1405.35  1473.84  1483.04
                             1555.04  1579.72  1622.13  1646.82  1668.21
                             1692.16  1762.69  1809.11  1820.74  1871.86
                             1904.81  1950.41  1974.82  1996.97  2023.65
                             2026.10  2044.91  2064.56  2109.56  2134.71
                             2152.47  2170.75  2400.29  2493.98  4285.85
                             4309.41  4315.13  4348.09  4372.55  4376.43
                             4397.92  4405.47  4466.59  4493.11  4873.02
                             5002.39  5129.59  5449.68

 Zero-point correction=                           0.204807 (Hartree/Particle)
 Thermal correction to Energy=                    0.215776
 Thermal correction to Enthalpy=                  0.216721
 Thermal correction to Gibbs Free Energy=         0.168451
 Sum of electronic and zero-point Energies=           -421.599531
 Sum of electronic and thermal Energies=              -421.588562
 Sum of electronic and thermal Enthalpies=            -421.587618
 Sum of electronic and thermal Free Energies=         -421.635887

                     E (Thermal)             CV                S
                      KCal/Mol        Cal/Mol-Kelvin    Cal/Mol-Kelvin
 Total                  135.402             40.015            101.592
 Electronic               0.000              0.000              0.000
 Translational            0.889              2.981             40.503
 Rotational               0.889              2.981             29.586
 Vibrational            133.624             34.053             31.503
 Vibration     1          0.597              1.973              4.427
 Vibration     2          0.599              1.966              4.055
 Vibration     3          0.606              1.944              3.328
 Vibration     4          0.612              1.923              2.934
 Vibration     5          0.627              1.873              2.376
 Vibration     6          0.648              1.808              1.946
 Vibration     7          0.682              1.706              1.518
 Vibration     8          0.684              1.699              1.495
 Vibration     9          0.695              1.666              1.394
 Vibration    10          0.706              1.636              1.312
 Vibration    11          0.716              1.605              1.235
 Vibration    12          0.740              1.539              1.091
 Vibration    13          0.814              1.349              0.780
 Vibration    14          0.838              1.291              0.706
 Vibration    15          0.891              1.171              0.574

                           ! Non-Optimized Parameters !
 Normal termination of Gaussian 16 at Thu Aug  4 00:33:16 2022.
