 Gaussian 16, Revision A.03,
 Gaussian 16:  ES64L-G16RevA.03 25-Dec-2016

 -----------------------------
 # opt freq b3lyp/6-31g(2df,p)
 -----------------------------

 -------------------
 Title Card Required
 -------------------
 Symbolic Z-matrix:
 Charge =  0 Multiplicity = 1

 SCF Done:  E(RB3LYP) =  -331.758348268     A.U. after   12 cycles
 SCF Done:  E(RB3LYP) =  -331.760234382     A.U. after   10 cycles
 SCF Done:  E(RB3LYP) =  -331.762745691     A.U. after   11 cycles
 SCF Done:  E(RB3LYP) =  -331.763887199     A.U. after   10 cycles
 SCF Done:  E(RB3LYP) =  -331.764906842     A.U. after   10 cycles
 SCF Done:  E(RB3LYP) =  -331.765000623     A.U. after   12 cycles
 SCF Done:  E(RB3LYP) =  -331.765734792     A.U. after   10 cycles
 SCF Done:  E(RB3LYP) =  -331.765889751     A.U. after    9 cycles
 SCF Done:  E(RB3LYP) =  -331.765923830     A.U. after    9 cycles
 SCF Done:  E(RB3LYP) =  -331.765913383     A.U. after    9 cycles
 SCF Done:  E(RB3LYP) =  -331.765933542     A.U. after    8 cycles
 SCF Done:  E(RB3LYP) =  -331.765935334     A.U. after    7 cycles
 SCF Done:  E(RB3LYP) =  -331.765936548     A.U. after    7 cycles
 SCF Done:  E(RB3LYP) =  -331.765936891     A.U. after    7 cycles
 Optimization completed.
    -- Stationary point found.
 Normal termination of Gaussian 16 at Sun Jul  3 22:59:12 2022.

 ----------------------------------------------------------------------
 #N Geom=AllCheck Guess=TCheck SCRF=Check GenChk RB3LYP/6-31G(2df,p) Fr
 eq
 ----------------------------------------------------------------------

 Structure from the checkpoint file:  "CCCpCCpCpCpN.chk"
 -------------------
 Title Card Required
 -------------------
 Charge =  0 Multiplicity = 1

                         Standard orientation:
 ---------------------------------------------------------------------
 Center     Atomic      Atomic             Coordinates (Angstroms)
 Number     Number       Type             X           Y           Z
 ---------------------------------------------------------------------
      1          6           0       -2.151484    1.598973    0.185083
      2          6           0       -0.680678    1.436542   -0.214984
      3          6           0       -0.071492    0.051412    0.081547
      4          6           0       -0.862870   -1.097423   -0.599152
      5          6           0       -1.830175   -1.839694    0.330283
      6          6           0        1.427431   -0.022585   -0.306499
      7          6           0        2.271102    1.153258    0.212562
      8          7           0        1.954074   -1.327147    0.132653
      9          1           0       -2.493928    2.619479   -0.014889
     10          1           0       -2.295568    1.405736    1.254116
     11          1           0       -2.807426    0.919653   -0.366842
     12          1           0       -0.103123    2.208630    0.303533
     13          1           0       -0.574187    1.645784   -1.289264
     14          1           0       -0.115667   -0.100720    1.172907
     15          1           0       -0.147524   -1.824314   -0.991645
     16          1           0       -1.413138   -0.696475   -1.460495
     17          1           0       -1.283272   -2.316230    1.151452
     18          1           0       -2.368105   -2.627224   -0.208285
     19          1           0       -2.575599   -1.172439    0.773991
     20          1           0        1.483738   -0.023736   -1.405144
     21          1           0        2.173406    1.254859    1.300976
     22          1           0        1.994285    2.108992   -0.241593
     23          1           0        3.329703    0.979847   -0.010261
     24          1           0        1.991231   -1.345288    1.149879
     25          1           0        2.915650   -1.429413   -0.180050
 ---------------------------------------------------------------------

 SCF Done:  E(RB3LYP) =  -331.765936891     A.U. after    1 cycles

 The electronic state is 1-A.
 Alpha  occ. eigenvalues --  -14.30284 -10.20449 -10.17568 -10.17315 -10.17004
 Alpha  occ. eigenvalues --  -10.16807 -10.16194 -10.16149  -0.88067  -0.79440
 Alpha  occ. eigenvalues --   -0.73558  -0.72350  -0.67178  -0.60390  -0.58779
 Alpha  occ. eigenvalues --   -0.55213  -0.48156  -0.45182  -0.43948  -0.43359
 Alpha  occ. eigenvalues --   -0.40995  -0.40255  -0.39599  -0.38463  -0.37951
 Alpha  occ. eigenvalues --   -0.35631  -0.34341  -0.33863  -0.33235  -0.30859
 Alpha  occ. eigenvalues --   -0.29963  -0.29774  -0.23222
 Alpha virt. eigenvalues --    0.07945   0.10064   0.10807   0.12107   0.13751
 Alpha virt. eigenvalues --    0.14644   0.14883   0.15504   0.16983   0.17228
 Alpha virt. eigenvalues --    0.17896   0.18207   0.18662   0.19862   0.20174

 Mulliken charges:
               1
     1  C   -0.389095
     2  C   -0.187751
     3  C    0.077849
     4  C   -0.176123
     5  C   -0.383421
     6  C    0.026729
     7  C   -0.401563
     8  N   -0.508653
     9  H    0.107452
    10  H    0.112157
    11  H    0.121460
    12  H    0.093731
    13  H    0.090311
    14  H    0.053158
    15  H    0.116949
    16  H    0.080977
    17  H    0.112446
    18  H    0.105886
    19  H    0.111300
    20  H    0.076350
    21  H    0.106108
    22  H    0.116614
    23  H    0.099969
    24  H    0.216604
    25  H    0.220555
 Sum of Mulliken charges =  -0.00000

 Dipole moment (field-independent basis, Debye):
    X=              0.9820    Y=              0.7664    Z=              0.3785  Tot=              1.3018
 Quadrupole moment (field-independent basis, Debye-Ang):
   XX=            -50.7732   YY=            -56.5201   ZZ=            -52.3732
   XY=             -0.7108   XZ=              0.8660   YZ=             -0.8972

  Exact polarizability:  94.492  -0.105  87.648   0.040  -0.779  73.935
 Approx polarizability: 117.931  -1.623 116.812   0.202  -1.322 117.120

                      1                      2                      3
                      A                      A                      A
 Frequencies --     62.0840                75.9691               129.4951
 Red. masses --      2.3244                 2.9176                 1.9070
 Frc consts  --      0.0053                 0.0099                 0.0188
 IR Inten    --      0.1351                 0.1507                 0.0998

                      4                      5                      6
                      A                      A                      A
 Frequencies --    199.9324               209.7412               222.2023
 Red. masses --      2.5104                 1.2786                 1.2640
 Frc consts  --      0.0591                 0.0331                 0.0368
 IR Inten    --      0.5225                 0.5450                 0.9333

                      7                      8                      9
                      A                      A                      A
 Frequencies --    264.0180               272.4746               298.0837
 Red. masses --      1.0714                 1.1500                 1.4761
 Frc consts  --      0.0440                 0.0503                 0.0773
 IR Inten    --     32.3667                 1.0581                 0.5619

                     10                     11                     12
                      A                      A                      A
 Frequencies --    322.6146               367.2894               396.3512
 Red. masses --      2.4165                 2.5115                 2.4737
 Frc consts  --      0.1482                 0.1996                 0.2290
 IR Inten    --      1.1704                 5.1234                 2.0146

                     13                     14                     15
                      A                      A                      A
 Frequencies --    437.0347               481.1869               500.9258
 Red. masses --      2.8499                 2.3974                 2.1642
 Frc consts  --      0.3207                 0.3271                 0.3200
 IR Inten    --      3.0658                 5.9916                 1.0205

                     16                     17                     18
                      A                      A                      A
 Frequencies --    763.3657               772.2880               838.0047
 Red. masses --      1.1859                 1.4446                 1.6181
 Frc consts  --      0.4072                 0.5077                 0.6695
 IR Inten    --      4.1857                 1.5378                 2.4376

                     19                     20                     21
                      A                      A                      A
 Frequencies --    864.8077               900.6811               927.1223
 Red. masses --      2.2209                 1.4084                 1.7716
 Frc consts  --      0.9786                 0.6732                 0.8972
 IR Inten    --     54.3663                77.5245                 1.9318

                     22                     23                     24
                      A                      A                      A
 Frequencies --    958.3526              1012.5369              1032.5635
 Red. masses --      1.6461                 1.5345                 1.9289
 Frc consts  --      0.8908                 0.9269                 1.2117
 IR Inten    --      0.4682                 0.9966                 0.6102

                     25                     26                     27
                      A                      A                      A
 Frequencies --   1033.1617              1055.2954              1077.3637
 Red. masses --      1.4191                 2.2704                 1.9537
 Frc consts  --      0.8925                 1.4897                 1.3361
 IR Inten    --      1.8758                 0.2821                 5.3760

                     28                     29                     30
                      A                      A                      A
 Frequencies --   1087.4229              1155.7717              1170.9996
 Red. masses --      1.7168                 2.0980                 2.0586
 Frc consts  --      1.1961                 1.6512                 1.6631
 IR Inten    --      6.3183                14.7342                 6.2922

                     31                     32                     33
                      A                      A                      A
 Frequencies --   1185.1579              1218.3941              1279.7361
 Red. masses --      1.8609                 1.7214                 1.2982
 Frc consts  --      1.5400                 1.5056                 1.2527
 IR Inten    --      2.1992                 2.0561                 0.7576

                     34                     35                     36
                      A                      A                      A
 Frequencies --   1318.8859              1320.1879              1345.6060
 Red. masses --      1.3972                 1.1268                 1.2265
 Frc consts  --      1.4319                 1.1571                 1.3085
 IR Inten    --      5.4027                 3.8548                 2.0901

                     37                     38                     39
                      A                      A                      A
 Frequencies --   1366.4948              1375.9345              1398.3216
 Red. masses --      1.2928                 1.4272                 1.3075
 Frc consts  --      1.4223                 1.5919                 1.5063
 IR Inten    --      6.6773                 0.5653                 5.6098

                     40                     41                     42
                      A                      A                      A
 Frequencies --   1402.3270              1407.2195              1409.3428
 Red. masses --      1.3810                 1.2722                 1.2340
 Frc consts  --      1.6000                 1.4843                 1.4441
 IR Inten    --      1.7653                 3.8233                 2.1589

                     43                     44                     45
                      A                      A                      A
 Frequencies --   1412.6114              1482.5422              1486.4656
 Red. masses --      1.2354                 1.0677                 1.0557
 Frc consts  --      1.4524                 1.3826                 1.3744
 IR Inten    --      1.4158                 2.1363                 0.8912

                     46                     47                     48
                      A                      A                      A
 Frequencies --   1493.4281              1499.1221              1503.6221
 Red. masses --      1.0543                 1.0506                 1.0551
 Frc consts  --      1.3854                 1.3911                 1.4055
 IR Inten    --      0.4736                 2.9663                10.4935

                     49                     50                     51
                      A                      A                      A
 Frequencies --   1505.7397              1506.6600              1513.0169
 Red. masses --      1.0483                 1.0618                 1.0557
 Frc consts  --      1.4004                 1.4201                 1.4239
 IR Inten    --      2.9554                 1.8331                 4.3751

                     52                     53                     54
                      A                      A                      A
 Frequencies --   1655.0680              2961.0510              2998.1482
 Red. masses --      1.0904                 1.0803                 1.0818
 Frc consts  --      1.7598                 5.5805                 5.7291
 IR Inten    --     22.9479                10.5035                12.3042

                     55                     56                     57
                      A                      A                      A
 Frequencies --   3007.8446              3019.6144              3020.5715
 Red. masses --      1.0690                 1.0386                 1.0687
 Frc consts  --      5.6984                 5.5795                 5.7449
 IR Inten    --     28.4049                28.4680                37.7769

                     58                     59                     60
                      A                      A                      A
 Frequencies --   3030.3385              3032.2290              3065.1028
 Red. masses --      1.0357                 1.0366                 1.0931
 Frc consts  --      5.6036                 5.6155                 6.0504
 IR Inten    --     17.8012                45.3852                22.6378

                     61                     62                     63
                      A                      A                      A
 Frequencies --   3084.1339              3085.7050              3093.6223
 Red. masses --      1.0997                 1.0937                 1.1013
 Frc consts  --      6.1632                 6.1358                 6.2100
 IR Inten    --     33.7630                 6.6461                23.5940

                     64                     65                     66
                      A                      A                      A
 Frequencies --   3094.8853              3104.3343              3108.3602
 Red. masses --      1.1011                 1.0993                 1.0994
 Frc consts  --      6.2140                 6.2415                 6.2586
 IR Inten    --     57.5108                26.6306                78.8210

                     67                     68                     69
                      A                      A                      A
 Frequencies --   3112.1962              3468.4943              3548.8893
 Red. masses --      1.0996                 1.0497                 1.0909
 Frc consts  --      6.2748                 7.4403                 8.0953
 IR Inten    --     14.5535                 1.1423                 0.4080

 - Thermochemistry -
 -------------------
 Temperature   298.150 Kelvin.  Pressure   1.00000 Atm.
 Atom     1 has atomic number  6 and mass  12.00000

 Molecular mass:   115.13610 amu.
 Principal axes and moments of inertia in atomic units:
                           1         2         3
     Eigenvalues --   788.077401230.144481849.03187
           X            0.99966   0.02609  -0.00015
           Y           -0.02609   0.99966  -0.00294
           Z            0.00007   0.00294   1.00000
 This molecule is an asymmetric top.
 Rotational symmetry number  1.
 Warning -- assumption of classical behavior for rotation
           may cause significant error
 Rotational temperatures (Kelvin)      0.10991     0.07041     0.04684
 Rotational constants (GHZ):           2.29006     1.46710     0.97605
 Zero-point vibrational energy     614943.6 (Joules/Mol)
                                  146.97505 (Kcal/Mol)
 Warning -- explicit consideration of  15 degrees of freedom as
           vibrations may cause significant error
 Vibrational temperatures:     89.33   109.30   186.31   287.66   301.77
          (Kelvin)            319.70   379.86   392.03   428.88   464.17
                              528.45   570.26   628.80   692.32   720.72
                             1098.31  1111.15  1205.70  1244.27  1295.88
                             1333.92  1378.86  1456.81  1485.63  1486.49
                             1518.33  1550.09  1564.56  1662.90  1684.81
                             1705.18  1753.00  1841.25  1897.58  1899.46
                             1936.03  1966.08  1979.66  2011.87  2017.64
                             2024.67  2027.73  2032.43  2133.05  2138.69
                             2148.71  2156.90  2163.38  2166.42  2167.75
                             2176.89  2381.27  4260.29  4313.67  4327.62
                             4344.55  4345.93  4359.98  4362.70  4410.00
                             4437.38  4439.64  4451.03  4452.85  4466.44
                             4472.24  4477.76  4990.39  5106.06

 Zero-point correction=                           0.234220 (Hartree/Particle)
 Thermal correction to Energy=                    0.244932
 Thermal correction to Enthalpy=                  0.245876
 Thermal correction to Gibbs Free Energy=         0.198871
 Sum of electronic and zero-point Energies=           -331.531717
 Sum of electronic and thermal Energies=              -331.521005
 Sum of electronic and thermal Enthalpies=            -331.520061
 Sum of electronic and thermal Free Energies=         -331.567066

                     E (Thermal)             CV                S
                      KCal/Mol        Cal/Mol-Kelvin    Cal/Mol-Kelvin
 Total                  153.697             39.743             98.930
 Electronic               0.000              0.000              0.000
 Translational            0.889              2.981             40.138
 Rotational               0.889              2.981             28.973
 Vibrational            151.919             33.781             29.819
 Vibration     1          0.597              1.972              4.390
 Vibration     2          0.599              1.965              3.992
 Vibration     3          0.612              1.924              2.954
 Vibration     4          0.638              1.840              2.134
 Vibration     5          0.642              1.826              2.046
 Vibration     6          0.648              1.807              1.941
 Vibration     7          0.671              1.739              1.635
 Vibration     8          0.675              1.724              1.580
 Vibration     9          0.691              1.677              1.428
 Vibration    10          0.708              1.630              1.297
 Vibration    11          0.740              1.540              1.091
 Vibration    12          0.763              1.478              0.976
 Vibration    13          0.797              1.389              0.836
 Vibration    14          0.837              1.292              0.707
 Vibration    15          0.856              1.248              0.656

                           ! Non-Optimized Parameters !
 Normal termination of Gaussian 16 at Sun Jul  3 23:33:33 2022.
