 Gaussian 16, Revision A.03,
 Gaussian 16:  ES64L-G16RevA.03 25-Dec-2016

 -----------------------------
 # opt freq b3lyp/6-31g(2df,p)
 -----------------------------

 -------------------
 Title Card Required
 -------------------
 Symbolic Z-matrix:
 Charge =  0 Multiplicity = 1

 SCF Done:  E(RB3LYP) =  -428.996848251     A.U. after   20 cycles
 SCF Done:  E(RB3LYP) =  -429.013573432     A.U. after   16 cycles
 SCF Done:  E(RB3LYP) =  -429.020496037     A.U. after   17 cycles
 SCF Done:  E(RB3LYP) =  -429.027256665     A.U. after   16 cycles
 SCF Done:  E(RB3LYP) =  -429.029589557     A.U. after   15 cycles
 SCF Done:  E(RB3LYP) =  -429.032114852     A.U. after   15 cycles
 SCF Done:  E(RB3LYP) =  -429.033029439     A.U. after   15 cycles
 SCF Done:  E(RB3LYP) =  -429.034354886     A.U. after   15 cycles
 SCF Done:  E(RB3LYP) =  -429.035618525     A.U. after   15 cycles
 SCF Done:  E(RB3LYP) =  -429.036240441     A.U. after   14 cycles
 SCF Done:  E(RB3LYP) =  -429.036618570     A.U. after   13 cycles
 SCF Done:  E(RB3LYP) =  -429.036730949     A.U. after   13 cycles
 SCF Done:  E(RB3LYP) =  -429.036768748     A.U. after   12 cycles
 SCF Done:  E(RB3LYP) =  -429.036784986     A.U. after   12 cycles
 SCF Done:  E(RB3LYP) =  -429.036790970     A.U. after   10 cycles
 SCF Done:  E(RB3LYP) =  -429.036792357     A.U. after    9 cycles
 SCF Done:  E(RB3LYP) =  -429.036792626     A.U. after    9 cycles
 Optimization completed.
    -- Stationary point found.
 Normal termination of Gaussian 16 at Thu Aug  4 05:25:27 2022.

 ----------------------------------------------------------------------
 #N Geom=AllCheck Guess=TCheck SCRF=Check GenChk RB3LYP/6-31G(2df,p) Fr
 eq
 ----------------------------------------------------------------------

 Structure from the checkpoint file:  "CCdC1NdCNdNNdN1.chk"
 -------------------
 Title Card Required
 -------------------
 Charge =  0 Multiplicity = 1

                         Standard orientation:
 ---------------------------------------------------------------------
 Center     Atomic      Atomic             Coordinates (Angstroms)
 Number     Number       Type             X           Y           Z
 ---------------------------------------------------------------------
      1          6           0       -2.902891   -0.295977   -0.357552
      2          6           0       -1.791743    0.695639   -0.240413
      3          6           0       -0.574013    0.430129    0.242283
      4          7           0        0.422495    1.402114    0.429799
      5          6           0        1.627644    1.111947    0.113614
      6          7           0        2.032256    0.039657   -0.710920
      7          7           0        1.484748   -1.083362   -0.667301
      8          7           0        0.744925   -1.457158    0.501553
      9          7           0       -0.257060   -0.835811    0.866691
     10          1           0       -3.832167    0.123417    0.044267
     11          1           0       -2.674345   -1.221714    0.175713
     12          1           0       -3.100376   -0.548880   -1.406876
     13          1           0       -1.958346    1.706222   -0.602306
     14          1           0        2.419709    1.832449    0.302855
 ---------------------------------------------------------------------

 SCF Done:  E(RB3LYP) =  -429.036792626     A.U. after    1 cycles

 The electronic state is 1-A.
 Alpha  occ. eigenvalues --  -14.44042 -14.43924 -14.41827 -14.41628 -14.37233
 Alpha  occ. eigenvalues --  -10.28844 -10.26482 -10.21387 -10.19976  -1.12293
 Alpha  occ. eigenvalues --   -1.03150  -0.97057  -0.82456  -0.79145  -0.74589
 Alpha  occ. eigenvalues --   -0.67097  -0.63241  -0.60007  -0.52083  -0.50539
 Alpha  occ. eigenvalues --   -0.47972  -0.45345  -0.42839  -0.41578  -0.39641
 Alpha  occ. eigenvalues --   -0.39370  -0.37909  -0.36328  -0.35497  -0.31734
 Alpha  occ. eigenvalues --   -0.25069  -0.23560
 Alpha virt. eigenvalues --   -0.11269  -0.08559  -0.00775   0.02197   0.10384
 Alpha virt. eigenvalues --    0.12183   0.13215   0.15227   0.16099   0.16699
 Alpha virt. eigenvalues --    0.19086   0.23817   0.23842   0.28273   0.32262

 Mulliken charges:
               1
     1  C   -0.445571
     2  C   -0.122873
     3  C    0.332555
     4  N   -0.207681
     5  C    0.069954
     6  N   -0.090420
     7  N   -0.072982
     8  N   -0.042666
     9  N   -0.121061
    10  H    0.139128
    11  H    0.149229
    12  H    0.143616
    13  H    0.117400
    14  H    0.151372
 Sum of Mulliken charges =  -0.00000

 Dipole moment (field-independent basis, Debye):
    X=             -1.3250    Y=              1.5957    Z=             -0.3893  Tot=              2.1103
 Quadrupole moment (field-independent basis, Debye-Ang):
   XX=            -45.4308   YY=            -54.1388   ZZ=            -54.0678
   XY=              3.3544   XZ=              4.5489   YZ=             -0.3411

  Exact polarizability: 113.233  -0.904  70.167  -0.006  -0.207  49.176
 Approx polarizability: 190.435 -13.035 129.650  -9.912   1.031  88.735

                      1                      2                      3
                      A                      A                      A
 Frequencies --     82.4239               154.9668               181.2371
 Red. masses --      5.9811                 1.3793                 2.0818
 Frc consts  --      0.0239                 0.0195                 0.0403
 IR Inten    --      3.5376                 0.7842                 2.0758

                      4                      5                      6
                      A                      A                      A
 Frequencies --    228.4942               304.4739               346.2126
 Red. masses --      2.8750                 6.8850                10.5507
 Frc consts  --      0.0884                 0.3761                 0.7451
 IR Inten    --      0.7043                14.5918                 6.4639

                      7                      8                      9
                      A                      A                      A
 Frequencies --    364.7886               407.0331               510.5901
 Red. masses --      4.3970                 9.5888                 4.4655
 Frc consts  --      0.3447                 0.9360                 0.6859
 IR Inten    --      3.1743                 4.3705                 3.5743

                     10                     11                     12
                      A                      A                      A
 Frequencies --    588.7906               654.9636               691.2077
 Red. masses --      8.7938                 7.6712                 5.8109
 Frc consts  --      1.7962                 1.9389                 1.6357
 IR Inten    --     10.6477                 4.5267                12.0919

                     13                     14                     15
                      A                      A                      A
 Frequencies --    734.5861               835.8328               863.9596
 Red. masses --      4.4794                 4.2968                 1.3177
 Frc consts  --      1.4241                 1.7686                 0.5795
 IR Inten    --      2.3190                10.0573                15.2221

                     16                     17                     18
                      A                      A                      A
 Frequencies --    942.4269               954.3747               974.3835
 Red. masses --      6.7346                 2.4022                 1.5910
 Frc consts  --      3.5242                 1.2891                 0.8900
 IR Inten    --      5.2931                 3.3524                30.2845

                     19                     20                     21
                      A                      A                      A
 Frequencies --   1016.3939              1060.6084              1097.2460
 Red. masses --      3.5215                 1.5572                 3.9973
 Frc consts  --      2.1434                 1.0321                 2.8354
 IR Inten    --     20.4747                 0.3053                12.8373

                     22                     23                     24
                      A                      A                      A
 Frequencies --   1178.3907              1326.3467              1388.5317
 Red. masses --      2.7318                 1.4162                 1.3100
 Frc consts  --      2.2350                 1.4678                 1.4882
 IR Inten    --      6.3950                 3.7084                 7.6042

                     25                     26                     27
                      A                      A                      A
 Frequencies --   1411.1960              1477.5747              1483.0907
 Red. masses --      1.2463                 1.0615                 1.0569
 Frc consts  --      1.4623                 1.3654                 1.3696
 IR Inten    --      3.0906                 8.7806                 5.9786

                     28                     29                     30
                      A                      A                      A
 Frequencies --   1520.0193              1602.3047              1639.4669
 Red. masses --      9.2165                13.2828                 9.6011
 Frc consts  --     12.5462                20.0923                15.2047
 IR Inten    --     11.9515                25.4032                53.4151

                     31                     32                     33
                      A                      A                      A
 Frequencies --   1711.7757              3025.6915              3075.1339
 Red. masses --      7.1277                 1.0389                 1.0970
 Frc consts  --     12.3052                 5.6035                 6.1123
 IR Inten    --      3.4388                16.1440                11.7380

                     34                     35                     36
                      A                      A                      A
 Frequencies --   3124.4769              3171.4447              3177.6401
 Red. masses --      1.0995                 1.0908                 1.0893
 Frc consts  --      6.3240                 6.4640                 6.4803
 IR Inten    --      5.6195                10.1745                 4.1602

 - Thermochemistry -
 -------------------
 Temperature   298.150 Kelvin.  Pressure   1.00000 Atm.
 Atom     1 has atomic number  6 and mass  12.00000

 Molecular mass:   123.05450 amu.
 Principal axes and moments of inertia in atomic units:
                           1         2         3
     Eigenvalues --   538.384991256.015981541.71748
           X            0.99943   0.02688   0.02037
           Y           -0.02693   0.99963   0.00222
           Z           -0.02030  -0.00276   0.99979
 This molecule is an asymmetric top.
 Rotational symmetry number  1.
 Warning -- assumption of classical behavior for rotation
           may cause significant error
 Rotational temperatures (Kelvin)      0.16088     0.06896     0.05618
 Rotational constants (GHZ):           3.35214     1.43688     1.17060
 Zero-point vibrational energy     259039.8 (Joules/Mol)
                                   61.91201 (Kcal/Mol)
 Warning -- explicit consideration of  10 degrees of freedom as
           vibrations may cause significant error
 Vibrational temperatures:    118.59   222.96   260.76   328.75   438.07
          (Kelvin)            498.12   524.85   585.63   734.63   847.14
                              942.35   994.49  1056.91  1202.58  1243.05
                             1355.94  1373.13  1401.92  1462.36  1525.98
                             1578.69  1695.44  1908.32  1997.79  2030.40
                             2125.90  2133.84  2186.97  2305.36  2358.83
                             2462.86  4353.30  4424.43  4495.43  4563.00
                             4571.92

 Zero-point correction=                           0.098663 (Hartree/Particle)
 Thermal correction to Energy=                    0.106582
 Thermal correction to Enthalpy=                  0.107526
 Thermal correction to Gibbs Free Energy=         0.066121
 Sum of electronic and zero-point Energies=           -428.938130
 Sum of electronic and thermal Energies=              -428.930211
 Sum of electronic and thermal Enthalpies=            -428.929266
 Sum of electronic and thermal Free Energies=         -428.970672

                     E (Thermal)             CV                S
                      KCal/Mol        Cal/Mol-Kelvin    Cal/Mol-Kelvin
 Total                   66.881             28.855             87.145
 Electronic               0.000              0.000              0.000
 Translational            0.889              2.981             40.336
 Rotational               0.889              2.981             28.435
 Vibrational             65.104             22.893             18.373
 Vibration     1          0.600              1.961              3.832
 Vibration     2          0.620              1.897              2.610
 Vibration     3          0.630              1.865              2.316
 Vibration     4          0.651              1.798              1.891
 Vibration     5          0.695              1.665              1.392
 Vibration     6          0.724              1.583              1.183
 Vibration     7          0.738              1.545              1.102
 Vibration     8          0.772              1.455              0.937
 Vibration     9          0.866              1.227              0.632
 Vibration    10          0.946              1.056              0.469

 Optimization completed.
    -- Stationary point found.
 Normal termination of Gaussian 16 at Thu Aug  4 05:46:13 2022.
