 Gaussian 16, Revision A.03,
 Gaussian 16:  ES64L-G16RevA.03 25-Dec-2016

 -----------------------------
 # opt freq b3lyp/6-31g(2df,p)
 -----------------------------

 -------------------
 Title Card Required
 -------------------
 Symbolic Z-matrix:
 Charge =  0 Multiplicity = 1

 SCF Done:  E(RB3LYP) =  -378.829566974     A.U. after   14 cycles
 SCF Done:  E(RB3LYP) =  -378.834279996     A.U. after   13 cycles
 SCF Done:  E(RB3LYP) =  -378.835285549     A.U. after   12 cycles
 SCF Done:  E(RB3LYP) =  -378.836885314     A.U. after   12 cycles
 SCF Done:  E(RB3LYP) =  -378.837695316     A.U. after   12 cycles
 SCF Done:  E(RB3LYP) =  -378.837865694     A.U. after   12 cycles
 SCF Done:  E(RB3LYP) =  -378.838020917     A.U. after   10 cycles
 SCF Done:  E(RB3LYP) =  -378.838299248     A.U. after   11 cycles
 SCF Done:  E(RB3LYP) =  -378.837473974     A.U. after   12 cycles
 SCF Done:  E(RB3LYP) =  -378.840095404     A.U. after   12 cycles
 SCF Done:  E(RB3LYP) =  -378.840832745     A.U. after   12 cycles
 SCF Done:  E(RB3LYP) =  -378.840747669     A.U. after   11 cycles
 SCF Done:  E(RB3LYP) =  -378.840966940     A.U. after   12 cycles
 SCF Done:  E(RB3LYP) =  -378.840994880     A.U. after    9 cycles
 SCF Done:  E(RB3LYP) =  -378.840997952     A.U. after    8 cycles
 SCF Done:  E(RB3LYP) =  -378.840998301     A.U. after    7 cycles
 Optimization completed.
    -- Stationary point found.
 Normal termination of Gaussian 16 at Mon Jul  4 00:37:41 2022.

 ----------------------------------------------------------------------
 #N Geom=AllCheck Guess=TCheck SCRF=Check GenChk RB3LYP/6-31G(2df,p) Fr
 eq
 ----------------------------------------------------------------------

 Structure from the checkpoint file:  "CCdCc1ncno1.chk"
 -------------------
 Title Card Required
 -------------------
 Charge =  0 Multiplicity = 1

                         Standard orientation:
 ---------------------------------------------------------------------
 Center     Atomic      Atomic             Coordinates (Angstroms)
 Number     Number       Type             X           Y           Z
 ---------------------------------------------------------------------
      1          6           0       -3.465878    0.018627    0.000109
      2          6           0       -2.015222    0.371728    0.000170
      3          6           0       -1.011639   -0.512326   -0.000123
      4          6           0        0.380994   -0.117692   -0.000186
      5          7           0        0.911323    1.078888   -0.000205
      6          6           0        2.247768    0.794131    0.000065
      7          7           0        2.555622   -0.475762    0.000203
      8          8           0        1.302303   -1.096853   -0.000001
      9          1           0       -3.967771    0.443538   -0.878067
     10          1           0       -3.968327    0.444481    0.877395
     11          1           0       -3.624846   -1.062831    0.000493
     12          1           0       -1.762462    1.429970    0.000200
     13          1           0       -1.196836   -1.581956   -0.000336
     14          1           0        3.017071    1.552924    0.000121
 ---------------------------------------------------------------------

 SCF Done:  E(RB3LYP) =  -378.840998301     A.U. after    1 cycles

 The electronic state is 1-A.
 Alpha  occ. eigenvalues --  -19.23538 -14.38080 -14.33375 -10.28810 -10.24767
 Alpha  occ. eigenvalues --  -10.21757 -10.20917 -10.20124  -1.16093  -0.93313
 Alpha  occ. eigenvalues --   -0.87394  -0.81158  -0.72565  -0.64794  -0.61908
 Alpha  occ. eigenvalues --   -0.56944  -0.53225  -0.48956  -0.46550  -0.44350
 Alpha  occ. eigenvalues --   -0.43056  -0.41582  -0.39726  -0.37455  -0.33554
 Alpha  occ. eigenvalues --   -0.33351  -0.32364  -0.29439  -0.25243
 Alpha virt. eigenvalues --   -0.05365   0.01963   0.09081   0.09931   0.10081
 Alpha virt. eigenvalues --    0.11272   0.13932   0.15555   0.15711   0.16246
 Alpha virt. eigenvalues --    0.21365   0.24575   0.25363   0.28844   0.30934

 Mulliken charges:
               1
     1  C   -0.436436
     2  C   -0.018770
     3  C   -0.180504
     4  C    0.454621
     5  N   -0.333913
     6  C    0.039013
     7  N   -0.119699
     8  O   -0.206599
     9  H    0.142316
    10  H    0.142302
    11  H    0.129831
    12  H    0.128086
    13  H    0.115430
    14  H    0.144322
 Sum of Mulliken charges =   0.00000

 Dipole moment (field-independent basis, Debye):
    X=             -2.8997    Y=              0.5953    Z=             -0.0002  Tot=              2.9601
 Quadrupole moment (field-independent basis, Debye-Ang):
   XX=            -41.7621   YY=            -46.6446   ZZ=            -46.4018
   XY=              4.8761   XZ=             -0.0000   YZ=              0.0016

  Exact polarizability: 115.809  -1.518  61.975   0.002   0.001  36.731
 Approx polarizability: 165.536 -12.807 112.576   0.003   0.002  57.642

                      1                      2                      3
                      A                      A                      A
 Frequencies --     94.8657               142.8325               152.0299
 Red. masses --      2.9316                 4.0499                 1.8666
 Frc consts  --      0.0155                 0.0487                 0.0254
 IR Inten    --      0.0765                 0.3046                 0.2088

                      4                      5                      6
                      A                      A                      A
 Frequencies --    209.3953               350.5475               370.1236
 Red. masses --      1.3528                 3.9144                 3.3302
 Frc consts  --      0.0349                 0.2834                 0.2688
 IR Inten    --      0.5173                 0.3610                 0.6932

                      7                      8                      9
                      A                      A                      A
 Frequencies --    429.0652               652.5103               736.8464
 Red. masses --      5.5711                 5.0377                 2.9504
 Frc consts  --      0.6043                 1.2637                 0.9438
 IR Inten    --      2.0284                 9.7595                10.4141

                     10                     11                     12
                      A                      A                      A
 Frequencies --    797.8896               856.8466               921.8438
 Red. masses --      3.6735                 2.2286                 7.1276
 Frc consts  --      1.3779                 0.9640                 3.5687
 IR Inten    --      2.5937                 5.0857                21.3123

                     13                     14                     15
                      A                      A                      A
 Frequencies --    934.6366               952.0305               983.5713
 Red. masses --      1.3741                 2.0265                10.3418
 Frc consts  --      0.7072                 1.0822                 5.8947
 IR Inten    --      4.7867                 9.1448                14.3049

                     16                     17                     18
                      A                      A                      A
 Frequencies --   1013.5509              1037.7964              1075.0787
 Red. masses --      1.0924                 6.2758                 1.5568
 Frc consts  --      0.6612                 3.9824                 1.0601
 IR Inten    --     24.0611                 0.7791                 1.1024

                     19                     20                     21
                      A                      A                      A
 Frequencies --   1116.6890              1205.2524              1223.9608
 Red. masses --      2.0451                 1.7590                 2.7457
 Frc consts  --      1.5026                 1.5055                 2.4235
 IR Inten    --      5.3637                52.3904                11.3398

                     22                     23                     24
                      A                      A                      A
 Frequencies --   1285.9536              1331.2649              1359.1385
 Red. masses --      2.6830                 1.2850                 2.3158
 Frc consts  --      2.6141                 1.3418                 2.5205
 IR Inten    --     45.2839                 4.5498                 8.0833

                     25                     26                     27
                      A                      A                      A
 Frequencies --   1409.8960              1475.2477              1483.2291
 Red. masses --      1.2557                 1.0448                 1.1536
 Frc consts  --      1.4706                 1.3398                 1.4952
 IR Inten    --      0.6894                 6.1521                10.5747

                     28                     29                     30
                      A                      A                      A
 Frequencies --   1504.4610              1604.7404              1719.2455
 Red. masses --      4.4224                 7.8376                 5.8226
 Frc consts  --      5.8976                11.8917                10.1401
 IR Inten    --     57.4176                65.9832                69.1528

                     31                     32                     33
                      A                      A                      A
 Frequencies --   3023.1983              3071.5365              3115.9772
 Red. masses --      1.0373                 1.0979                 1.0998
 Frc consts  --      5.5857                 6.1029                 6.2917
 IR Inten    --     17.5301                11.3499                12.6815

                     34                     35                     36
                      A                      A                      A
 Frequencies --   3163.8635              3184.6290              3257.6835
 Red. masses --      1.0908                 1.0884                 1.0973
 Frc consts  --      6.4333                 6.5034                 6.8611
 IR Inten    --      2.9894                 6.4050                 4.3503

 - Thermochemistry -
 -------------------
 Temperature   298.150 Kelvin.  Pressure   1.00000 Atm.
 Atom     1 has atomic number  6 and mass  12.00000

 Molecular mass:   110.04801 amu.
 Principal axes and moments of inertia in atomic units:
                           1         2         3
     Eigenvalues --   218.914331631.578741839.40217
           X            0.99994   0.01067   0.00000
           Y           -0.01067   0.99994   0.00002
           Z           -0.00000  -0.00002   1.00000
 This molecule is an asymmetric top.
 Rotational symmetry number  1.
 Rotational temperatures (Kelvin)      0.39565     0.05309     0.04709
 Rotational constants (GHZ):           8.24405     1.10613     0.98116
 Zero-point vibrational energy     282602.4 (Joules/Mol)
                                   67.54359 (Kcal/Mol)
 Warning -- explicit consideration of   7 degrees of freedom as
           vibrations may cause significant error
 Vibrational temperatures:    136.49   205.50   218.74   301.27   504.36
          (Kelvin)            532.53   617.33   938.82  1060.16  1147.99
                             1232.81  1326.33  1344.73  1369.76  1415.14
                             1458.27  1493.16  1546.80  1606.67  1734.09
                             1761.01  1850.20  1915.39  1955.50  2028.53
                             2122.55  2134.04  2164.58  2308.86  2473.61
                             4349.71  4419.26  4483.20  4552.09  4581.97
                             4687.08

 Zero-point correction=                           0.107638 (Hartree/Particle)
 Thermal correction to Energy=                    0.114802
 Thermal correction to Enthalpy=                  0.115746
 Thermal correction to Gibbs Free Energy=         0.075793
 Sum of electronic and zero-point Energies=           -378.733361
 Sum of electronic and thermal Energies=              -378.726197
 Sum of electronic and thermal Enthalpies=            -378.725253
 Sum of electronic and thermal Free Energies=         -378.765206

                     E (Thermal)             CV                S
                      KCal/Mol        Cal/Mol-Kelvin    Cal/Mol-Kelvin
 Total                   72.039             25.212             84.088
 Electronic               0.000              0.000              0.000
 Translational            0.889              2.981             40.003
 Rotational               0.889              2.981             27.976
 Vibrational             70.262             19.251             16.109
 Vibration     1          0.603              1.953              3.557
 Vibration     2          0.616              1.910              2.766
 Vibration     3          0.619              1.900              2.647
 Vibration     4          0.642              1.826              2.049
 Vibration     5          0.727              1.574              1.164
 Vibration     6          0.742              1.534              1.079
 Vibration     7          0.790              1.407              0.862

 Optimization completed.
    -- Stationary point found.
 Normal termination of Gaussian 16 at Mon Jul  4 00:52:58 2022.
