 Gaussian 16, Revision A.03,
 Gaussian 16:  ES64L-G16RevA.03 25-Dec-2016

 -----------------------------
 # opt freq b3lyp/6-31g(2df,p)
 -----------------------------

 -------------------
 Title Card Required
 -------------------
 Symbolic Z-matrix:
 Charge =  0 Multiplicity = 1

 SCF Done:  E(RB3LYP) =  -345.319950083     A.U. after   13 cycles
 SCF Done:  E(RB3LYP) =  -345.324935017     A.U. after   11 cycles
 SCF Done:  E(RB3LYP) =  -345.326149471     A.U. after   12 cycles
 SCF Done:  E(RB3LYP) =  -345.326830117     A.U. after   12 cycles
 SCF Done:  E(RB3LYP) =  -345.327102731     A.U. after   12 cycles
 SCF Done:  E(RB3LYP) =  -345.327249570     A.U. after   12 cycles
 SCF Done:  E(RB3LYP) =  -345.327418671     A.U. after   12 cycles
 SCF Done:  E(RB3LYP) =  -345.327558838     A.U. after   12 cycles
 SCF Done:  E(RB3LYP) =  -345.327606497     A.U. after   11 cycles
 SCF Done:  E(RB3LYP) =  -345.327604632     A.U. after   14 cycles
 SCF Done:  E(RB3LYP) =  -345.328050892     A.U. after   11 cycles
 SCF Done:  E(RB3LYP) =  -345.328859726     A.U. after   12 cycles
 SCF Done:  E(RB3LYP) =  -345.329442992     A.U. after   12 cycles
 SCF Done:  E(RB3LYP) =  -345.329781505     A.U. after   12 cycles
 SCF Done:  E(RB3LYP) =  -345.329788558     A.U. after   11 cycles
 SCF Done:  E(RB3LYP) =  -345.329857187     A.U. after   11 cycles
 SCF Done:  E(RB3LYP) =  -345.329863525     A.U. after    9 cycles
 SCF Done:  E(RB3LYP) =  -345.329863949     A.U. after    7 cycles
 Optimization completed.
    -- Stationary point found.
 Normal termination of Gaussian 16 at Thu Aug  4 10:22:42 2022.

 ----------------------------------------------------------------------
 #N Geom=AllCheck Guess=TCheck SCRF=Check GenChk RB3LYP/6-31G(2df,p) Fr
 eq
 ----------------------------------------------------------------------

 Structure from the checkpoint file:  "CCN1CC1CCdN.chk"
 -------------------
 Title Card Required
 -------------------
 Charge =  0 Multiplicity = 1

                         Standard orientation:
 ---------------------------------------------------------------------
 Center     Atomic      Atomic             Coordinates (Angstroms)
 Number     Number       Type             X           Y           Z
 ---------------------------------------------------------------------
      1          6           0        1.776427    1.882477   -0.027314
      2          6           0        2.125560    0.406669    0.139686
      3          7           0        1.097696   -0.447756   -0.451912
      4          6           0        1.039067   -1.822104    0.034492
      5          6           0       -0.014201   -0.837653    0.410120
      6          6           0       -1.402070   -0.854379   -0.205065
      7          6           0       -1.996888    0.530132   -0.288667
      8          7           0       -3.076488    0.954811    0.226866
      9          1           0        2.571323    2.514491    0.380084
     10          1           0        0.847571    2.130329    0.496724
     11          1           0        1.645210    2.128845   -1.084843
     12          1           0        2.280115    0.174800    1.209416
     13          1           0        3.069772    0.184331   -0.371565
     14          1           0        1.742836   -2.121101    0.810029
     15          1           0        0.836460   -2.583484   -0.714677
     16          1           0        0.023237   -0.477649    1.439827
     17          1           0       -2.063906   -1.511031    0.373506
     18          1           0       -1.320773   -1.267458   -1.218338
     19          1           0       -1.399448    1.246943   -0.862588
     20          1           0       -3.548228    0.200743    0.738227
 ---------------------------------------------------------------------

 SCF Done:  E(RB3LYP) =  -345.329863949     A.U. after    1 cycles

 The electronic state is 1-A.
 Alpha  occ. eigenvalues --  -14.33205 -14.31198 -10.22457 -10.22313 -10.21312
 Alpha  occ. eigenvalues --  -10.21156 -10.19577 -10.17597  -0.97094  -0.89654
 Alpha  occ. eigenvalues --   -0.78191  -0.74330  -0.65874  -0.60865  -0.59365
 Alpha  occ. eigenvalues --   -0.57104  -0.50291  -0.47975  -0.46242  -0.44876
 Alpha  occ. eigenvalues --   -0.43106  -0.40689  -0.38699  -0.37717  -0.37378
 Alpha  occ. eigenvalues --   -0.35483  -0.32355  -0.31415  -0.30623  -0.25990
 Alpha  occ. eigenvalues --   -0.23510
 Alpha virt. eigenvalues --    0.00146   0.09119   0.09244   0.10834   0.11800
 Alpha virt. eigenvalues --    0.12528   0.14064   0.14970   0.15436   0.15941
 Alpha virt. eigenvalues --    0.16862   0.17698   0.18728   0.19014   0.19528

 Mulliken charges:
               1
     1  C   -0.378961
     2  C   -0.117699
     3  N   -0.074215
     4  C   -0.261089
     5  C    0.018892
     6  C   -0.279785
     7  C    0.070835
     8  N   -0.390335
     9  H    0.114602
    10  H    0.123933
    11  H    0.127744
    12  H    0.080184
    13  H    0.104495
    14  H    0.108819
    15  H    0.113426
    16  H    0.089321
    17  H    0.098472
    18  H    0.121266
    19  H    0.117742
    20  H    0.212353
 Sum of Mulliken charges =  -0.00000

 Dipole moment (field-independent basis, Debye):
    X=              1.6731    Y=             -2.0314    Z=              0.8702  Tot=              2.7718
 Quadrupole moment (field-independent basis, Debye-Ang):
   XX=            -53.5184   YY=            -50.8873   ZZ=            -49.7805
   XY=              6.9057   XZ=              0.4971   YZ=             -0.7458

  Exact polarizability:  92.813  -2.383  79.551  -4.924   0.136  61.775
 Approx polarizability: 123.526  -6.637 108.903 -11.628   0.903  99.008

                      1                      2                      3
                      A                      A                      A
 Frequencies --     51.7184                73.7589               117.9016
 Red. masses --      3.2859                 2.8336                 2.5012
 Frc consts  --      0.0052                 0.0091                 0.0205
 IR Inten    --      0.9131                 1.6782                 1.1724

                      4                      5                      6
                      A                      A                      A
 Frequencies --    132.0614               217.1556               264.1980
 Red. masses --      2.1966                 1.3266                 1.9017
 Frc consts  --      0.0226                 0.0369                 0.0782
 IR Inten    --      1.2326                 1.0119                 0.1500

                      7                      8                      9
                      A                      A                      A
 Frequencies --    320.6913               367.4060               435.9166
 Red. masses --      2.2059                 2.9217                 2.8209
 Frc consts  --      0.1337                 0.2324                 0.3158
 IR Inten    --      4.9064                 0.8465                 8.0187

                     10                     11                     12
                      A                      A                      A
 Frequencies --    461.9841               507.6434               747.4036
 Red. masses --      2.6614                 1.8568                 1.8218
 Frc consts  --      0.3347                 0.2819                 0.5996
 IR Inten    --      0.4742                 4.8789                10.3059

                     13                     14                     15
                      A                      A                      A
 Frequencies --    759.5394               813.3120               841.2668
 Red. masses --      2.6885                 1.1426                 2.5518
 Frc consts  --      0.9138                 0.4453                 1.0641
 IR Inten    --      4.2080                 0.3640                 3.9242

                     16                     17                     18
                      A                      A                      A
 Frequencies --    895.9746               929.1253               986.3005
 Red. masses --      1.4884                 2.4911                 3.0776
 Frc consts  --      0.7040                 1.2671                 1.7639
 IR Inten    --      2.6921                10.8497                 2.6134

                     19                     20                     21
                      A                      A                      A
 Frequencies --   1027.7073              1061.0702              1088.4361
 Red. masses --      1.8514                 1.5547                 1.9580
 Frc consts  --      1.1521                 1.0313                 1.3667
 IR Inten    --      2.9903                13.1306                14.9097

                     22                     23                     24
                      A                      A                      A
 Frequencies --   1100.0447              1111.7652              1121.3298
 Red. masses --      1.8894                 1.4325                 1.3796
 Frc consts  --      1.3471                 1.0432                 1.0221
 IR Inten    --      3.1430                 1.0961                 4.1987

                     25                     26                     27
                      A                      A                      A
 Frequencies --   1153.9792              1169.2312              1206.4561
 Red. masses --      1.1244                 1.4927                 1.8307
 Frc consts  --      0.8822                 1.2023                 1.5699
 IR Inten    --     32.3613                17.9721                17.2599

                     28                     29                     30
                      A                      A                      A
 Frequencies --   1222.2085              1278.6532              1287.0768
 Red. masses --      1.5793                 1.6290                 1.4097
 Frc consts  --      1.3900                 1.5692                 1.3759
 IR Inten    --     31.1264                21.3970                19.6600

                     31                     32                     33
                      A                      A                      A
 Frequencies --   1313.7481              1321.7122              1387.2924
 Red. masses --      1.2442                 1.3598                 1.2973
 Frc consts  --      1.2652                 1.3996                 1.4710
 IR Inten    --     10.1934                53.8990                20.3133

                     34                     35                     36
                      A                      A                      A
 Frequencies --   1411.3012              1417.9830              1429.3152
 Red. masses --      1.3117                 1.2422                 1.7383
 Frc consts  --      1.5393                 1.4716                 2.0923
 IR Inten    --     17.3532                19.9195                22.9768

                     37                     38                     39
                      A                      A                      A
 Frequencies --   1458.4914              1489.9966              1492.4419
 Red. masses --      1.0954                 1.0407                 1.0600
 Frc consts  --      1.3729                 1.3612                 1.3911
 IR Inten    --      5.2577                 5.5473                 3.3911

                     40                     41                     42
                      A                      A                      A
 Frequencies --   1505.3001              1516.3165              1728.4517
 Red. masses --      1.1655                 1.1582                 8.2120
 Frc consts  --      1.5560                 1.5689                14.4549
 IR Inten    --      1.0936                 5.7975                70.0117

                     43                     44                     45
                      A                      A                      A
 Frequencies --   2934.2130              3020.7599              3038.9535
 Red. masses --      1.0719                 1.0581                 1.0359
 Frc consts  --      5.4373                 5.6887                 5.6368
 IR Inten    --     60.4352                17.0757                14.8985

                     46                     47                     48
                      A                      A                      A
 Frequencies --   3048.1138              3063.0328              3081.8515
 Red. masses --      1.0873                 1.0964                 1.0903
 Frc consts  --      5.9521                 6.0609                 6.1012
 IR Inten    --     27.9093                 1.2078                33.9864

                     49                     50                     51
                      A                      A                      A
 Frequencies --   3089.4331              3094.0356              3108.9125
 Red. masses --      1.0557                 1.0855                 1.1011
 Frc consts  --      5.9370                 6.1227                 6.2704
 IR Inten    --     22.6175                28.8731                35.9273

                     52                     53                     54
                      A                      A                      A
 Frequencies --   3117.7628              3175.8272              3394.9141
 Red. masses --      1.1022                 1.1175                 1.0734
 Frc consts  --      6.3124                 6.6409                 7.2890
 IR Inten    --     23.7298                18.2358                 6.0472

 - Thermochemistry -
 -------------------
 Temperature   298.150 Kelvin.  Pressure   1.00000 Atm.
 Atom     1 has atomic number  6 and mass  12.00000

 Molecular mass:   112.10005 amu.
 Principal axes and moments of inertia in atomic units:
                           1         2         3
     Eigenvalues --   605.034921400.391851885.91384
           X            0.99914   0.04123   0.00420
           Y           -0.04121   0.99914  -0.00448
           Z           -0.00438   0.00430   0.99998
 This molecule is an asymmetric top.
 Rotational symmetry number  1.
 Warning -- assumption of classical behavior for rotation
           may cause significant error
 Rotational temperatures (Kelvin)      0.14316     0.06185     0.04593
 Rotational constants (GHZ):           2.98287     1.28874     0.95696
 Zero-point vibrational energy     462903.8 (Joules/Mol)
                                  110.63667 (Kcal/Mol)
 Warning -- explicit consideration of  11 degrees of freedom as
           vibrations may cause significant error
 Vibrational temperatures:     74.41   106.12   169.63   190.01   312.44
          (Kelvin)            380.12   461.40   528.62   627.19   664.69
                              730.39  1075.35  1092.81  1170.17  1210.40
                             1289.11  1336.80  1419.07  1478.64  1526.64
                             1566.02  1582.72  1599.58  1613.34  1660.32
                             1682.26  1735.82  1758.49  1839.70  1851.82
                             1890.19  1901.65  1996.00  2030.55  2040.16
                             2056.47  2098.44  2143.77  2147.29  2165.79
                             2181.64  2486.86  4221.68  4346.20  4372.38
                             4385.56  4407.02  4434.10  4445.01  4451.63
                             4473.03  4485.77  4569.31  4884.52

 Zero-point correction=                           0.176311 (Hartree/Particle)
 Thermal correction to Energy=                    0.185425
 Thermal correction to Enthalpy=                  0.186369
 Thermal correction to Gibbs Free Energy=         0.141670
 Sum of electronic and zero-point Energies=           -345.153553
 Sum of electronic and thermal Energies=              -345.144439
 Sum of electronic and thermal Enthalpies=            -345.143495
 Sum of electronic and thermal Free Energies=         -345.188194

                     E (Thermal)             CV                S
                      KCal/Mol        Cal/Mol-Kelvin    Cal/Mol-Kelvin
 Total                  116.356             32.521             94.077
 Electronic               0.000              0.000              0.000
 Translational            0.889              2.981             40.058
 Rotational               0.889              2.981             28.859
 Vibrational            114.578             26.559             25.159
 Vibration     1          0.596              1.977              4.751
 Vibration     2          0.599              1.966              4.050
 Vibration     3          0.608              1.934              3.134
 Vibration     4          0.612              1.921              2.916
 Vibration     5          0.646              1.815              1.983
 Vibration     6          0.671              1.739              1.634
 Vibration     7          0.706              1.634              1.307
 Vibration     8          0.740              1.539              1.091
 Vibration     9          0.796              1.392              0.840
 Vibration    10          0.820              1.334              0.760
 Vibration    11          0.863              1.233              0.639

                           ! Non-Optimized Parameters !
 Normal termination of Gaussian 16 at Thu Aug  4 10:48:18 2022.
