 Gaussian 16, Revision A.03,
 Gaussian 16:  ES64L-G16RevA.03 25-Dec-2016

 -----------------------------
 # opt freq b3lyp/6-31g(2df,p)
 -----------------------------

 -------------------
 Title Card Required
 -------------------
 Symbolic Z-matrix:
 Charge =  0 Multiplicity = 1

 SCF Done:  E(RB3LYP) =  -414.274553017     A.U. after   16 cycles
 SCF Done:  E(RB3LYP) =  -414.283004394     A.U. after   13 cycles
 SCF Done:  E(RB3LYP) =  -414.285325447     A.U. after   13 cycles
 SCF Done:  E(RB3LYP) =  -414.289008071     A.U. after   14 cycles
 SCF Done:  E(RB3LYP) =  -414.292150641     A.U. after   13 cycles
 SCF Done:  E(RB3LYP) =  -414.294385483     A.U. after   13 cycles
 SCF Done:  E(RB3LYP) =  -414.296250702     A.U. after   13 cycles
 SCF Done:  E(RB3LYP) =  -414.296540427     A.U. after   13 cycles
 SCF Done:  E(RB3LYP) =  -414.296730949     A.U. after   12 cycles
 SCF Done:  E(RB3LYP) =  -414.296789713     A.U. after   12 cycles
 SCF Done:  E(RB3LYP) =  -414.296819663     A.U. after   10 cycles
 SCF Done:  E(RB3LYP) =  -414.296852031     A.U. after   12 cycles
 SCF Done:  E(RB3LYP) =  -414.296875496     A.U. after   12 cycles
 SCF Done:  E(RB3LYP) =  -414.296902092     A.U. after   12 cycles
 SCF Done:  E(RB3LYP) =  -414.296917253     A.U. after   11 cycles
 SCF Done:  E(RB3LYP) =  -414.296922355     A.U. after   10 cycles
 SCF Done:  E(RB3LYP) =  -414.296922721     A.U. after    8 cycles
 SCF Done:  E(RB3LYP) =  -414.296923065     A.U. after    9 cycles
 SCF Done:  E(RB3LYP) =  -414.296923058     A.U. after    7 cycles
 Optimization completed.
    -- Stationary point found.
 Normal termination of Gaussian 16 at Fri Aug  5 10:47:01 2022.

 ----------------------------------------------------------------------
 #N Geom=AllCheck Guess=TCheck SCRF=Check GenChk RB3LYP/6-31G(2df,p) Fr
 eq
 ----------------------------------------------------------------------

 Structure from the checkpoint file:  "CCN1CdNCdNNdC1.chk"
 -------------------
 Title Card Required
 -------------------
 Charge =  0 Multiplicity = 1

                         Standard orientation:
 ---------------------------------------------------------------------
 Center     Atomic      Atomic             Coordinates (Angstroms)
 Number     Number       Type             X           Y           Z
 ---------------------------------------------------------------------
      1          6           0        2.808082   -0.333224    0.812389
      2          6           0        2.042790    0.385049   -0.297489
      3          7           0        0.593176    0.213904   -0.155977
      4          6           0       -0.239380    1.318215   -0.370572
      5          7           0       -1.481329    1.381462   -0.092001
      6          6           0       -2.061336    0.331229    0.629876
      7          7           0       -1.904524   -0.935893    0.540509
      8          7           0       -1.110018   -1.460147   -0.473842
      9          6           0        0.041391   -0.983792   -0.701239
     10          1           0        3.885417   -0.191858    0.683706
     11          1           0        2.603259   -1.408067    0.796785
     12          1           0        2.518011    0.051448    1.793773
     13          1           0        2.372144    0.018247   -1.281386
     14          1           0        2.255178    1.457607   -0.267610
     15          1           0        0.245764    2.185006   -0.827285
     16          1           0       -2.778908    0.666953    1.377120
     17          1           0        0.668716   -1.479472   -1.443712
 ---------------------------------------------------------------------

 SCF Done:  E(RB3LYP) =  -414.296923058     A.U. after    1 cycles

 The electronic state is 1-A.
 Alpha  occ. eigenvalues --  -14.38036 -14.35446 -14.34881 -14.33329 -10.28268
 Alpha  occ. eigenvalues --  -10.26569 -10.24871 -10.24504 -10.19767  -1.02648
 Alpha  occ. eigenvalues --   -0.96190  -0.92528  -0.82664  -0.76759  -0.70704
 Alpha  occ. eigenvalues --   -0.65135  -0.60420  -0.59959  -0.52961  -0.50866
 Alpha  occ. eigenvalues --   -0.47946  -0.46182  -0.45457  -0.42303  -0.40993
 Alpha  occ. eigenvalues --   -0.39946  -0.37592  -0.35460  -0.33524  -0.30400
 Alpha  occ. eigenvalues --   -0.29073  -0.23787  -0.23175
 Alpha virt. eigenvalues --   -0.05062   0.00038   0.05717   0.07662   0.09754
 Alpha virt. eigenvalues --    0.10971   0.13879   0.14437   0.14796   0.16043
 Alpha virt. eigenvalues --    0.16628   0.17232   0.19802   0.19899   0.24693

 Mulliken charges:
               1
     1  C   -0.370919
     2  C   -0.164733
     3  N   -0.094603
     4  C    0.098331
     5  N   -0.272345
     6  C    0.090004
     7  N   -0.190487
     8  N   -0.199820
     9  C    0.098091
    10  H    0.124260
    11  H    0.135054
    12  H    0.135781
    13  H    0.113354
    14  H    0.119223
    15  H    0.124976
    16  H    0.128219
    17  H    0.125615
 Sum of Mulliken charges =  -0.00000

 Dipole moment (field-independent basis, Debye):
    X=              4.5269    Y=              1.8990    Z=             -0.5332  Tot=              4.9380
 Quadrupole moment (field-independent basis, Debye-Ang):
   XX=            -52.4677   YY=            -56.9072   ZZ=            -51.8138
   XY=             -2.2701   XZ=             -2.3200   YZ=              0.9144

  Exact polarizability:  97.587  -0.411  76.461 -11.820   1.940  57.893
 Approx polarizability: 149.592   3.274 133.796 -22.894   3.576  90.730

                      1                      2                      3
                      A                      A                      A
 Frequencies --     38.2458               109.1355               207.9889
 Red. masses --      2.6173                 3.7470                 1.9111
 Frc consts  --      0.0023                 0.0263                 0.0487
 IR Inten    --      0.2815                 0.4441                 0.7313

                      4                      5                      6
                      A                      A                      A
 Frequencies --    226.0427               309.5949               355.1124
 Red. masses --      1.5437                 3.4485                 2.4241
 Frc consts  --      0.0465                 0.1947                 0.1801
 IR Inten    --      2.3966                 2.3388                 6.0246

                      7                      8                      9
                      A                      A                      A
 Frequencies --    373.4941               429.3532               438.6597
 Red. masses --      4.3620                 4.0366                 2.9704
 Frc consts  --      0.3585                 0.4384                 0.3368
 IR Inten    --      1.3401                 1.5026                36.5611

                     10                     11                     12
                      A                      A                      A
 Frequencies --    458.5327               681.5414               712.0419
 Red. masses --      5.9807                 4.1693                 7.4598
 Frc consts  --      0.7409                 1.1410                 2.2284
 IR Inten    --      9.3328                 2.1913                 9.0344

                     13                     14                     15
                      A                      A                      A
 Frequencies --    794.2427               862.5639               889.1467
 Red. masses --      1.1497                 2.5803                 8.1414
 Frc consts  --      0.4273                 1.1311                 3.7923
 IR Inten    --      3.8272                17.3842                13.1342

                     16                     17                     18
                      A                      A                      A
 Frequencies --    928.3416               942.0783               955.7261
 Red. masses --      2.3737                 1.8925                 1.9452
 Frc consts  --      1.2053                 0.9896                 1.0468
 IR Inten    --     19.2422                27.5711                 1.4971

                     19                     20                     21
                      A                      A                      A
 Frequencies --    982.5075               993.6123              1048.9224
 Red. masses --      2.4211                 1.8657                 3.1455
 Frc consts  --      1.3770                 1.0853                 2.0390
 IR Inten    --      8.9432                35.4496                33.8839

                     22                     23                     24
                      A                      A                      A
 Frequencies --   1092.3449              1122.4644              1193.2194
 Red. masses --      2.8185                 1.9167                 4.7758
 Frc consts  --      1.9815                 1.4228                 4.0062
 IR Inten    --     48.3734                37.3770                52.9353

                     25                     26                     27
                      A                      A                      A
 Frequencies --   1244.4988              1334.8110              1381.5275
 Red. masses --      2.3269                 1.1462                 1.2367
 Frc consts  --      2.1234                 1.2032                 1.3907
 IR Inten    --     68.3870                16.7391                19.7247

                     28                     29                     30
                      A                      A                      A
 Frequencies --   1389.7442              1407.1105              1413.1724
 Red. masses --      1.3515                 1.2307                 1.2349
 Frc consts  --      1.5380                 1.4357                 1.4531
 IR Inten    --     24.3177                13.8846                 5.5185

                     31                     32                     33
                      A                      A                      A
 Frequencies --   1430.5616              1485.7840              1490.8322
 Red. masses --      1.2627                 1.0565                 1.0425
 Frc consts  --      1.5226                 1.3742                 1.3651
 IR Inten    --      9.2633                 3.4721                 5.9178

                     34                     35                     36
                      A                      A                      A
 Frequencies --   1507.9093              1614.9567              1668.6725
 Red. masses --      1.0787                10.4378                 8.1184
 Frc consts  --      1.4451                16.0391                13.3187
 IR Inten    --      3.3646                26.6602                75.7061

                     37                     38                     39
                      A                      A                      A
 Frequencies --   1735.1963              2992.4078              3043.2476
 Red. masses --      9.6534                 1.0693                 1.0350
 Frc consts  --     17.1249                 5.6413                 5.6478
 IR Inten    --    164.3831                47.0132                14.2159

                     40                     41                     42
                      A                      A                      A
 Frequencies --   3080.4518              3094.8416              3116.5064
 Red. masses --      1.0926                 1.0895                 1.1009
 Frc consts  --      6.1087                 6.1483                 6.3001
 IR Inten    --      2.0977                28.8699                31.1568

                     43                     44                     45
                      A                      A                      A
 Frequencies --   3119.4765              3125.8546              3146.8273
 Red. masses --      1.0902                 1.1029                 1.0883
 Frc consts  --      6.2508                 6.3491                 6.3498
 IR Inten    --     13.4887                24.0701                20.6027

 - Thermochemistry -
 -------------------
 Temperature   298.150 Kelvin.  Pressure   1.00000 Atm.
 Atom     1 has atomic number  6 and mass  12.00000

 Molecular mass:   124.07490 amu.
 Principal axes and moments of inertia in atomic units:
                           1         2         3
     Eigenvalues --   563.264051379.593501658.88890
           X            0.99990  -0.01361   0.00227
           Y            0.01362   0.99990  -0.00413
           Z           -0.00221   0.00416   0.99999
 This molecule is an asymmetric top.
 Rotational symmetry number  1.
 Warning -- assumption of classical behavior for rotation
           may cause significant error
 Rotational temperatures (Kelvin)      0.15377     0.06278     0.05221
 Rotational constants (GHZ):           3.20408     1.30817     1.08792
 Zero-point vibrational energy     358696.1 (Joules/Mol)
                                   85.73042 (Kcal/Mol)
 Warning -- explicit consideration of  10 degrees of freedom as
           vibrations may cause significant error
 Vibrational temperatures:     55.03   157.02   299.25   325.23   445.44
          (Kelvin)            510.93   537.37   617.74   631.13   659.73
                              980.59  1024.47  1142.74  1241.04  1279.28
                             1335.68  1355.44  1375.08  1413.61  1429.59
                             1509.17  1571.64  1614.98  1716.78  1790.56
                             1920.50  1987.71  1999.53  2024.52  2033.24
                             2058.26  2137.71  2144.97  2169.55  2323.56
                             2400.85  2496.56  4305.41  4378.55  4432.08
                             4452.79  4483.96  4488.23  4497.41  4527.58

 Zero-point correction=                           0.136620 (Hartree/Particle)
 Thermal correction to Energy=                    0.144832
 Thermal correction to Enthalpy=                  0.145776
 Thermal correction to Gibbs Free Energy=         0.103120
 Sum of electronic and zero-point Energies=           -414.160303
 Sum of electronic and thermal Energies=              -414.152091
 Sum of electronic and thermal Enthalpies=            -414.151147
 Sum of electronic and thermal Free Energies=         -414.193803

                     E (Thermal)             CV                S
                      KCal/Mol        Cal/Mol-Kelvin    Cal/Mol-Kelvin
 Total                   90.884             30.181             89.778
 Electronic               0.000              0.000              0.000
 Translational            0.889              2.981             40.361
 Rotational               0.889              2.981             28.646
 Vibrational             89.106             24.219             20.771
 Vibration     1          0.594              1.982              5.348
 Vibration     2          0.606              1.942              3.284
 Vibration     3          0.641              1.828              2.061
 Vibration     4          0.650              1.801              1.910
 Vibration     5          0.699              1.655              1.364
 Vibration     6          0.731              1.565              1.143
 Vibration     7          0.745              1.527              1.065
 Vibration     8          0.791              1.406              0.861
 Vibration     9          0.799              1.386              0.831
 Vibration    10          0.817              1.342              0.770

 Optimization completed.
    -- Stationary point found.
 Normal termination of Gaussian 16 at Fri Aug  5 11:12:18 2022.
