 Gaussian 16, Revision A.03,
 Gaussian 16:  ES64L-G16RevA.03 25-Dec-2016

 -----------------------------
 # opt freq b3lyp/6-31g(2df,p)
 -----------------------------

 -------------------
 Title Card Required
 -------------------
 Symbolic Z-matrix:
 Charge =  0 Multiplicity = 1

 SCF Done:  E(RB3LYP) =  -435.415547257     A.U. after   14 cycles
 SCF Done:  E(RB3LYP) =  -435.418433550     A.U. after   12 cycles
 SCF Done:  E(RB3LYP) =  -435.419953237     A.U. after   12 cycles
 SCF Done:  E(RB3LYP) =  -435.420200484     A.U. after   11 cycles
 SCF Done:  E(RB3LYP) =  -435.420482975     A.U. after   11 cycles
 SCF Done:  E(RB3LYP) =  -435.420715495     A.U. after   12 cycles
 SCF Done:  E(RB3LYP) =  -435.420901102     A.U. after   12 cycles
 SCF Done:  E(RB3LYP) =  -435.421202092     A.U. after   11 cycles
 SCF Done:  E(RB3LYP) =  -435.421275553     A.U. after   11 cycles
 SCF Done:  E(RB3LYP) =  -435.421302477     A.U. after   10 cycles
 SCF Done:  E(RB3LYP) =  -435.421305480     A.U. after    8 cycles
 SCF Done:  E(RB3LYP) =  -435.421311429     A.U. after   10 cycles
 SCF Done:  E(RB3LYP) =  -435.421317082     A.U. after   10 cycles
 SCF Done:  E(RB3LYP) =  -435.421323995     A.U. after   10 cycles
 SCF Done:  E(RB3LYP) =  -435.421331118     A.U. after   10 cycles
 SCF Done:  E(RB3LYP) =  -435.421333853     A.U. after    9 cycles
 SCF Done:  E(RB3LYP) =  -435.421334221     A.U. after    7 cycles
 SCF Done:  E(RB3LYP) =  -435.421334226     A.U. after    6 cycles
 Optimization completed.
    -- Stationary point found.
 Normal termination of Gaussian 16 at Thu Aug  4 09:55:44 2022.

 ----------------------------------------------------------------------
 #N Geom=AllCheck Guess=TCheck SCRF=Check GenChk RB3LYP/6-31G(2df,p) Fr
 eq
 ----------------------------------------------------------------------

 Structure from the checkpoint file:  "CCn1nccpCOpn1.chk"
 -------------------
 Title Card Required
 -------------------
 Charge =  0 Multiplicity = 1

                         Standard orientation:
 ---------------------------------------------------------------------
 Center     Atomic      Atomic             Coordinates (Angstroms)
 Number     Number       Type             X           Y           Z
 ---------------------------------------------------------------------
      1          6           0       -3.206114   -0.561454    0.573955
      2          6           0       -2.393158   -0.128925   -0.646292
      3          7           0       -1.008850    0.172037   -0.311134
      4          7           0       -0.615269    1.391975    0.038329
      5          6           0        0.674526    1.231742    0.337438
      6          6           0        1.018500   -0.119231    0.157509
      7          6           0        2.339626   -0.802192    0.340148
      8          8           0        3.416041   -0.066614   -0.226025
      9          7           0       -0.073221   -0.769817   -0.259010
     10          1           0       -4.236580   -0.778060    0.277185
     11          1           0       -3.221732    0.231024    1.326955
     12          1           0       -2.777964   -1.462002    1.022033
     13          1           0       -2.806203    0.776954   -1.094205
     14          1           0       -2.369795   -0.917097   -1.401936
     15          1           0        1.286013    2.064227    0.645860
     16          1           0        2.270163   -1.821913   -0.063505
     17          1           0        2.583632   -0.888928    1.404759
     18          1           0        3.225246    0.049699   -1.162794
 ---------------------------------------------------------------------

 SCF Done:  E(RB3LYP) =  -435.421334226     A.U. after    1 cycles

 The electronic state is 1-A.
 Alpha  occ. eigenvalues --  -19.13923 -14.43379 -14.35790 -14.35696 -10.23673
 Alpha  occ. eigenvalues --  -10.23601 -10.20982 -10.20540 -10.19005  -1.10052
 Alpha  occ. eigenvalues --   -1.01991  -0.88562  -0.85769  -0.75896  -0.70253
 Alpha  occ. eigenvalues --   -0.65151  -0.60857  -0.57383  -0.52683  -0.49389
 Alpha  occ. eigenvalues --   -0.48099  -0.46297  -0.44354  -0.43684  -0.43152
 Alpha  occ. eigenvalues --   -0.39626  -0.38293  -0.36698  -0.33771  -0.32420
 Alpha  occ. eigenvalues --   -0.29105  -0.28571  -0.27878  -0.24947
 Alpha virt. eigenvalues --   -0.00245   0.04335   0.09432   0.10017   0.13094
 Alpha virt. eigenvalues --    0.13282   0.14049   0.14695   0.15798   0.16667
 Alpha virt. eigenvalues --    0.17163   0.17881   0.20245   0.21706   0.23857

 Mulliken charges:
               1
     1  C   -0.379153
     2  C   -0.127782
     3  N    0.146875
     4  N   -0.226232
     5  C   -0.128769
     6  C    0.258433
     7  C   -0.165437
     8  O   -0.412190
     9  N   -0.298954
    10  H    0.124220
    11  H    0.140033
    12  H    0.140339
    13  H    0.139706
    14  H    0.137163
    15  H    0.131454
    16  H    0.110559
    17  H    0.125195
    18  H    0.284540
 Sum of Mulliken charges =   0.00000

 Dipole moment (field-independent basis, Debye):
    X=             -1.6966    Y=             -0.6132    Z=             -0.7112  Tot=              1.9391
 Quadrupole moment (field-independent basis, Debye-Ang):
   XX=            -51.6942   YY=            -55.4855   ZZ=            -49.7221
   XY=              1.5806   XZ=             -0.6508   YZ=             -0.3864

  Exact polarizability: 101.307   1.447  70.366   5.247   2.083  55.584
 Approx polarizability: 136.378   1.500 118.344  12.048   6.727  85.094

                      1                      2                      3
                      A                      A                      A
 Frequencies --     26.4956                30.6029               108.5846
 Red. masses --      2.8963                 3.0329                 3.9932
 Frc consts  --      0.0012                 0.0017                 0.0277
 IR Inten    --      0.9416                 0.8438                 1.4606

                      4                      5                      6
                      A                      A                      A
 Frequencies --    169.6220               213.3694               266.6109
 Red. masses --      4.0368                 1.2803                 1.7272
 Frc consts  --      0.0684                 0.0343                 0.0723
 IR Inten    --      1.4250                 0.3484                10.0347

                      7                      8                      9
                      A                      A                      A
 Frequencies --    350.0412               369.1404               402.9519
 Red. masses --      1.2623                 3.1522                 3.5306
 Frc consts  --      0.0911                 0.2531                 0.3378
 IR Inten    --    122.6118                 9.5254                 8.0479

                     10                     11                     12
                      A                      A                      A
 Frequencies --    471.3537               651.9124               699.3680
 Red. masses --      3.8803                 3.6883                 9.7365
 Frc consts  --      0.5079                 0.9236                 2.8058
 IR Inten    --      0.9144                 8.2869                 3.2981

                     13                     14                     15
                      A                      A                      A
 Frequencies --    716.1124               757.9901               795.8711
 Red. masses --      3.7494                 3.9748                 1.1705
 Frc consts  --      1.1329                 1.3455                 0.4368
 IR Inten    --      8.6134                16.7163                 0.3180

                     16                     17                     18
                      A                      A                      A
 Frequencies --    879.4993               971.6755               980.9356
 Red. masses --      1.3325                 2.2408                 1.7225
 Frc consts  --      0.6073                 1.2465                 0.9765
 IR Inten    --     12.9389                44.0371                 8.5555

                     19                     20                     21
                      A                      A                      A
 Frequencies --   1022.0155              1037.1545              1070.1230
 Red. masses --      4.5361                 6.1512                 3.3380
 Frc consts  --      2.7916                 3.8985                 2.2522
 IR Inten    --     28.7994                18.8277                63.8742

                     22                     23                     24
                      A                      A                      A
 Frequencies --   1102.9436              1113.8839              1193.7694
 Red. masses --      1.9287                 2.3187                 1.4181
 Frc consts  --      1.3823                 1.6950                 1.1907
 IR Inten    --      5.9775                 7.9693                12.1457

                     25                     26                     27
                      A                      A                      A
 Frequencies --   1208.8633              1263.9294              1339.0832
 Red. masses --      1.2485                 1.7816                 2.5135
 Frc consts  --      1.0750                 1.6769                 2.6554
 IR Inten    --      8.4077                 2.2426                11.7154

                     28                     29                     30
                      A                      A                      A
 Frequencies --   1366.4783              1386.3205              1389.1550
 Red. masses --      2.2665                 1.5019                 1.7865
 Frc consts  --      2.4935                 1.7006                 2.0312
 IR Inten    --      8.4914                 0.9031                45.0627

                     31                     32                     33
                      A                      A                      A
 Frequencies --   1405.2743              1411.3104              1430.4315
 Red. masses --      1.5718                 1.5660                 1.8552
 Frc consts  --      1.8288                 1.8378                 2.2366
 IR Inten    --     29.7169                34.8085                20.2983

                     34                     35                     36
                      A                      A                      A
 Frequencies --   1449.1142              1474.8852              1489.2451
 Red. masses --      4.2890                 1.0897                 1.0393
 Frc consts  --      5.3066                 1.3966                 1.3581
 IR Inten    --      2.3005                 3.0018                 7.3003

                     37                     38                     39
                      A                      A                      A
 Frequencies --   1501.0707              1505.6666              1550.2139
 Red. masses --      1.0828                 1.0652                 5.9471
 Frc consts  --      1.4374                 1.4228                 8.4205
 IR Inten    --      0.9359                 1.4998                 1.6332

                     40                     41                     42
                      A                      A                      A
 Frequencies --   3011.4237              3046.7630              3065.9217
 Red. masses --      1.0646                 1.0344                 1.0980
 Frc consts  --      5.6880                 5.6573                 6.0812
 IR Inten    --     40.3542                15.9717                20.5346

                     43                     44                     45
                      A                      A                      A
 Frequencies --   3080.4216              3120.3773              3122.9488
 Red. masses --      1.0593                 1.1035                 1.1007
 Frc consts  --      5.9223                 6.3303                 6.3246
 IR Inten    --     14.6153                 2.1095                26.6682

                     46                     47                     48
                      A                      A                      A
 Frequencies --   3144.3473              3274.2276              3809.9007
 Red. masses --      1.1067                 1.0976                 1.0662
 Frc consts  --      6.4470                 6.9328                 9.1183
 IR Inten    --     14.1508                 0.4949                17.8600

 - Thermochemistry -
 -------------------
 Temperature   298.150 Kelvin.  Pressure   1.00000 Atm.
 Atom     1 has atomic number  6 and mass  12.00000

 Molecular mass:   127.07456 amu.
 Principal axes and moments of inertia in atomic units:
                           1         2         3
     Eigenvalues --   370.103822073.650082265.23834
           X            0.99998   0.00644  -0.00267
           Y           -0.00648   0.99985  -0.01580
           Z            0.00257   0.01582   0.99987
 This molecule is an asymmetric top.
 Rotational symmetry number  1.
 Rotational temperatures (Kelvin)      0.23403     0.04177     0.03824
 Rotational constants (GHZ):           4.87631     0.87032     0.79671
 Zero-point vibrational energy     390278.1 (Joules/Mol)
                                   93.27870 (Kcal/Mol)
 Warning -- explicit consideration of  10 degrees of freedom as
           vibrations may cause significant error
 Vibrational temperatures:     38.12    44.03   156.23   244.05   306.99
          (Kelvin)            383.59   503.63   531.11   579.76   678.17
                              937.96  1006.23  1030.33  1090.58  1145.08
                             1265.40  1398.02  1411.35  1470.45  1492.23
                             1539.67  1586.89  1602.63  1717.57  1739.28
                             1818.51  1926.64  1966.06  1994.61  1998.68
                             2021.88  2030.56  2058.07  2084.95  2122.03
                             2142.69  2159.71  2166.32  2230.41  4332.77
                             4383.61  4411.18  4432.04  4489.53  4493.23
                             4524.01  4710.88  5481.60

 Zero-point correction=                           0.148649 (Hartree/Particle)
 Thermal correction to Energy=                    0.157766
 Thermal correction to Enthalpy=                  0.158710
 Thermal correction to Gibbs Free Energy=         0.112625
 Sum of electronic and zero-point Energies=           -435.272685
 Sum of electronic and thermal Energies=              -435.263569
 Sum of electronic and thermal Enthalpies=            -435.262624
 Sum of electronic and thermal Free Energies=         -435.308709

                     E (Thermal)             CV                S
                      KCal/Mol        Cal/Mol-Kelvin    Cal/Mol-Kelvin
 Total                   98.999             31.815             96.994
 Electronic               0.000              0.000              0.000
 Translational            0.889              2.981             40.432
 Rotational               0.889              2.981             28.943
 Vibrational             97.222             25.853             27.619
 Vibration     1          0.593              1.984              6.076
 Vibration     2          0.594              1.984              5.790
 Vibration     3          0.606              1.942              3.294
 Vibration     4          0.625              1.880              2.440
 Vibration     5          0.644              1.821              2.015
 Vibration     6          0.672              1.734              1.618
 Vibration     7          0.727              1.575              1.166
 Vibration     8          0.741              1.536              1.083
 Vibration     9          0.768              1.464              0.952
 Vibration    10          0.828              1.314              0.734

 Optimization completed.
    -- Stationary point found.
 Normal termination of Gaussian 16 at Thu Aug  4 10:20:34 2022.
