 Gaussian 16, Revision A.03,
 Gaussian 16:  ES64L-G16RevA.03 25-Dec-2016

 -----------------------------
 # opt freq b3lyp/6-31g(2df,p)
 -----------------------------

 -------------------
 Title Card Required
 -------------------
 Symbolic Z-matrix:
 Charge =  0 Multiplicity = 1

 SCF Done:  E(RB3LYP) =  -404.545474351     A.U. after   13 cycles
 SCF Done:  E(RB3LYP) =  -404.551536777     A.U. after   11 cycles
 SCF Done:  E(RB3LYP) =  -404.554726016     A.U. after   11 cycles
 SCF Done:  E(RB3LYP) =  -404.556257838     A.U. after   11 cycles
 SCF Done:  E(RB3LYP) =  -404.556517084     A.U. after   10 cycles
 SCF Done:  E(RB3LYP) =  -404.556635494     A.U. after   10 cycles
 SCF Done:  E(RB3LYP) =  -404.556703925     A.U. after   10 cycles
 SCF Done:  E(RB3LYP) =  -404.556844645     A.U. after   10 cycles
 SCF Done:  E(RB3LYP) =  -404.556994669     A.U. after   10 cycles
 SCF Done:  E(RB3LYP) =  -404.556975799     A.U. after   10 cycles
 SCF Done:  E(RB3LYP) =  -404.557005689     A.U. after    9 cycles
 SCF Done:  E(RB3LYP) =  -404.557005500     A.U. after    8 cycles
 SCF Done:  E(RB3LYP) =  -404.557006413     A.U. after    7 cycles
 Optimization completed.
    -- Stationary point found.
 Normal termination of Gaussian 16 at Thu Aug  4 08:12:35 2022.

 ----------------------------------------------------------------------
 #N Geom=AllCheck Guess=TCheck SCRF=Check GenChk RB3LYP/6-31G(2df,p) Fr
 eq
 ----------------------------------------------------------------------

 Structure from the checkpoint file:  "CCNC1dCCCpOpC1.chk"
 -------------------
 Title Card Required
 -------------------
 Charge =  0 Multiplicity = 1

                         Standard orientation:
 ---------------------------------------------------------------------
 Center     Atomic      Atomic             Coordinates (Angstroms)
 Number     Number       Type             X           Y           Z
 ---------------------------------------------------------------------
      1          6           0        3.812482   -0.264007   -0.225859
      2          6           0        2.473563    0.458033   -0.118354
      3          7           0        1.386536   -0.486015    0.076317
      4          6           0        0.091421   -0.032263    0.220091
      5          6           0       -0.414421    1.190072   -0.033680
      6          6           0       -1.901567    1.233944    0.238679
      7          6           0       -2.289525   -0.265395    0.269152
      8          8           0       -2.725497   -0.715912   -1.007034
      9          6           0       -0.987497   -0.981447    0.699026
     10          1           0        4.622288    0.450724   -0.395194
     11          1           0        3.804439   -0.980068   -1.053059
     12          1           0        4.041819   -0.811205    0.696093
     13          1           0        2.276099    1.014080   -1.043481
     14          1           0        2.506920    1.206235    0.691765
     15          1           0        1.621132   -1.278304    0.656736
     16          1           0        0.156834    2.055674   -0.342571
     17          1           0       -2.489298    1.753456   -0.527184
     18          1           0       -2.131554    1.724769    1.196763
     19          1           0       -3.122779   -0.476140    0.944122
     20          1           0       -2.032985   -0.478385   -1.635358
     21          1           0       -0.925726   -1.978229    0.249000
     22          1           0       -0.935700   -1.106820    1.790076
 ---------------------------------------------------------------------

 SCF Done:  E(RB3LYP) =  -404.557006413     A.U. after    1 cycles

 The electronic state is 1-A.
 Alpha  occ. eigenvalues --  -19.12121 -14.33451 -10.22222 -10.21582 -10.20522
 Alpha  occ. eigenvalues --  -10.18533 -10.17798 -10.17019 -10.15288  -1.00549
 Alpha  occ. eigenvalues --   -0.92712  -0.81553  -0.75165  -0.69921  -0.67495
 Alpha  occ. eigenvalues --   -0.62506  -0.57912  -0.53578  -0.50581  -0.48078
 Alpha  occ. eigenvalues --   -0.46631  -0.44819  -0.44320  -0.40975  -0.39836
 Alpha  occ. eigenvalues --   -0.38305  -0.37327  -0.36436  -0.35533  -0.34877
 Alpha  occ. eigenvalues --   -0.34278  -0.30989  -0.29043  -0.25273  -0.18926
 Alpha virt. eigenvalues --    0.05169   0.08462   0.09585   0.10773   0.12503
 Alpha virt. eigenvalues --    0.12882   0.13621   0.15288   0.16003   0.16428
 Alpha virt. eigenvalues --    0.17730   0.18937   0.19277   0.19539   0.20089

 Mulliken charges:
               1
     1  C   -0.402575
     2  C   -0.106086
     3  N   -0.386779
     4  C    0.386629
     5  C   -0.223030
     6  C   -0.267008
     7  C    0.136716
     8  O   -0.437830
     9  C   -0.335305
    10  H    0.123948
    11  H    0.129026
    12  H    0.115961
    13  H    0.113813
    14  H    0.094745
    15  H    0.229186
    16  H    0.073204
    17  H    0.098219
    18  H    0.092929
    19  H    0.076916
    20  H    0.278638
    21  H    0.107309
    22  H    0.101374
 Sum of Mulliken charges =  -0.00000

 Dipole moment (field-independent basis, Debye):
    X=              2.7528    Y=              0.0194    Z=              0.9473  Tot=              2.9113
 Quadrupole moment (field-independent basis, Debye-Ang):
   XX=            -58.1807   YY=            -55.2954   ZZ=            -54.0573
   XY=             -2.5687   XZ=             -2.2066   YZ=             -2.5826

  Exact polarizability: 107.434  -6.282  83.934  -2.191  -3.785  68.342
 Approx polarizability: 130.530 -13.207 133.878  -0.765  -6.933 105.375

                      1                      2                      3
                      A                      A                      A
 Frequencies --     57.5841                94.6058               131.5190
 Red. masses --      3.5150                 2.2078                 2.8415
 Frc consts  --      0.0069                 0.0116                 0.0290
 IR Inten    --      0.1442                 0.5259                 0.5477

                      4                      5                      6
                      A                      A                      A
 Frequencies --    148.5183               232.7722               265.4458
 Red. masses --      2.5845                 2.3890                 1.3180
 Frc consts  --      0.0336                 0.0763                 0.0547
 IR Inten    --      3.3784                 2.3869                 0.4129

                      7                      8                      9
                      A                      A                      A
 Frequencies --    331.4888               375.9318               387.0217
 Red. masses --      2.9262                 1.2458                 2.0586
 Frc consts  --      0.1894                 0.1037                 0.1817
 IR Inten    --      0.3591                18.7060                27.9905

                     10                     11                     12
                      A                      A                      A
 Frequencies --    404.6795               451.8132               495.2852
 Red. masses --      2.0634                 1.9634                 1.8235
 Frc consts  --      0.1991                 0.2361                 0.2636
 IR Inten    --     21.5334                30.8213               115.8646

                     13                     14                     15
                      A                      A                      A
 Frequencies --    523.6476               708.7664               765.6963
 Red. masses --      2.3127                 3.5897                 4.0578
 Frc consts  --      0.3736                 1.0625                 1.4017
 IR Inten    --      7.5007                 1.3518                 8.4441

                     16                     17                     18
                      A                      A                      A
 Frequencies --    780.7612               823.2277               841.5885
 Red. masses --      1.4370                 1.1373                 2.9107
 Frc consts  --      0.5161                 0.4541                 1.2146
 IR Inten    --     14.7161                 0.1529                22.9796

                     19                     20                     21
                      A                      A                      A
 Frequencies --    891.8359               905.5571               935.5569
 Red. masses --      1.9200                 2.1994                 2.5467
 Frc consts  --      0.8998                 1.0626                 1.3133
 IR Inten    --      3.1789                 1.9815                 4.1640

                     22                     23                     24
                      A                      A                      A
 Frequencies --    948.9949               990.9202              1050.0141
 Red. masses --      2.0622                 1.8127                 1.9006
 Frc consts  --      1.0942                 1.0487                 1.2346
 IR Inten    --     11.4863                 5.7194                 0.8330

                     25                     26                     27
                      A                      A                      A
 Frequencies --   1067.1738              1075.8394              1145.3375
 Red. masses --      2.0592                 2.3996                 1.4239
 Frc consts  --      1.3817                 1.6364                 1.1005
 IR Inten    --     26.9128                20.2233                 4.7435

                     28                     29                     30
                      A                      A                      A
 Frequencies --   1159.7941              1168.0736              1174.8893
 Red. masses --      1.4858                 1.6046                 1.1816
 Frc consts  --      1.1776                 1.2899                 0.9610
 IR Inten    --      7.3546                34.4974                64.2785

                     31                     32                     33
                      A                      A                      A
 Frequencies --   1227.8091              1270.1893              1291.2989
 Red. masses --      1.8929                 1.5542                 1.1917
 Frc consts  --      1.6813                 1.4774                 1.1708
 IR Inten    --     10.8256                11.9705                 8.9878

                     34                     35                     36
                      A                      A                      A
 Frequencies --   1302.8579              1307.8686              1322.4543
 Red. masses --      1.8032                 1.7741                 1.5208
 Frc consts  --      1.8034                 1.7880                 1.5671
 IR Inten    --     13.8627                62.4109                 5.8231

                     37                     38                     39
                      A                      A                      A
 Frequencies --   1347.0293              1394.1859              1415.7795
 Red. masses --      1.5459                 1.4241                 1.3691
 Frc consts  --      1.6527                 1.6310                 1.6168
 IR Inten    --      3.6936                 0.2074                 4.9925

                     40                     41                     42
                      A                      A                      A
 Frequencies --   1433.5536              1472.4424              1490.8706
 Red. masses --      1.2126                 1.0951                 1.0746
 Frc consts  --      1.4682                 1.3988                 1.4072
 IR Inten    --     66.7864                 5.8587                15.6245

                     43                     44                     45
                      A                      A                      A
 Frequencies --   1492.3494              1499.9731              1517.9344
 Red. masses --      1.1023                 1.0495                 1.5671
 Frc consts  --      1.4464                 1.3912                 2.1274
 IR Inten    --      8.8590                14.2269                90.4592

                     46                     47                     48
                      A                      A                      A
 Frequencies --   1528.3970              1700.3117              2958.4379
 Red. masses --      1.0868                 6.2844                 1.0724
 Frc consts  --      1.4958                10.7047                 5.5303
 IR Inten    --      7.9870               125.2400                49.9568

                     49                     50                     51
                      A                      A                      A
 Frequencies --   2984.9195              3005.9774              3031.3082
 Red. masses --      1.0706                 1.0665                 1.0582
 Frc consts  --      5.6202                 5.6779                 5.7288
 IR Inten    --     65.6123                32.5117                12.9237

                     52                     53                     54
                      A                      A                      A
 Frequencies --   3037.3447              3048.8563              3068.9296
 Red. masses --      1.0660                 1.0906                 1.0947
 Frc consts  --      5.7944                 5.9731                 6.0748
 IR Inten    --     27.2120                33.2023                18.6776

                     55                     56                     57
                      A                      A                      A
 Frequencies --   3083.4885              3100.9031              3121.1198
 Red. masses --      1.0874                 1.0989                 1.1018
 Frc consts  --      6.0915                 6.2255                 6.3238
 IR Inten    --     54.9322                33.6613                22.9396

                     58                     59                     60
                      A                      A                      A
 Frequencies --   3209.8735              3591.3692              3783.2140
 Red. masses --      1.0925                 1.0753                 1.0655
 Frc consts  --      6.6319                 8.1718                 8.9848
 IR Inten    --     17.4272                10.6340                10.3630

 - Thermochemistry -
 -------------------
 Temperature   298.150 Kelvin.  Pressure   1.00000 Atm.
 Atom     1 has atomic number  6 and mass  12.00000

 Molecular mass:   127.09971 amu.
 Principal axes and moments of inertia in atomic units:
                           1         2         3
     Eigenvalues --   435.743352300.428122468.94867
           X            0.99993  -0.00807  -0.00893
           Y            0.00761   0.99866  -0.05112
           Z            0.00933   0.05104   0.99865
 This molecule is an asymmetric top.
 Rotational symmetry number  1.
 Warning -- assumption of classical behavior for rotation
           may cause significant error
 Rotational temperatures (Kelvin)      0.19877     0.03765     0.03508
 Rotational constants (GHZ):           4.14175     0.78452     0.73098
 Zero-point vibrational energy     510658.2 (Joules/Mol)
                                  122.05024 (Kcal/Mol)
 Warning -- explicit consideration of  13 degrees of freedom as
           vibrations may cause significant error
 Vibrational temperatures:     82.85   136.12   189.23   213.68   334.91
          (Kelvin)            381.92   476.94   540.88   556.84   582.24
                              650.06   712.60   753.41  1019.76  1101.67
                             1123.34  1184.44  1210.86  1283.15  1302.89
                             1346.06  1365.39  1425.71  1510.74  1535.43
                             1547.89  1647.89  1668.69  1680.60  1690.40
                             1766.54  1827.52  1857.89  1874.52  1881.73
                             1902.72  1938.07  2005.92  2036.99  2062.56
                             2118.52  2145.03  2147.16  2158.13  2183.97
                             2199.02  2446.37  4256.53  4294.63  4324.93
                             4361.38  4370.06  4386.62  4415.51  4436.45
                             4461.51  4490.60  4618.29  5167.18  5443.20

 Zero-point correction=                           0.194499 (Hartree/Particle)
 Thermal correction to Energy=                    0.204192
 Thermal correction to Enthalpy=                  0.205136
 Thermal correction to Gibbs Free Energy=         0.159655
 Sum of electronic and zero-point Energies=           -404.362507
 Sum of electronic and thermal Energies=              -404.352815
 Sum of electronic and thermal Enthalpies=            -404.351870
 Sum of electronic and thermal Free Energies=         -404.397351

                     E (Thermal)             CV                S
                      KCal/Mol        Cal/Mol-Kelvin    Cal/Mol-Kelvin
 Total                  128.132             36.542             95.722
 Electronic               0.000              0.000              0.000
 Translational            0.889              2.981             40.433
 Rotational               0.889              2.981             29.294
 Vibrational            126.355             30.580             25.995
 Vibration     1          0.596              1.974              4.538
 Vibration     2          0.603              1.953              3.563
 Vibration     3          0.612              1.922              2.924
 Vibration     4          0.618              1.904              2.691
 Vibration     5          0.654              1.791              1.857
 Vibration     6          0.671              1.736              1.626
 Vibration     7          0.714              1.613              1.253
 Vibration     8          0.747              1.521              1.055
 Vibration     9          0.755              1.498              1.012
 Vibration    10          0.770              1.460              0.946
 Vibration    11          0.810              1.357              0.790
 Vibration    12          0.851              1.260              0.670
 Vibration    13          0.879              1.198              0.602

 Optimization completed.
    -- Stationary point found.
 Normal termination of Gaussian 16 at Thu Aug  4 08:42:51 2022.
