 Gaussian 16, Revision A.03,
 Gaussian 16:  ES64L-G16RevA.03 25-Dec-2016

 -----------------------------
 # opt freq b3lyp/6-31g(2df,p)
 -----------------------------

 -------------------
 Title Card Required
 -------------------
 Symbolic Z-matrix:
 Charge =  0 Multiplicity = 1

 SCF Done:  E(RB3LYP) =  -364.004624327     A.U. after   14 cycles
 SCF Done:  E(RB3LYP) =  -364.013078190     A.U. after   13 cycles
 SCF Done:  E(RB3LYP) =  -364.016792465     A.U. after   13 cycles
 SCF Done:  E(RB3LYP) =  -364.017331369     A.U. after   13 cycles
 SCF Done:  E(RB3LYP) =  -364.017841825     A.U. after   11 cycles
 SCF Done:  E(RB3LYP) =  -364.018060087     A.U. after   11 cycles
 SCF Done:  E(RB3LYP) =  -364.018361315     A.U. after   12 cycles
 SCF Done:  E(RB3LYP) =  -364.018596956     A.U. after   12 cycles
 SCF Done:  E(RB3LYP) =  -364.018828068     A.U. after   12 cycles
 SCF Done:  E(RB3LYP) =  -364.018877820     A.U. after   11 cycles
 SCF Done:  E(RB3LYP) =  -364.018894939     A.U. after   10 cycles
 SCF Done:  E(RB3LYP) =  -364.018913739     A.U. after   10 cycles
 SCF Done:  E(RB3LYP) =  -364.018928050     A.U. after   10 cycles
 SCF Done:  E(RB3LYP) =  -364.018936652     A.U. after   10 cycles
 SCF Done:  E(RB3LYP) =  -364.018936672     A.U. after    8 cycles
 SCF Done:  E(RB3LYP) =  -364.018936896     A.U. after    9 cycles
 SCF Done:  E(RB3LYP) =  -364.018936877     A.U. after    7 cycles
 Optimization completed.
    -- Stationary point found.
 Normal termination of Gaussian 16 at Sun Jul  3 23:35:35 2022.

 ----------------------------------------------------------------------
 #N Geom=AllCheck Guess=TCheck SCRF=Check GenChk RB3LYP/6-31G(2df,p) Fr
 eq
 ----------------------------------------------------------------------

 Structure from the checkpoint file:  "CCNC1dCCpdOpC1.chk"
 -------------------
 Title Card Required
 -------------------
 Charge =  0 Multiplicity = 1

                         Standard orientation:
 ---------------------------------------------------------------------
 Center     Atomic      Atomic             Coordinates (Angstroms)
 Number     Number       Type             X           Y           Z
 ---------------------------------------------------------------------
      1          6           0        3.128278   -0.358318    0.675582
      2          6           0        2.207109   -0.190009   -0.535084
      3          7           0        1.118587    0.746634   -0.297619
      4          6           0       -0.168853    0.414357   -0.134825
      5          6           0       -1.318172    1.107373    0.157823
      6          6           0       -2.126029   -0.103286    0.093208
      7          8           0       -3.281587   -0.414771    0.229437
      8          6           0       -0.835968   -0.947972   -0.248269
      9          1           0        3.941425   -1.052548    0.441852
     10          1           0        2.575518   -0.747521    1.535442
     11          1           0        3.577525    0.597660    0.965114
     12          1           0        1.757166   -1.147645   -0.808540
     13          1           0        2.786818    0.148945   -1.402847
     14          1           0        1.372473    1.712603   -0.151110
     15          1           0       -1.532317    2.148838    0.357079
     16          1           0       -0.825973   -1.409026   -1.241995
     17          1           0       -0.548230   -1.692457    0.502230
 ---------------------------------------------------------------------

 SCF Done:  E(RB3LYP) =  -364.018936877     A.U. after    1 cycles

 The electronic state is 1-A.
 Alpha  occ. eigenvalues --  -19.09362 -14.37544 -10.24570 -10.24293 -10.24199
 Alpha  occ. eigenvalues --  -10.19852 -10.18871 -10.16506  -1.00461  -0.96359
 Alpha  occ. eigenvalues --   -0.84492  -0.77075  -0.67229  -0.65039  -0.60662
 Alpha  occ. eigenvalues --   -0.51953  -0.50776  -0.47749  -0.46392  -0.44853
 Alpha  occ. eigenvalues --   -0.42723  -0.40923  -0.39610  -0.37536  -0.37041
 Alpha  occ. eigenvalues --   -0.35533  -0.34259  -0.33047  -0.21686  -0.21473
 Alpha virt. eigenvalues --    0.00265   0.06289   0.07501   0.09163   0.11319
 Alpha virt. eigenvalues --    0.12780   0.13421   0.14839   0.15545   0.15884
 Alpha virt. eigenvalues --    0.16919   0.19024   0.20567   0.21133   0.25802

 Mulliken charges:
               1
     1  C   -0.372760
     2  C   -0.157367
     3  N   -0.374930
     4  C    0.458116
     5  C   -0.392150
     6  C    0.423333
     7  O   -0.350974
     8  C   -0.456649
     9  H    0.126464
    10  H    0.133830
    11  H    0.120317
    12  H    0.139966
    13  H    0.117515
    14  H    0.251589
    15  H    0.095665
    16  H    0.119913
    17  H    0.118122
 Sum of Mulliken charges =  -0.00000

 Dipole moment (field-independent basis, Debye):
    X=              6.4535    Y=              1.0957    Z=             -0.5983  Tot=              6.5731
 Quadrupole moment (field-independent basis, Debye-Ang):
   XX=            -59.4983   YY=            -43.5807   ZZ=            -47.7579
   XY=             -1.2392   XZ=              0.6994   YZ=              0.5979

  Exact polarizability: 110.039  -0.332  69.295  -5.188   2.915  50.317
 Approx polarizability: 165.554   4.256 105.880 -13.423   4.338  76.085

                      1                      2                      3
                      A                      A                      A
 Frequencies --     26.1439                92.6434               139.3494
 Red. masses --      3.0043                 2.8510                 6.0983
 Frc consts  --      0.0012                 0.0144                 0.0698
 IR Inten    --      0.8371                 0.7262                 2.0355

                      4                      5                      6
                      A                      A                      A
 Frequencies --    176.9319               260.8898               378.5098
 Red. masses --      1.8820                 1.3387                 3.2197
 Frc consts  --      0.0347                 0.0537                 0.2718
 IR Inten    --      0.8159                 0.1183                 0.0355

                      7                      8                      9
                      A                      A                      A
 Frequencies --    435.9809               489.3087               535.0775
 Red. masses --      3.5641                 1.4071                 3.1507
 Frc consts  --      0.3991                 0.1985                 0.5315
 IR Inten    --      2.0997                40.4093                 6.4465

                     10                     11                     12
                      A                      A                      A
 Frequencies --    542.6343               591.0345               638.8657
 Red. masses --      1.3255                 3.2561                 3.5271
 Frc consts  --      0.2300                 0.6702                 0.8482
 IR Inten    --     36.3541                11.9978                 3.6677

                     13                     14                     15
                      A                      A                      A
 Frequencies --    744.7897               802.3034               816.2818
 Red. masses --      2.9116                 1.1977                 1.6835
 Frc consts  --      0.9516                 0.4542                 0.6609
 IR Inten    --      2.5622                 1.1053                44.6326

                     16                     17                     18
                      A                      A                      A
 Frequencies --    907.5545               988.3304              1010.4468
 Red. masses --      2.1739                 4.1731                 1.8773
 Frc consts  --      1.0550                 2.4017                 1.1293
 IR Inten    --      5.9767                 9.5085                 0.0190

                     19                     20                     21
                      A                      A                      A
 Frequencies --   1041.9145              1066.3746              1090.4601
 Red. masses --      2.9848                 2.4541                 1.2100
 Frc consts  --      1.9091                 1.6442                 0.8477
 IR Inten    --     50.5855                11.8307                 1.0465

                     22                     23                     24
                      A                      A                      A
 Frequencies --   1119.8808              1158.5638              1181.6689
 Red. masses --      1.7419                 2.0613                 1.5226
 Frc consts  --      1.2871                 1.6302                 1.2526
 IR Inten    --      8.1350                39.0267                 5.7013

                     25                     26                     27
                      A                      A                      A
 Frequencies --   1253.1438              1303.0626              1382.3769
 Red. masses --      1.9994                 1.3168                 1.3841
 Frc consts  --      1.8500                 1.3173                 1.5583
 IR Inten    --      6.5952                22.8600                89.3234

                     28                     29                     30
                      A                      A                      A
 Frequencies --   1405.2433              1412.4870              1458.9439
 Red. masses --      2.9661                 1.2791                 1.1974
 Frc consts  --      3.4509                 1.5036                 1.5017
 IR Inten    --     10.7360                12.2506                24.8032

                     31                     32                     33
                      A                      A                      A
 Frequencies --   1478.3615              1487.4575              1495.6735
 Red. masses --      1.1988                 1.0615                 1.0992
 Frc consts  --      1.5436                 1.3838                 1.4488
 IR Inten    --      2.3697                 0.7651                15.6228

                     34                     35                     36
                      A                      A                      A
 Frequencies --   1507.6567              1674.4796              1869.3254
 Red. masses --      1.1002                 5.8418                11.8913
 Frc consts  --      1.4735                 9.6506                24.4821
 IR Inten    --      3.1627               822.4027               342.1158

                     37                     38                     39
                      A                      A                      A
 Frequencies --   3027.9673              3034.9493              3036.8720
 Red. masses --      1.0692                 1.0561                 1.0354
 Frc consts  --      5.7755                 5.7312                 5.6260
 IR Inten    --     40.6961                26.9843                18.6547

                     40                     41                     42
                      A                      A                      A
 Frequencies --   3085.4670              3095.3151              3113.7874
 Red. masses --      1.1066                 1.0961                 1.0986
 Frc consts  --      6.2071                 6.1874                 6.2758
 IR Inten    --     17.5776                 2.5388                26.1381

                     43                     44                     45
                      A                      A                      A
 Frequencies --   3121.6434              3215.5178              3604.8562
 Red. masses --      1.1032                 1.0998                 1.0752
 Frc consts  --      6.3339                 6.6996                 8.2320
 IR Inten    --     29.0733                 6.2821                29.1498

 - Thermochemistry -
 -------------------
 Temperature   298.150 Kelvin.  Pressure   1.00000 Atm.
 Atom     1 has atomic number  6 and mass  12.00000

 Molecular mass:   111.06841 amu.
 Principal axes and moments of inertia in atomic units:
                           1         2         3
     Eigenvalues --   273.117971856.520421983.87539
           X            0.99992  -0.01043   0.00766
           Y            0.01021   0.99952   0.02930
           Z           -0.00797  -0.02922   0.99954
 This molecule is an asymmetric top.
 Rotational symmetry number  1.
 Rotational temperatures (Kelvin)      0.31713     0.04665     0.04366
 Rotational constants (GHZ):           6.60792     0.97211     0.90970
 Zero-point vibrational energy     372639.9 (Joules/Mol)
                                   89.06307 (Kcal/Mol)
 Warning -- explicit consideration of  11 degrees of freedom as
           vibrations may cause significant error
 Vibrational temperatures:     37.62   133.29   200.49   254.57   375.36
          (Kelvin)            544.59   627.28   704.01   769.86   780.73
                              850.37   919.19  1071.59  1154.34  1174.45
                             1305.77  1421.99  1453.81  1499.08  1534.28
                             1568.93  1611.26  1666.91  1700.16  1802.99
                             1874.82  1988.93  2021.83  2032.25  2099.09
                             2127.03  2140.12  2151.94  2169.18  2409.20
                             2689.54  4356.57  4366.62  4369.38  4439.30
                             4453.47  4480.05  4491.35  4626.41  5186.58

 Zero-point correction=                           0.141931 (Hartree/Particle)
 Thermal correction to Energy=                    0.150264
 Thermal correction to Enthalpy=                  0.151208
 Thermal correction to Gibbs Free Energy=         0.107945
 Sum of electronic and zero-point Energies=           -363.877006
 Sum of electronic and thermal Energies=              -363.868673
 Sum of electronic and thermal Enthalpies=            -363.867729
 Sum of electronic and thermal Free Energies=         -363.910992

                     E (Thermal)             CV                S
                      KCal/Mol        Cal/Mol-Kelvin    Cal/Mol-Kelvin
 Total                   94.292             29.942             91.055
 Electronic               0.000              0.000              0.000
 Translational            0.889              2.981             40.031
 Rotational               0.889              2.981             28.399
 Vibrational             92.515             23.981             22.625
 Vibration     1          0.593              1.985              6.102
 Vibration     2          0.602              1.954              3.603
 Vibration     3          0.615              1.914              2.813
 Vibration     4          0.628              1.871              2.361
 Vibration     5          0.669              1.744              1.656
 Vibration     6          0.749              1.516              1.045
 Vibration     7          0.796              1.392              0.839
 Vibration     8          0.845              1.274              0.685
 Vibration     9          0.890              1.172              0.576
 Vibration    10          0.898              1.156              0.560
 Vibration    11          0.948              1.051              0.465

 Optimization completed.
    -- Stationary point found.
 Normal termination of Gaussian 16 at Sun Jul  3 23:57:07 2022.
