 Gaussian 16, Revision A.03,
 Gaussian 16:  ES64L-G16RevA.03 25-Dec-2016

 -----------------------------
 # opt freq b3lyp/6-31g(2df,p)
 -----------------------------

 -------------------
 Title Card Required
 -------------------
 Symbolic Z-matrix:
 Charge =  0 Multiplicity = 1

 SCF Done:  E(RB3LYP) =  -419.308912456     A.U. after   15 cycles
 SCF Done:  E(RB3LYP) =  -419.328521450     A.U. after   13 cycles
 SCF Done:  E(RB3LYP) =  -419.328660676     A.U. after   15 cycles
 SCF Done:  E(RB3LYP) =  -419.330767299     A.U. after   15 cycles
 SCF Done:  E(RB3LYP) =  -419.332192257     A.U. after   13 cycles
 SCF Done:  E(RB3LYP) =  -419.333291558     A.U. after   13 cycles
 SCF Done:  E(RB3LYP) =  -419.333377672     A.U. after   13 cycles
 SCF Done:  E(RB3LYP) =  -419.333574385     A.U. after   12 cycles
 SCF Done:  E(RB3LYP) =  -419.333636077     A.U. after   12 cycles
 SCF Done:  E(RB3LYP) =  -419.333752887     A.U. after   11 cycles
 SCF Done:  E(RB3LYP) =  -419.334157754     A.U. after   11 cycles
 SCF Done:  E(RB3LYP) =  -419.334261643     A.U. after   11 cycles
 SCF Done:  E(RB3LYP) =  -419.334359448     A.U. after   12 cycles
 SCF Done:  E(RB3LYP) =  -419.334408888     A.U. after   11 cycles
 SCF Done:  E(RB3LYP) =  -419.334433029     A.U. after   11 cycles
 SCF Done:  E(RB3LYP) =  -419.334440325     A.U. after    9 cycles
 SCF Done:  E(RB3LYP) =  -419.334440887     A.U. after    8 cycles
 SCF Done:  E(RB3LYP) =  -419.334441051     A.U. after    7 cycles
 SCF Done:  E(RB3LYP) =  -419.334441071     A.U. after    7 cycles
 Optimization completed.
    -- Stationary point found.
 Normal termination of Gaussian 16 at Thu Aug  4 04:13:55 2022.

 ----------------------------------------------------------------------
 #N Geom=AllCheck Guess=TCheck SCRF=Check GenChk RB3LYP/6-31G(2df,p) Fr
 eq
 ----------------------------------------------------------------------

 Structure from the checkpoint file:  "CCNCtCCpdNpOC.chk"
 -------------------
 Title Card Required
 -------------------
 Charge =  0 Multiplicity = 1

                         Standard orientation:
 ---------------------------------------------------------------------
 Center     Atomic      Atomic             Coordinates (Angstroms)
 Number     Number       Type             X           Y           Z
 ---------------------------------------------------------------------
      1          6           0       -4.478701   -0.033121   -0.171770
      2          6           0       -3.089593    0.419458    0.262104
      3          7           0       -2.090753   -0.608416   -0.056481
      4          6           0       -0.790720   -0.328882   -0.015078
      5          6           0        0.388310   -0.052940   -0.018904
      6          6           0        1.764608    0.317643   -0.024810
      7          7           0        2.243322    1.501328   -0.066057
      8          8           0        2.573062   -0.764814    0.021797
      9          6           0        3.973615   -0.490429    0.017162
     10          1           0       -5.218598    0.736075    0.065390
     11          1           0       -4.777046   -0.949725    0.350069
     12          1           0       -4.508537   -0.227477   -1.247431
     13          1           0       -3.082288    0.656951    1.335942
     14          1           0       -2.796233    1.328242   -0.271317
     15          1           0       -2.348172   -1.550157    0.207964
     16          1           0        1.490659    2.184664   -0.098760
     17          1           0        4.461751   -1.465427    0.056330
     18          1           0        4.256838    0.116080    0.882095
     19          1           0        4.264038    0.048523   -0.889112
 ---------------------------------------------------------------------

 SCF Done:  E(RB3LYP) =  -419.334441071     A.U. after    1 cycles

 The electronic state is 1-A.
 Alpha  occ. eigenvalues --  -19.16012 -14.37178 -14.28448 -10.27370 -10.23552
 Alpha  occ. eigenvalues --  -10.21768 -10.21451 -10.19622 -10.17151  -1.06213
 Alpha  occ. eigenvalues --   -0.95178  -0.87192  -0.77909  -0.74171  -0.70189
 Alpha  occ. eigenvalues --   -0.64252  -0.60245  -0.56310  -0.52840  -0.49827
 Alpha  occ. eigenvalues --   -0.47350  -0.46677  -0.45431  -0.41390  -0.40795
 Alpha  occ. eigenvalues --   -0.39479  -0.37890  -0.36397  -0.33335  -0.32898
 Alpha  occ. eigenvalues --   -0.29049  -0.25729  -0.25180  -0.21208
 Alpha virt. eigenvalues --    0.00972   0.03799   0.07683   0.10322   0.11792
 Alpha virt. eigenvalues --    0.12629   0.13607   0.14444   0.15312   0.16197
 Alpha virt. eigenvalues --    0.16407   0.17309   0.18573   0.20031   0.21328

 Mulliken charges:
               1
     1  C   -0.396146
     2  C   -0.133642
     3  N   -0.440953
     4  C   -0.109719
     5  C    0.397407
     6  C    0.205939
     7  N   -0.566184
     8  O   -0.226732
     9  C   -0.228435
    10  H    0.130102
    11  H    0.120638
    12  H    0.136223
    13  H    0.112775
    14  H    0.131138
    15  H    0.255978
    16  H    0.220565
    17  H    0.121281
    18  H    0.134666
    19  H    0.135101
 Sum of Mulliken charges =  -0.00000

 Dipole moment (field-independent basis, Debye):
    X=             -3.8136    Y=             -0.8680    Z=              0.5870  Tot=              3.9549
 Quadrupole moment (field-independent basis, Debye-Ang):
   XX=            -42.4719   YY=            -52.5573   ZZ=            -54.5034
   XY=             -2.9170   XZ=             -1.3269   YZ=             -0.7714

  Exact polarizability: 143.118   7.179  73.948  -1.058  -0.514  53.034
 Approx polarizability: 186.001  24.689 120.951  -1.137  -1.260  77.896

                      1                      2                      3
                      A                      A                      A
 Frequencies --     41.8462                53.4585                66.6312
 Red. masses --      3.6421                 2.1569                 3.1785
 Frc consts  --      0.0038                 0.0036                 0.0083
 IR Inten    --      0.3521                 0.1602                 1.1141

                      4                      5                      6
                      A                      A                      A
 Frequencies --    105.3474               161.4461               180.1700
 Red. masses --      3.4546                 4.1358                 1.1142
 Frc consts  --      0.0226                 0.0635                 0.0213
 IR Inten    --      4.6071                 1.3462                 0.2474

                      7                      8                      9
                      A                      A                      A
 Frequencies --    204.7816               255.0212               303.1652
 Red. masses --      5.0430                 1.1324                 2.8003
 Frc consts  --      0.1246                 0.0434                 0.1516
 IR Inten    --      2.9333                 0.4612                 9.0318

                     10                     11                     12
                      A                      A                      A
 Frequencies --    334.9872               393.9016               479.9877
 Red. masses --      3.3529                 1.9561                 2.9447
 Frc consts  --      0.2217                 0.1788                 0.3997
 IR Inten    --     12.1166                79.8481                33.3572

                     13                     14                     15
                      A                      A                      A
 Frequencies --    510.0902               557.7727               620.0762
 Red. masses --      7.1293                 5.1604                 4.0111
 Frc consts  --      1.0929                 0.9459                 0.9087
 IR Inten    --     28.6801                11.7725                10.5107

                     16                     17                     18
                      A                      A                      A
 Frequencies --    716.1474               801.5659               824.6996
 Red. masses --     11.3636                 1.3146                 1.1416
 Frc consts  --      3.4338                 0.4976                 0.4575
 IR Inten    --     16.4955                 8.5021                44.9738

                     19                     20                     21
                      A                      A                      A
 Frequencies --    827.9037               902.8190               981.6412
 Red. masses --      2.5458                 2.0070                 3.2631
 Frc consts  --      1.0281                 0.9638                 1.8526
 IR Inten    --      4.5916                 9.3176                42.7334

                     22                     23                     24
                      A                      A                      A
 Frequencies --   1058.8719              1112.3888              1134.8438
 Red. masses --      3.2282                 2.5114                 1.8383
 Frc consts  --      2.1326                 1.8310                 1.3949
 IR Inten    --     14.8411               206.6819                13.0941

                     25                     26                     27
                      A                      A                      A
 Frequencies --   1166.1408              1177.8078              1214.7434
 Red. masses --      1.8674                 1.2801                 1.5207
 Frc consts  --      1.4962                 1.0463                 1.3221
 IR Inten    --     51.8177                 0.8978                21.2650

                     28                     29                     30
                      A                      A                      A
 Frequencies --   1258.1094              1292.8392              1379.2839
 Red. masses --      2.5921                 1.1458                 1.3015
 Frc consts  --      2.4174                 1.1284                 1.4589
 IR Inten    --    368.3701                 1.8889                 0.0160

                     31                     32                     33
                      A                      A                      A
 Frequencies --   1406.9790              1415.9828              1467.6299
 Red. masses --      1.8176                 1.3186                 1.2605
 Frc consts  --      2.1199                 1.5577                 1.5997
 IR Inten    --    170.4210                43.2403                56.1158

                     34                     35                     36
                      A                      A                      A
 Frequencies --   1475.4190              1488.3359              1495.6775
 Red. masses --      1.0480                 1.3167                 1.0969
 Frc consts  --      1.3441                 1.7184                 1.4458
 IR Inten    --      5.2835                28.1928                 0.8438

                     37                     38                     39
                      A                      A                      A
 Frequencies --   1498.9458              1502.6707              1518.8882
 Red. masses --      1.0709                 1.2529                 1.0838
 Frc consts  --      1.4176                 1.6668                 1.4731
 IR Inten    --      4.3948                 5.4732                10.6827

                     40                     41                     42
                      A                      A                      A
 Frequencies --   1672.0172              2341.0073              2997.7154
 Red. masses --      9.0080                11.7449                 1.0710
 Frc consts  --     14.8375                37.9232                 5.6706
 IR Inten    --    188.5092               567.9017                51.4228

                     43                     44                     45
                      A                      A                      A
 Frequencies --   3036.8253              3042.4455              3081.3337
 Red. masses --      1.0384                 1.0293                 1.0910
 Frc consts  --      5.6424                 5.6138                 6.1029
 IR Inten    --     19.5866                39.9413                 3.6542

                     46                     47                     48
                      A                      A                      A
 Frequencies --   3108.6428              3113.2660              3126.6273
 Red. masses --      1.0986                 1.1048                 1.1027
 Frc consts  --      6.2550                 6.3091                 6.3511
 IR Inten    --     32.7008                23.0430                21.5289

                     49                     50                     51
                      A                      A                      A
 Frequencies --   3144.5909              3524.1704              3567.5252
 Red. masses --      1.1058                 1.0751                 1.0741
 Frc consts  --      6.4428                 7.8672                 8.0545
 IR Inten    --     22.3121                 7.3880                25.1806

 - Thermochemistry -
 -------------------
 Temperature   298.150 Kelvin.  Pressure   1.00000 Atm.
 Atom     1 has atomic number  6 and mass  12.00000

 Molecular mass:   126.07931 amu.
 Principal axes and moments of inertia in atomic units:
                           1         2         3
     Eigenvalues --   261.712323527.536973742.71861
           X            0.99999  -0.00330  -0.00020
           Y            0.00330   0.99999  -0.00068
           Z            0.00020   0.00068   1.00000
 This molecule is an asymmetric top.
 Rotational symmetry number  1.
 Rotational temperatures (Kelvin)      0.33095     0.02455     0.02314
 Rotational constants (GHZ):           6.89590     0.51162     0.48220
 Zero-point vibrational energy     413580.0 (Joules/Mol)
                                   98.84800 (Kcal/Mol)
 Warning -- explicit consideration of  15 degrees of freedom as
           vibrations may cause significant error
 Vibrational temperatures:     60.21    76.91    95.87   151.57   232.28
          (Kelvin)            259.22   294.64   366.92   436.19   481.97
                              566.74   690.60   733.91   802.51   892.15
                             1030.38  1153.27  1186.56  1191.17  1298.96
                             1412.36  1523.48  1600.48  1632.79  1677.82
                             1694.60  1747.74  1810.14  1860.11  1984.48
                             2024.33  2037.28  2111.59  2122.80  2141.38
                             2151.95  2156.65  2162.01  2185.34  2405.66
                             3368.19  4313.04  4369.31  4377.40  4433.35
                             4472.64  4479.30  4498.52  4524.36  5070.50
                             5132.87

 Zero-point correction=                           0.157524 (Hartree/Particle)
 Thermal correction to Energy=                    0.168343
 Thermal correction to Enthalpy=                  0.169287
 Thermal correction to Gibbs Free Energy=         0.120027
 Sum of electronic and zero-point Energies=           -419.176917
 Sum of electronic and thermal Energies=              -419.166098
 Sum of electronic and thermal Enthalpies=            -419.165154
 Sum of electronic and thermal Free Energies=         -419.214414

                     E (Thermal)             CV                S
                      KCal/Mol        Cal/Mol-Kelvin    Cal/Mol-Kelvin
 Total                  105.637             36.829            103.677
 Electronic               0.000              0.000              0.000
 Translational            0.889              2.981             40.409
 Rotational               0.889              2.981             29.626
 Vibrational            103.859             30.868             33.643
 Vibration     1          0.594              1.980              5.170
 Vibration     2          0.596              1.976              4.685
 Vibration     3          0.598              1.970              4.250
 Vibration     4          0.605              1.945              3.353
 Vibration     5          0.622              1.890              2.533
 Vibration     6          0.629              1.867              2.327
 Vibration     7          0.640              1.833              2.090
 Vibration     8          0.665              1.754              1.696
 Vibration     9          0.695              1.668              1.399
 Vibration    10          0.716              1.606              1.236
 Vibration    11          0.761              1.483              0.985
 Vibration    12          0.836              1.294              0.710
 Vibration    13          0.865              1.228              0.633
 Vibration    14          0.913              1.123              0.528
 Vibration    15          0.980              0.990              0.416

 Optimization completed.
    -- Stationary point found.
 Normal termination of Gaussian 16 at Thu Aug  4 04:34:20 2022.
