 Gaussian 16, Revision A.03,
 Gaussian 16:  ES64L-G16RevA.03 25-Dec-2016

 -----------------------------
 # opt freq b3lyp/6-31g(2df,p)
 -----------------------------

 -------------------
 Title Card Required
 -------------------
 Symbolic Z-matrix:
 Charge =  0 Multiplicity = 1

 SCF Done:  E(RB3LYP) =  -403.240031639     A.U. after   15 cycles
 SCF Done:  E(RB3LYP) =  -403.268019047     A.U. after   14 cycles
 SCF Done:  E(RB3LYP) =  -403.272457625     A.U. after   14 cycles
 SCF Done:  E(RB3LYP) =  -403.275125819     A.U. after   13 cycles
 SCF Done:  E(RB3LYP) =  -403.275131174     A.U. after   12 cycles
 SCF Done:  E(RB3LYP) =  -403.275363549     A.U. after   11 cycles
 SCF Done:  E(RB3LYP) =  -403.275446266     A.U. after   10 cycles
 SCF Done:  E(RB3LYP) =  -403.275513567     A.U. after   11 cycles
 SCF Done:  E(RB3LYP) =  -403.275549623     A.U. after   11 cycles
 SCF Done:  E(RB3LYP) =  -403.275626639     A.U. after   11 cycles
 SCF Done:  E(RB3LYP) =  -403.280651902     A.U. after   13 cycles
 SCF Done:  E(RB3LYP) =  -403.281666406     A.U. after   13 cycles
 SCF Done:  E(RB3LYP) =  -403.281316796     A.U. after   15 cycles
 SCF Done:  E(RB3LYP) =  -403.281683412     A.U. after   12 cycles
 SCF Done:  E(RB3LYP) =  -403.281813340     A.U. after   13 cycles
 SCF Done:  E(RB3LYP) =  -403.281943230     A.U. after   12 cycles
 SCF Done:  E(RB3LYP) =  -403.281950888     A.U. after    9 cycles
 SCF Done:  E(RB3LYP) =  -403.281951975     A.U. after    8 cycles
 SCF Done:  E(RB3LYP) =  -403.281952074     A.U. after    7 cycles
 Optimization completed.
    -- Stationary point found.
 Normal termination of Gaussian 16 at Sun Jul  3 17:32:27 2022.

 ----------------------------------------------------------------------
 #N Geom=AllCheck Guess=TCheck SCRF=Check GenChk RB3LYP/6-31G(2df,p) Fr
 eq
 ----------------------------------------------------------------------

 Structure from the checkpoint file:  "CCNdCdCC1CC1O.chk"
 -------------------
 Title Card Required
 -------------------
 Charge =  0 Multiplicity = 1

                         Standard orientation:
 ---------------------------------------------------------------------
 Center     Atomic      Atomic             Coordinates (Angstroms)
 Number     Number       Type             X           Y           Z
 ---------------------------------------------------------------------
      1          6           0        4.294399    0.205766    0.363558
      2          6           0        2.987162    0.691157   -0.259368
      3          7           0        2.096753   -0.447385   -0.521313
      4          6           0        0.974297   -0.531926   -0.049234
      5          6           0       -0.243928   -0.710240    0.406633
      6          6           0       -1.469826   -0.246996   -0.292249
      7          6           0       -2.759101   -1.059879   -0.239976
      8          6           0       -2.658507    0.263288    0.472961
      9          8           0       -3.296838    1.387854   -0.057637
     10          1           0        4.984550    1.044230    0.497220
     11          1           0        4.771142   -0.541137   -0.277045
     12          1           0        4.114365   -0.249861    1.341854
     13          1           0        3.193210    1.162132   -1.227065
     14          1           0        2.502116    1.438720    0.382101
     15          1           0       -0.354109   -1.229630    1.354950
     16          1           0       -1.299661    0.271399   -1.229748
     17          1           0       -2.771679   -1.968959    0.352448
     18          1           0       -3.354420   -1.092651   -1.146003
     19          1           0       -2.591078    0.241240    1.561506
     20          1           0       -4.243980    1.286363    0.086126
 ---------------------------------------------------------------------

 SCF Done:  E(RB3LYP) =  -403.281952074     A.U. after    1 cycles

 The electronic state is 1-A.
 Alpha  occ. eigenvalues --  -19.14081 -14.33828 -10.23281 -10.22602 -10.22011
 Alpha  occ. eigenvalues --  -10.19728 -10.18312 -10.18256 -10.17932  -1.02561
 Alpha  occ. eigenvalues --   -0.93141  -0.85044  -0.77021  -0.73302  -0.63185
 Alpha  occ. eigenvalues --   -0.60507  -0.58522  -0.53673  -0.50565  -0.48224
 Alpha  occ. eigenvalues --   -0.47356  -0.46017  -0.42206  -0.41091  -0.39208
 Alpha  occ. eigenvalues --   -0.38123  -0.37305  -0.36770  -0.34267  -0.32293
 Alpha  occ. eigenvalues --   -0.30156  -0.28994  -0.25992  -0.20204
 Alpha virt. eigenvalues --    0.00913   0.04415   0.08505   0.10995   0.11394
 Alpha virt. eigenvalues --    0.12257   0.14217   0.14883   0.14993   0.15725
 Alpha virt. eigenvalues --    0.16934   0.17782   0.18830   0.19059   0.21242

 Mulliken charges:
               1
     1  C   -0.363185
     2  C   -0.147499
     3  N   -0.282357
     4  C    0.339940
     5  C   -0.271884
     6  C   -0.035942
     7  C   -0.328810
     8  C    0.106723
     9  O   -0.424134
    10  H    0.116881
    11  H    0.131955
    12  H    0.123847
    13  H    0.120476
    14  H    0.105607
    15  H    0.112088
    16  H    0.101128
    17  H    0.110981
    18  H    0.115566
    19  H    0.082824
    20  H    0.285795
 Sum of Mulliken charges =  -0.00000

 Dipole moment (field-independent basis, Debye):
    X=             -0.7445    Y=              0.1504    Z=              1.1174  Tot=              1.3512
 Quadrupole moment (field-independent basis, Debye-Ang):
   XX=            -42.4374   YY=            -57.2294   ZZ=            -53.0413
   XY=              4.9235   XZ=             -0.4963   YZ=             -1.7869

  Exact polarizability: 141.731   7.948  69.822  -7.149  -2.951  66.834
 Approx polarizability: 180.962   9.921 101.825 -20.771  -5.158 103.687

                      1                      2                      3
                      A                      A                      A
 Frequencies --     41.6040                45.8003                77.4018
 Red. masses --      3.5452                 2.4686                 3.4163
 Frc consts  --      0.0036                 0.0031                 0.0121
 IR Inten    --      1.5258                 0.6075                 1.9739

                      4                      5                      6
                      A                      A                      A
 Frequencies --    140.4711               175.6510               249.8703
 Red. masses --      4.1407                 2.2479                 1.4176
 Frc consts  --      0.0481                 0.0409                 0.0521
 IR Inten    --      1.4036                 2.0860                 6.6156

                      7                      8                      9
                      A                      A                      A
 Frequencies --    273.7533               289.5682               330.8202
 Red. masses --      1.9340                 2.3357                 1.5916
 Frc consts  --      0.0854                 0.1154                 0.1026
 IR Inten    --     22.1199                20.8277                67.9750

                     10                     11                     12
                      A                      A                      A
 Frequencies --    393.7038               438.6780               468.8834
 Red. masses --      3.4792                 2.6553                 2.6512
 Frc consts  --      0.3177                 0.3011                 0.3434
 IR Inten    --      3.6184                 5.7097                 5.8809

                     13                     14                     15
                      A                      A                      A
 Frequencies --    566.8119               599.7170               716.8671
 Red. masses --      5.3211                 5.1950                 1.4263
 Frc consts  --      1.0072                 1.1009                 0.4319
 IR Inten    --      1.1923                30.8704                27.2836

                     16                     17                     18
                      A                      A                      A
 Frequencies --    804.8284               810.4175               832.9808
 Red. masses --      1.5058                 1.6695                 2.0603
 Frc consts  --      0.5747                 0.6460                 0.8423
 IR Inten    --      0.2932                 4.1786                 3.0572

                     19                     20                     21
                      A                      A                      A
 Frequencies --    859.0891               910.0809               945.4905
 Red. masses --      1.6131                 3.6600                 2.2439
 Frc consts  --      0.7014                 1.7860                 1.1819
 IR Inten    --      4.6819                33.0922                 9.8336

                     22                     23                     24
                      A                      A                      A
 Frequencies --   1007.0635              1034.3988              1075.5291
 Red. masses --      2.5317                 1.4584                 2.1533
 Frc consts  --      1.5128                 0.9194                 1.4676
 IR Inten    --      8.9111                10.9751                23.8679

                     25                     26                     27
                      A                      A                      A
 Frequencies --   1098.8857              1105.8696              1140.0788
 Red. masses --      1.1204                 1.7586                 1.9314
 Frc consts  --      0.7971                 1.2671                 1.4790
 IR Inten    --      4.0793                 0.8418                 5.3130

                     28                     29                     30
                      A                      A                      A
 Frequencies --   1161.6687              1179.5848              1210.7483
 Red. masses --      1.7767                 2.2491                 1.4172
 Frc consts  --      1.4127                 1.8438                 1.2240
 IR Inten    --      5.6380                30.6642                 7.5828

                     31                     32                     33
                      A                      A                      A
 Frequencies --   1221.1658              1284.2842              1299.4319
 Red. masses --      1.8880                 1.2590                 1.1616
 Frc consts  --      1.6589                 1.2235                 1.1556
 IR Inten    --     33.7952                12.3489                33.4268

                     34                     35                     36
                      A                      A                      A
 Frequencies --   1317.6259              1371.1210              1407.9755
 Red. masses --      1.3960                 1.2949                 1.2542
 Frc consts  --      1.4280                 1.4343                 1.4649
 IR Inten    --     44.7024                71.1698                 5.1975

                     37                     38                     39
                      A                      A                      A
 Frequencies --   1416.0740              1460.9273              1487.9754
 Red. masses --      1.4624                 1.5427                 1.0441
 Frc consts  --      1.7277                 1.9400                 1.3620
 IR Inten    --      3.5791                10.5243                 7.5107

                     40                     41                     42
                      A                      A                      A
 Frequencies --   1491.6731              1502.3912              1509.6057
 Red. masses --      1.0632                 2.4290                 1.0747
 Frc consts  --      1.3939                 3.2303                 1.4430
 IR Inten    --      6.5878                13.7307                 6.2788

                     43                     44                     45
                      A                      A                      A
 Frequencies --   2142.4452              3011.4626              3042.6021
 Red. masses --     11.7890                 1.0615                 1.0347
 Frc consts  --     31.8820                 5.6721                 5.6436
 IR Inten    --    532.7855                41.2048                24.8860

                     46                     47                     48
                      A                      A                      A
 Frequencies --   3064.6928              3089.1026              3115.6397
 Red. masses --      1.1010                 1.0872                 1.1020
 Frc consts  --      6.0929                 6.1124                 6.3028
 IR Inten    --     12.9328                34.3681                29.4401

                     49                     50                     51
                      A                      A                      A
 Frequencies --   3123.5844              3128.4545              3154.3770
 Red. masses --      1.1027                 1.0544                 1.0859
 Frc consts  --      6.3391                 6.0799                 6.3660
 IR Inten    --     24.6634                13.0692                 1.8563

                     52                     53                     54
                      A                      A                      A
 Frequencies --   3173.0789              3221.1083              3795.5153
 Red. masses --      1.0884                 1.1167                 1.0661
 Frc consts  --      6.4564                 6.8265                 9.0491
 IR Inten    --      3.7356                 8.9163                15.3243

 - Thermochemistry -
 -------------------
 Temperature   298.150 Kelvin.  Pressure   1.00000 Atm.
 Atom     1 has atomic number  6 and mass  12.00000

 Molecular mass:   125.08406 amu.
 Principal axes and moments of inertia in atomic units:
                           1         2         3
     Eigenvalues --   361.514453317.964073510.31101
           X            0.99989   0.01451   0.00342
           Y           -0.01441   0.99954  -0.02666
           Z           -0.00381   0.02661   0.99964
 This molecule is an asymmetric top.
 Rotational symmetry number  1.
 Rotational temperatures (Kelvin)      0.23959     0.02610     0.02467
 Rotational constants (GHZ):           4.99217     0.54393     0.51413
 Zero-point vibrational energy     441533.5 (Joules/Mol)
                                  105.52903 (Kcal/Mol)
 Warning -- explicit consideration of  14 degrees of freedom as
           vibrations may cause significant error
 Vibrational temperatures:     59.86    65.90   111.36   202.11   252.72
          (Kelvin)            359.51   393.87   416.62   475.98   566.45
                              631.16   674.62   815.52   862.86  1031.41
                             1157.97  1166.01  1198.47  1236.04  1309.40
                             1360.35  1448.94  1488.27  1547.45  1581.05
                             1591.10  1640.32  1671.38  1697.16  1742.00
                             1756.99  1847.80  1869.59  1895.77  1972.74
                             2025.76  2037.41  2101.95  2140.86  2146.18
                             2161.61  2171.99  3082.50  4332.82  4377.63
                             4409.41  4444.53  4482.71  4494.14  4501.15
                             4538.44  4565.35  4634.46  5460.90

 Zero-point correction=                           0.168171 (Hartree/Particle)
 Thermal correction to Energy=                    0.178478
 Thermal correction to Enthalpy=                  0.179422
 Thermal correction to Gibbs Free Energy=         0.131370
 Sum of electronic and zero-point Energies=           -403.113781
 Sum of electronic and thermal Energies=              -403.103474
 Sum of electronic and thermal Enthalpies=            -403.102530
 Sum of electronic and thermal Free Energies=         -403.150582

                     E (Thermal)             CV                S
                      KCal/Mol        Cal/Mol-Kelvin    Cal/Mol-Kelvin
 Total                  111.997             36.758            101.134
 Electronic               0.000              0.000              0.000
 Translational            0.889              2.981             40.385
 Rotational               0.889              2.981             29.822
 Vibrational            110.219             30.797             30.927
 Vibration     1          0.594              1.981              5.181
 Vibration     2          0.595              1.979              4.991
 Vibration     3          0.599              1.964              3.956
 Vibration     4          0.615              1.913              2.797
 Vibration     5          0.628              1.872              2.374
 Vibration     6          0.663              1.763              1.731
 Vibration     7          0.676              1.722              1.572
 Vibration     8          0.686              1.693              1.476
 Vibration     9          0.713              1.614              1.256
 Vibration    10          0.761              1.484              0.986
 Vibration    11          0.799              1.386              0.831
 Vibration    12          0.826              1.319              0.741
 Vibration    13          0.923              1.103              0.510
 Vibration    14          0.958              1.032              0.450

                           ! Non-Optimized Parameters !
 Normal termination of Gaussian 16 at Sun Jul  3 17:57:06 2022.
