 Gaussian 16, Revision A.03,
 Gaussian 16:  ES64L-G16RevA.03 25-Dec-2016

 -----------------------------
 # opt freq b3lyp/6-31g(2df,p)
 -----------------------------

 -------------------
 Title Card Required
 -------------------
 Symbolic Z-matrix:
 Charge =  0 Multiplicity = 1

 SCF Done:  E(RB3LYP) =  -381.048498270     A.U. after   15 cycles
 SCF Done:  E(RB3LYP) =  -381.080304304     A.U. after   12 cycles
 SCF Done:  E(RB3LYP) =  -381.098118898     A.U. after   13 cycles
 SCF Done:  E(RB3LYP) =  -381.102373036     A.U. after   12 cycles
 SCF Done:  E(RB3LYP) =  -381.107670575     A.U. after   13 cycles
 SCF Done:  E(RB3LYP) =  -381.112884000     A.U. after   15 cycles
 SCF Done:  E(RB3LYP) =  -381.115164888     A.U. after   13 cycles
 SCF Done:  E(RB3LYP) =  -381.116307474     A.U. after   13 cycles
 SCF Done:  E(RB3LYP) =  -381.116366347     A.U. after    9 cycles
 SCF Done:  E(RB3LYP) =  -381.116664414     A.U. after   12 cycles
 SCF Done:  E(RB3LYP) =  -381.141861571     A.U. after   12 cycles
 SCF Done:  E(RB3LYP) =  -381.142081524     A.U. after   12 cycles
 SCF Done:  E(RB3LYP) =  -381.142309399     A.U. after   13 cycles
 SCF Done:  E(RB3LYP) =  -381.142355295     A.U. after   12 cycles
 SCF Done:  E(RB3LYP) =  -381.142369871     A.U. after   10 cycles
 SCF Done:  E(RB3LYP) =  -381.142371885     A.U. after    9 cycles
 SCF Done:  E(RB3LYP) =  -381.142372534     A.U. after    8 cycles
 SCF Done:  E(RB3LYP) =  -381.142372849     A.U. after    8 cycles
 SCF Done:  E(RB3LYP) =  -381.142372936     A.U. after    7 cycles
 Optimization completed.
    -- Stationary point found.
 Normal termination of Gaussian 16 at Thu Aug  4 18:56:57 2022.

 ----------------------------------------------------------------------
 #N Geom=AllCheck Guess=TCheck SCRF=Check GenChk RB3LYP/6-31G(2df,p) Fr
 eq
 ----------------------------------------------------------------------

 Structure from the checkpoint file:  "CCNNpCpC1dCO1.chk"
 -------------------
 Title Card Required
 -------------------
 Charge =  0 Multiplicity = 1

                         Standard orientation:
 ---------------------------------------------------------------------
 Center     Atomic      Atomic             Coordinates (Angstroms)
 Number     Number       Type             X           Y           Z
 ---------------------------------------------------------------------
      1          6           0        3.116356   -0.556544   -0.010077
      2          6           0        1.802889    0.023181   -0.523976
      3          7           0        0.799040   -0.023297    0.545818
      4          7           0       -0.451469    0.498437    0.187729
      5          6           0       -0.649605    1.926746    0.002031
      6          6           0       -1.466313   -0.356454    0.025647
      7          6           0       -2.782050   -0.337525   -0.461162
      8          8           0       -1.477092   -1.609470    0.121160
      9          1           0        3.865657   -0.563892   -0.806069
     10          1           0        2.972121   -1.579629    0.346596
     11          1           0        3.518550    0.040511    0.816742
     12          1           0        1.416758   -0.581830   -1.350207
     13          1           0        1.971058    1.040942   -0.912798
     14          1           0        1.126206    0.458215    1.379153
     15          1           0        0.075672    2.330249   -0.710581
     16          1           0       -0.553034    2.467195    0.951776
     17          1           0       -1.652791    2.089609   -0.399516
     18          1           0       -3.484121   -0.348004    0.386022
 ---------------------------------------------------------------------

 SCF Done:  E(RB3LYP) =  -381.142372936     A.U. after    1 cycles

 The electronic state is 1-A.
 Alpha  occ. eigenvalues --  -19.14183 -14.40299 -14.37057 -10.28217 -10.23922
 Alpha  occ. eigenvalues --  -10.22470 -10.19849 -10.19059  -1.06386  -1.00806
 Alpha  occ. eigenvalues --   -0.86377  -0.75625  -0.72699  -0.68355  -0.63236
 Alpha  occ. eigenvalues --   -0.57006  -0.52788  -0.50104  -0.48061  -0.46159
 Alpha  occ. eigenvalues --   -0.44448  -0.42999  -0.41345  -0.39328  -0.38384
 Alpha  occ. eigenvalues --   -0.37488  -0.36685  -0.28973  -0.27752  -0.25733
 Alpha  occ. eigenvalues --   -0.20756
 Alpha virt. eigenvalues --   -0.03485   0.03332   0.06256   0.09759   0.10348
 Alpha virt. eigenvalues --    0.12454   0.12958   0.13679   0.14353   0.15993
 Alpha virt. eigenvalues --    0.16932   0.17775   0.19627   0.20064   0.21902

 Mulliken charges:
               1
     1  C   -0.395258
     2  C   -0.107674
     3  N   -0.269062
     4  N   -0.138610
     5  C   -0.356425
     6  C    0.536813
     7  C   -0.360022
     8  O   -0.332862
     9  H    0.126677
    10  H    0.143680
    11  H    0.114721
    12  H    0.134798
    13  H    0.088295
    14  H    0.231818
    15  H    0.142876
    16  H    0.130836
    17  H    0.164550
    18  H    0.144851
 Sum of Mulliken charges =  -0.00000

 Dipole moment (field-independent basis, Debye):
    X=              3.4314    Y=              4.1983    Z=              1.4597  Tot=              5.6152
 Quadrupole moment (field-independent basis, Debye-Ang):
   XX=            -51.0509   YY=            -49.7442   ZZ=            -48.8660
   XY=             -4.7743   XZ=             -4.8207   YZ=              0.9008

  Exact polarizability:  97.404   0.691  70.116   4.109  -0.072  56.121
 Approx polarizability: 128.610  -6.735 115.804  12.520  -4.960  87.076

                      1                      2                      3
                      A                      A                      A
 Frequencies --     61.6163                68.9134               119.0914
 Red. masses --      3.2599                 2.0319                 3.3195
 Frc consts  --      0.0073                 0.0057                 0.0277
 IR Inten    --      2.5444                 0.9799                 0.3803

                      4                      5                      6
                      A                      A                      A
 Frequencies --    143.5510               169.0245               223.9865
 Red. masses --      1.7119                 1.9833                 2.1261
 Frc consts  --      0.0208                 0.0334                 0.0628
 IR Inten    --      0.9769                 1.9767                 2.0092

                      7                      8                      9
                      A                      A                      A
 Frequencies --    248.2311               296.5361               330.0297
 Red. masses --      1.3433                 2.9695                 5.7750
 Frc consts  --      0.0488                 0.1538                 0.3706
 IR Inten    --      3.0387                10.6811                19.3144

                     10                     11                     12
                      A                      A                      A
 Frequencies --    367.5230               448.8181               524.8339
 Red. masses --      2.8370                 2.9626                 3.2631
 Frc consts  --      0.2258                 0.3516                 0.5296
 IR Inten    --      3.3631                36.4648                13.7446

                     13                     14                     15
                      A                      A                      A
 Frequencies --    591.2146               721.5980               792.8094
 Red. masses --      4.9223                 2.3030                 1.9512
 Frc consts  --      1.0137                 0.7065                 0.7226
 IR Inten    --      3.0835                63.8017                33.7570

                     16                     17                     18
                      A                      A                      A
 Frequencies --    826.6013               893.2903               921.0362
 Red. masses --      1.2488                 1.3566                 1.5684
 Frc consts  --      0.5027                 0.6378                 0.7839
 IR Inten    --      5.4466                14.0535                 5.9551

                     19                     20                     21
                      A                      A                      A
 Frequencies --    961.1772              1036.4757              1079.3511
 Red. masses --      1.5255                 2.2681                 2.2916
 Frc consts  --      0.8304                 1.4356                 1.5730
 IR Inten    --    141.0169                12.6713                 3.8570

                     22                     23                     24
                      A                      A                      A
 Frequencies --   1142.6178              1147.9650              1187.8026
 Red. masses --      1.7742                 1.3709                 1.9507
 Frc consts  --      1.3648                 1.0644                 1.6215
 IR Inten    --      4.3586                 3.7792                10.5303

                     25                     26                     27
                      A                      A                      A
 Frequencies --   1233.0991              1275.2841              1304.6717
 Red. masses --      6.8673                 2.0275                 1.4353
 Frc consts  --      6.1522                 1.9428                 1.4394
 IR Inten    --      4.9681                10.0400                 4.2110

                     28                     29                     30
                      A                      A                      A
 Frequencies --   1382.0636              1413.0153              1448.1267
 Red. masses --      1.2959                 1.2879                 1.4687
 Frc consts  --      1.4585                 1.5150                 1.8147
 IR Inten    --      8.8616                 2.7644                34.2942

                     31                     32                     33
                      A                      A                      A
 Frequencies --   1457.9581              1479.7291              1487.2371
 Red. masses --      2.1837                 1.0574                 1.0811
 Frc consts  --      2.7348                 1.3642                 1.4089
 IR Inten    --      9.3150                 5.6806                 1.8868

                     34                     35                     36
                      A                      A                      A
 Frequencies --   1498.1404              1504.9502              1517.0908
 Red. masses --      1.0420                 1.0892                 1.1640
 Frc consts  --      1.3779                 1.4534                 1.5784
 IR Inten    --      3.7662                 5.4665                12.0646

                     37                     38                     39
                      A                      A                      A
 Frequencies --   1530.7185              1719.9820              2967.1310
 Red. masses --      1.2433                 6.7076                 1.0709
 Frc consts  --      1.7164                11.6914                 5.5550
 IR Inten    --     25.6868               379.6310                52.2372

                     40                     41                     42
                      A                      A                      A
 Frequencies --   3022.0616              3036.4080              3052.2701
 Red. masses --      1.0385                 1.0397                 1.0861
 Frc consts  --      5.5883                 5.6479                 5.9617
 IR Inten    --     40.0619                20.3108                21.1614

                     43                     44                     45
                      A                      A                      A
 Frequencies --   3075.7474              3090.4733              3107.0864
 Red. masses --      1.0884                 1.0979                 1.0972
 Frc consts  --      6.0663                 6.1784                 6.2410
 IR Inten    --      6.5831                19.9406                30.4312

                     46                     47                     48
                      A                      A                      A
 Frequencies --   3126.7601              3130.0285              3493.5865
 Red. masses --      1.1021                 1.1028                 1.0744
 Frc consts  --      6.3484                 6.3658                 7.7260
 IR Inten    --      8.5897                18.4131                 0.3856

 - Thermochemistry -
 -------------------
 Temperature   298.150 Kelvin.  Pressure   1.00000 Atm.
 Atom     1 has atomic number  6 and mass  12.00000

 Molecular mass:   114.07931 amu.
 Principal axes and moments of inertia in atomic units:
                           1         2         3
     Eigenvalues --   481.114141439.006751787.91453
           X            0.99954  -0.02949  -0.00726
           Y            0.02951   0.99956   0.00176
           Z            0.00721  -0.00197   0.99997
 This molecule is an asymmetric top.
 Rotational symmetry number  1.
 Warning -- assumption of classical behavior for rotation
           may cause significant error
 Rotational temperatures (Kelvin)      0.18003     0.06019     0.04844
 Rotational constants (GHZ):           3.75117     1.25416     1.00941
 Zero-point vibrational energy     392720.3 (Joules/Mol)
                                   93.86241 (Kcal/Mol)
 Warning -- explicit consideration of  13 degrees of freedom as
           vibrations may cause significant error
 Vibrational temperatures:     88.65    99.15   171.35   206.54   243.19
          (Kelvin)            322.27   357.15   426.65   474.84   528.78
                              645.75   755.12   850.63  1038.22  1140.68
                             1189.29  1285.25  1325.17  1382.92  1491.26
                             1552.95  1643.97  1651.67  1708.98  1774.15
                             1834.85  1877.13  1988.48  2033.01  2083.53
                             2097.68  2129.00  2139.80  2155.49  2165.29
                             2182.76  2202.36  2474.67  4269.04  4348.07
                             4368.71  4391.54  4425.31  4446.50  4470.40
                             4498.71  4503.41  5026.49

 Zero-point correction=                           0.149579 (Hartree/Particle)
 Thermal correction to Energy=                    0.159401
 Thermal correction to Enthalpy=                  0.160345
 Thermal correction to Gibbs Free Energy=         0.114479
 Sum of electronic and zero-point Energies=           -380.992794
 Sum of electronic and thermal Energies=              -380.982972
 Sum of electronic and thermal Enthalpies=            -380.982028
 Sum of electronic and thermal Free Energies=         -381.027894

                     E (Thermal)             CV                S
                      KCal/Mol        Cal/Mol-Kelvin    Cal/Mol-Kelvin
 Total                  100.026             33.801             96.533
 Electronic               0.000              0.000              0.000
 Translational            0.889              2.981             40.111
 Rotational               0.889              2.981             28.606
 Vibrational             98.248             27.840             27.817
 Vibration     1          0.597              1.973              4.405
 Vibration     2          0.598              1.969              4.184
 Vibration     3          0.609              1.933              3.115
 Vibration     4          0.616              1.910              2.756
 Vibration     5          0.625              1.881              2.446
 Vibration     6          0.649              1.805              1.927
 Vibration     7          0.662              1.766              1.743
 Vibration     8          0.690              1.680              1.436
 Vibration     9          0.713              1.616              1.260
 Vibration    10          0.740              1.539              1.090
 Vibration    11          0.808              1.363              0.799
 Vibration    12          0.880              1.195              0.599
 Vibration    13          0.949              1.051              0.465

                           ! Non-Optimized Parameters !
 Normal termination of Gaussian 16 at Thu Aug  4 19:20:58 2022.
