 Gaussian 16, Revision A.03,
 Gaussian 16:  ES64L-G16RevA.03 25-Dec-2016

 -----------------------------
 # opt freq b3lyp/6-31g(2df,p)
 -----------------------------

 -------------------
 Title Card Required
 -------------------
 Symbolic Z-matrix:
 Charge =  0 Multiplicity = 1

 SCF Done:  E(RB3LYP) =  -456.425371209     A.U. after   14 cycles
 SCF Done:  E(RB3LYP) =  -456.430032018     A.U. after   14 cycles
 SCF Done:  E(RB3LYP) =  -456.428595446     A.U. after   13 cycles
 SCF Done:  E(RB3LYP) =  -456.431334157     A.U. after   14 cycles
 SCF Done:  E(RB3LYP) =  -456.431841702     A.U. after   11 cycles
 SCF Done:  E(RB3LYP) =  -456.431893637     A.U. after   12 cycles
 SCF Done:  E(RB3LYP) =  -456.431898276     A.U. after   11 cycles
 SCF Done:  E(RB3LYP) =  -456.431899588     A.U. after    8 cycles
 SCF Done:  E(RB3LYP) =  -456.431900273     A.U. after    9 cycles
 SCF Done:  E(RB3LYP) =  -456.431900547     A.U. after    8 cycles
 SCF Done:  E(RB3LYP) =  -456.431900830     A.U. after    9 cycles
 SCF Done:  E(RB3LYP) =  -456.431900850     A.U. after    7 cycles
 Optimization completed.
    -- Stationary point found.
 Normal termination of Gaussian 16 at Sun Jul  3 09:42:34 2022.

 ----------------------------------------------------------------------
 #N Geom=AllCheck Guess=TCheck SCRF=Check GenChk RB3LYP/6-31G(2df,p) Fr
 eq
 ----------------------------------------------------------------------

 Structure from the checkpoint file:  "CCNOCCpdNpCdO.chk"
 -------------------
 Title Card Required
 -------------------
 Charge =  0 Multiplicity = 1

                         Standard orientation:
 ---------------------------------------------------------------------
 Center     Atomic      Atomic             Coordinates (Angstroms)
 Number     Number       Type             X           Y           Z
 ---------------------------------------------------------------------
      1          6           0        4.170618   -0.280120   -0.291128
      2          6           0        2.761508    0.273206   -0.484346
      3          7           0        1.866456   -0.315145    0.517053
      4          8           0        0.607264    0.376141    0.424530
      5          6           0       -0.427168   -0.558259    0.239948
      6          6           0       -1.724989    0.194221    0.037097
      7          7           0       -1.861300    1.455855    0.004934
      8          6           0       -2.939569   -0.693662   -0.140218
      9          8           0       -4.058095   -0.294934   -0.319304
     10          1           0        4.840698    0.117900   -1.057568
     11          1           0        4.175098   -1.371556   -0.358162
     12          1           0        4.579654    0.002643    0.685542
     13          1           0        2.374845   -0.001173   -1.471502
     14          1           0        2.763545    1.371730   -0.427181
     15          1           0        2.206642   -0.045421    1.440508
     16          1           0       -0.519590   -1.230620    1.108985
     17          1           0       -0.229868   -1.203922   -0.630769
     18          1           0       -0.946895    1.898856    0.138536
     19          1           0       -2.715970   -1.785375   -0.092219
 ---------------------------------------------------------------------

 SCF Done:  E(RB3LYP) =  -456.431900850     A.U. after    1 cycles

 The electronic state is 1-A.
 Alpha  occ. eigenvalues --  -19.18531 -19.14986 -14.38174 -14.32951 -10.27823
 Alpha  occ. eigenvalues --  -10.25129 -10.24291 -10.22191 -10.19329  -1.08466
 Alpha  occ. eigenvalues --   -1.05569  -0.91952  -0.86722  -0.75601  -0.72313
 Alpha  occ. eigenvalues --   -0.64359  -0.62468  -0.55104  -0.53301  -0.50377
 Alpha  occ. eigenvalues --   -0.49674  -0.46992  -0.45453  -0.44798  -0.43502
 Alpha  occ. eigenvalues --   -0.41258  -0.40158  -0.38603  -0.38109  -0.36306
 Alpha  occ. eigenvalues --   -0.32030  -0.28762  -0.28499  -0.26208  -0.25074
 Alpha virt. eigenvalues --   -0.07366   0.04870   0.06297   0.07452   0.10232
 Alpha virt. eigenvalues --    0.11498   0.11976   0.13036   0.15272   0.15571
 Alpha virt. eigenvalues --    0.17037   0.17791   0.18321   0.18584   0.20945

 Mulliken charges:
               1
     1  C   -0.395883
     2  C   -0.087745
     3  N   -0.198980
     4  O   -0.276490
     5  C   -0.111974
     6  C    0.192984
     7  N   -0.426209
     8  C    0.129850
     9  O   -0.218099
    10  H    0.129083
    11  H    0.134438
    12  H    0.119075
    13  H    0.114953
    14  H    0.101465
    15  H    0.239596
    16  H    0.116621
    17  H    0.119232
    18  H    0.242942
    19  H    0.075140
 Sum of Mulliken charges =  -0.00000

 Dipole moment (field-independent basis, Debye):
    X=              5.1036    Y=             -1.6660    Z=              0.6247  Tot=              5.4049
 Quadrupole moment (field-independent basis, Debye-Ang):
   XX=            -65.4976   YY=            -54.5490   ZZ=            -50.7686
   XY=              7.0425   XZ=             -1.4126   YZ=              0.5668

  Exact polarizability: 102.717   0.922  74.344   1.863  -0.790  55.447
 Approx polarizability: 124.326  -2.612 120.607   4.975  -1.113  83.961

                      1                      2                      3
                      A                      A                      A
 Frequencies --     34.3212                37.9734                73.2757
 Red. masses --      4.0061                 3.6811                 3.4404
 Frc consts  --      0.0028                 0.0031                 0.0109
 IR Inten    --      2.6304                 0.4153                 5.7842

                      4                      5                      6
                      A                      A                      A
 Frequencies --     82.7516               133.0671               168.0337
 Red. masses --      2.2878                 2.1883                 4.6677
 Frc consts  --      0.0092                 0.0228                 0.0777
 IR Inten    --      4.3964                 1.0913                 1.9622

                      7                      8                      9
                      A                      A                      A
 Frequencies --    238.0586               259.5016               273.7404
 Red. masses --      1.1255                 3.2934                 5.3454
 Frc consts  --      0.0376                 0.1307                 0.2360
 IR Inten    --      0.4859                 2.8433                 1.3806

                     10                     11                     12
                      A                      A                      A
 Frequencies --    348.7581               435.2728               441.4333
 Red. masses --      6.5617                 4.2097                 2.6210
 Frc consts  --      0.4702                 0.4699                 0.3009
 IR Inten    --      1.3411                 8.0026                 0.1856

                     13                     14                     15
                      A                      A                      A
 Frequencies --    503.4882               720.9086               815.6583
 Red. masses --      5.0130                 3.8298                 1.1660
 Frc consts  --      0.7487                 1.1727                 0.4570
 IR Inten    --      4.8680                37.1033                19.0266

                     16                     17                     18
                      A                      A                      A
 Frequencies --    819.1202               860.5028               918.9055
 Red. masses --      1.1330                 2.5708                 3.4369
 Frc consts  --      0.4479                 1.1215                 1.7099
 IR Inten    --     17.8923                64.1140                10.7448

                     19                     20                     21
                      A                      A                      A
 Frequencies --    954.6904               986.1812              1030.7214
 Red. masses --      1.6237                 2.9616                 2.3446
 Frc consts  --      0.8719                 1.6970                 1.4676
 IR Inten    --     24.1130                32.9944                 7.5112

                     22                     23                     24
                      A                      A                      A
 Frequencies --   1055.1668              1060.0919              1072.0630
 Red. masses --      1.6181                 3.3052                 1.6855
 Frc consts  --      1.0614                 2.1884                 1.1413
 IR Inten    --     14.6628                 4.9713                 4.3631

                     25                     26                     27
                      A                      A                      A
 Frequencies --   1120.2992              1169.1545              1228.2114
 Red. masses --      2.7390                 2.8967                 1.6112
 Frc consts  --      2.0254                 2.3329                 1.4320
 IR Inten    --     70.3621                 9.6314                22.5387

                     28                     29                     30
                      A                      A                      A
 Frequencies --   1237.6805              1296.7084              1317.5512
 Red. masses --      1.1371                 1.1723                 1.3544
 Frc consts  --      1.0263                 1.1613                 1.3852
 IR Inten    --      2.2489                33.2717                97.1387

                     31                     32                     33
                      A                      A                      A
 Frequencies --   1371.1785              1399.6171              1411.0510
 Red. masses --      1.3275                 1.5080                 1.2704
 Frc consts  --      1.4706                 1.7404                 1.4903
 IR Inten    --      6.3964                 9.2986                 4.8559

                     34                     35                     36
                      A                      A                      A
 Frequencies --   1449.4873              1473.5586              1492.6672
 Red. masses --      1.3493                 1.1014                 1.0746
 Frc consts  --      1.6703                 1.4091                 1.4106
 IR Inten    --     25.9910                 3.7373                16.3036

                     37                     38                     39
                      A                      A                      A
 Frequencies --   1497.8827              1498.9049              1525.9282
 Red. masses --      1.0683                 1.0521                 1.0917
 Frc consts  --      1.4123                 1.3927                 1.4976
 IR Inten    --     15.0101                 1.9123                 2.6865

                     40                     41                     42
                      A                      A                      A
 Frequencies --   1716.4927              1837.8931              2856.6279
 Red. masses --      9.3128                10.5384                 1.0813
 Frc consts  --     16.1664                20.9732                 5.1990
 IR Inten    --     41.2225                89.7977               108.8750

                     43                     44                     45
                      A                      A                      A
 Frequencies --   2971.0299              2996.6875              2997.8602
 Red. masses --      1.0572                 1.0953                 1.0735
 Frc consts  --      5.4981                 5.7950                 5.6843
 IR Inten    --     39.3302                20.4404                43.8454

                     46                     47                     48
                      A                      A                      A
 Frequencies --   3037.9274              3067.1879              3107.3716
 Red. masses --      1.0386                 1.0924                 1.0989
 Frc consts  --      5.6475                 6.0548                 6.2518
 IR Inten    --     18.4841                14.2298                32.6663

                     49                     50                     51
                      A                      A                      A
 Frequencies --   3126.2377              3433.4594              3445.4440
 Red. masses --      1.1023                 1.0731                 1.0752
 Frc consts  --      6.3474                 7.4531                 7.5205
 IR Inten    --     19.5988                 6.5513                 1.0002

 - Thermochemistry -
 -------------------
 Temperature   298.150 Kelvin.  Pressure   1.00000 Atm.
 Atom     1 has atomic number  6 and mass  12.00000

 Molecular mass:   130.07423 amu.
 Principal axes and moments of inertia in atomic units:
                           1         2         3
     Eigenvalues --   289.182323272.967893413.25170
           X            0.99998   0.00259  -0.00611
           Y           -0.00266   0.99993  -0.01160
           Z            0.00608   0.01162   0.99991
 This molecule is an asymmetric top.
 Rotational symmetry number  1.
 Rotational temperatures (Kelvin)      0.29951     0.02646     0.02538
 Rotational constants (GHZ):           6.24084     0.55141     0.52875
 Zero-point vibrational energy     409169.4 (Joules/Mol)
                                   97.79384 (Kcal/Mol)
 Warning -- explicit consideration of  13 degrees of freedom as
           vibrations may cause significant error
 Vibrational temperatures:     49.38    54.64   105.43   119.06   191.45
          (Kelvin)            241.76   342.51   373.36   393.85   501.79
                              626.26   635.12   724.41  1037.23  1173.55
                             1178.53  1238.07  1322.10  1373.59  1418.89
                             1482.98  1518.15  1525.24  1542.46  1611.86
                             1682.15  1767.12  1780.75  1865.67  1895.66
                             1972.82  2013.74  2030.19  2085.49  2120.12
                             2147.62  2155.12  2156.59  2195.47  2469.65
                             2644.32  4110.05  4274.65  4311.56  4313.25
                             4370.90  4413.00  4470.81  4497.96  4939.98
                             4957.23

 Zero-point correction=                           0.155844 (Hartree/Particle)
 Thermal correction to Energy=                    0.166526
 Thermal correction to Enthalpy=                  0.167470
 Thermal correction to Gibbs Free Energy=         0.117766
 Sum of electronic and zero-point Energies=           -456.276056
 Sum of electronic and thermal Energies=              -456.265375
 Sum of electronic and thermal Enthalpies=            -456.264431
 Sum of electronic and thermal Free Energies=         -456.314135

                     E (Thermal)             CV                S
                      KCal/Mol        Cal/Mol-Kelvin    Cal/Mol-Kelvin
 Total                  104.497             35.671            104.612
 Electronic               0.000              0.000              0.000
 Translational            0.889              2.981             40.502
 Rotational               0.889              2.981             29.559
 Vibrational            102.719             29.709             34.552
 Vibration     1          0.594              1.983              5.563
 Vibration     2          0.594              1.982              5.362
 Vibration     3          0.599              1.967              4.063
 Vibration     4          0.600              1.961              3.825
 Vibration     5          0.613              1.920              2.901
 Vibration     6          0.625              1.882              2.457
 Vibration     7          0.656              1.782              1.817
 Vibration     8          0.668              1.747              1.665
 Vibration     9          0.676              1.722              1.572
 Vibration    10          0.726              1.578              1.172
 Vibration    11          0.796              1.393              0.842
 Vibration    12          0.801              1.380              0.822
 Vibration    13          0.859              1.242              0.649

 Optimization completed.
    -- Stationary point found.
 Normal termination of Gaussian 16 at Sun Jul  3 10:06:13 2022.
