 Gaussian 16, Revision A.03,
 Gaussian 16:  ES64L-G16RevA.03 25-Dec-2016

 -----------------------------
 # opt freq b3lyp/6-31g(2df,p)
 -----------------------------

 -------------------
 Title Card Required
 -------------------
 Symbolic Z-matrix:
 Charge =  0 Multiplicity = 1

 SCF Done:  E(RB3LYP) =  -404.464173457     A.U. after   13 cycles
 SCF Done:  E(RB3LYP) =  -404.486371778     A.U. after   13 cycles
 SCF Done:  E(RB3LYP) =  -404.492286669     A.U. after   13 cycles
 SCF Done:  E(RB3LYP) =  -404.495404934     A.U. after   13 cycles
 SCF Done:  E(RB3LYP) =  -404.497794698     A.U. after   13 cycles
 SCF Done:  E(RB3LYP) =  -404.500162894     A.U. after   13 cycles
 SCF Done:  E(RB3LYP) =  -404.501694982     A.U. after   13 cycles
 SCF Done:  E(RB3LYP) =  -404.502371188     A.U. after   12 cycles
 SCF Done:  E(RB3LYP) =  -404.502668385     A.U. after   11 cycles
 SCF Done:  E(RB3LYP) =  -404.502774793     A.U. after   12 cycles
 SCF Done:  E(RB3LYP) =  -404.502792740     A.U. after   10 cycles
 SCF Done:  E(RB3LYP) =  -404.502804728     A.U. after    9 cycles
 SCF Done:  E(RB3LYP) =  -404.502809412     A.U. after    9 cycles
 SCF Done:  E(RB3LYP) =  -404.502811403     A.U. after    8 cycles
 SCF Done:  E(RB3LYP) =  -404.502812974     A.U. after    9 cycles
 SCF Done:  E(RB3LYP) =  -404.502813481     A.U. after    8 cycles
 Optimization completed.
    -- Stationary point found.
 Normal termination of Gaussian 16 at Sun Jul  3 11:23:01 2022.

 ----------------------------------------------------------------------
 #N Geom=AllCheck Guess=TCheck SCRF=Check GenChk RB3LYP/6-31G(2df,p) Fr
 eq
 ----------------------------------------------------------------------

 Structure from the checkpoint file:  "CCNpCpCC1CC1dO.chk"
 -------------------
 Title Card Required
 -------------------
 Charge =  0 Multiplicity = 1

                         Standard orientation:
 ---------------------------------------------------------------------
 Center     Atomic      Atomic             Coordinates (Angstroms)
 Number     Number       Type             X           Y           Z
 ---------------------------------------------------------------------
      1          6           0       -3.026986   -0.109647    0.974733
      2          6           0       -2.183358    0.533795   -0.125747
      3          7           0       -0.824610   -0.005900   -0.204872
      4          6           0       -0.806877   -1.405363   -0.625627
      5          6           0        0.057527    0.811486   -1.034313
      6          6           0        1.503674    0.808262   -0.551971
      7          6           0        1.828634    1.033567    0.968388
      8          6           0        2.111268   -0.239550    0.290093
      9          8           0        2.536413   -1.355316    0.370882
     10          1           0       -3.977798    0.423191    1.072738
     11          1           0       -2.502889   -0.064386    1.934206
     12          1           0       -3.260688   -1.156401    0.762308
     13          1           0       -2.097687    1.605688    0.083024
     14          1           0       -2.712968    0.442229   -1.095047
     15          1           0       -1.322281   -2.031411    0.106175
     16          1           0        0.221151   -1.764728   -0.696377
     17          1           0       -1.293465   -1.551529   -1.608889
     18          1           0       -0.299764    1.847343   -1.004846
     19          1           0        0.030274    0.501460   -2.095158
     20          1           0        2.195531    1.294461   -1.239424
     21          1           0        0.966576    1.031354    1.631318
     22          1           0        2.631675    1.711249    1.243686
 ---------------------------------------------------------------------

 SCF Done:  E(RB3LYP) =  -404.502813481     A.U. after    1 cycles

 The electronic state is 1-A.
 Alpha  occ. eigenvalues --  -19.14545 -14.32494 -10.27718 -10.21846 -10.20889
 Alpha  occ. eigenvalues --  -10.20226 -10.19598 -10.19296 -10.17630  -1.04873
 Alpha  occ. eigenvalues --   -0.92530  -0.85798  -0.75369  -0.71468  -0.66270
 Alpha  occ. eigenvalues --   -0.60130  -0.57839  -0.53060  -0.49499  -0.47858
 Alpha  occ. eigenvalues --   -0.46955  -0.46107  -0.43267  -0.42143  -0.41039
 Alpha  occ. eigenvalues --   -0.39205  -0.38695  -0.37533  -0.36829  -0.36354
 Alpha  occ. eigenvalues --   -0.34299  -0.33964  -0.30453  -0.22915  -0.21856
 Alpha virt. eigenvalues --   -0.02572   0.08044   0.10815   0.11524   0.12207
 Alpha virt. eigenvalues --    0.13012   0.15033   0.15525   0.15644   0.16130
 Alpha virt. eigenvalues --    0.16539   0.17759   0.18314   0.18861   0.20393

 Mulliken charges:
               1
     1  C   -0.392105
     2  C   -0.110136
     3  N   -0.068732
     4  C   -0.344431
     5  C   -0.173885
     6  C   -0.157587
     7  C   -0.399668
     8  C    0.455283
     9  O   -0.298180
    10  H    0.114957
    11  H    0.123103
    12  H    0.122652
    13  H    0.099192
    14  H    0.076015
    15  H    0.123383
    16  H    0.151877
    17  H    0.089112
    18  H    0.103975
    19  H    0.091637
    20  H    0.112512
    21  H    0.147609
    22  H    0.133417
 Sum of Mulliken charges =  -0.00000

 Dipole moment (field-independent basis, Debye):
    X=             -1.5746    Y=              2.3702    Z=             -0.7430  Tot=              2.9409
 Quadrupole moment (field-independent basis, Debye-Ang):
   XX=            -57.3318   YY=            -56.6534   ZZ=            -55.2689
   XY=              6.5214   XZ=             -1.4930   YZ=              0.7829

  Exact polarizability:  92.356  -0.584  82.305   1.055   1.017  77.864
 Approx polarizability: 116.373  -7.113 129.191   2.869   0.655 116.447

                      1                      2                      3
                      A                      A                      A
 Frequencies --     40.9373                63.6085               105.7520
 Red. masses --      4.5377                 2.7501                 1.8967
 Frc consts  --      0.0045                 0.0066                 0.0125
 IR Inten    --      2.1972                 0.7397                 2.5735

                      4                      5                      6
                      A                      A                      A
 Frequencies --    135.5165               195.3200               224.2929
 Red. masses --      3.4354                 3.0291                 1.1243
 Frc consts  --      0.0372                 0.0681                 0.0333
 IR Inten    --      1.0697                 1.8614                 0.4679

                      7                      8                      9
                      A                      A                      A
 Frequencies --    247.1857               299.2071               368.6089
 Red. masses --      1.7286                 1.6087                 2.4149
 Frc consts  --      0.0622                 0.0849                 0.1933
 IR Inten    --      1.7992                 0.4452                 2.0954

                     10                     11                     12
                      A                      A                      A
 Frequencies --    393.4657               409.9754               443.4324
 Red. masses --      2.6098                 1.9539                 2.7633
 Frc consts  --      0.2381                 0.1935                 0.3201
 IR Inten    --      2.9356                 1.6536                 1.5688

                     13                     14                     15
                      A                      A                      A
 Frequencies --    516.6599               562.5809               704.6389
 Red. masses --      3.0976                 2.4905                 1.7730
 Frc consts  --      0.4872                 0.4644                 0.5187
 IR Inten    --      2.2701                 1.8264                 3.6403

                     16                     17                     18
                      A                      A                      A
 Frequencies --    745.9841               800.6557               811.2196
 Red. masses --      2.2700                 3.0250                 1.2032
 Frc consts  --      0.7443                 1.1425                 0.4665
 IR Inten    --      1.7188                 2.1409                 5.8759

                     19                     20                     21
                      A                      A                      A
 Frequencies --    827.8911               959.6838               971.5967
 Red. masses --      2.6619                 2.0462                 2.8143
 Frc consts  --      1.0750                 1.1103                 1.5653
 IR Inten    --     17.8046                12.3551                63.1591

                     22                     23                     24
                      A                      A                      A
 Frequencies --   1009.1463              1034.9371              1066.0243
 Red. masses --      1.8182                 1.6112                 2.0838
 Frc consts  --      1.0909                 1.0168                 1.3952
 IR Inten    --     27.7587                16.5679                38.3084

                     25                     26                     27
                      A                      A                      A
 Frequencies --   1074.5190              1087.3512              1107.1773
 Red. masses --      2.1403                 1.8465                 1.5445
 Frc consts  --      1.4560                 1.2863                 1.1155
 IR Inten    --      3.2898                 3.6125                 6.6524

                     28                     29                     30
                      A                      A                      A
 Frequencies --   1127.1946              1136.1630              1168.1501
 Red. masses --      1.4200                 1.8150                 1.7402
 Frc consts  --      1.0630                 1.3804                 1.3991
 IR Inten    --      1.9876                14.4168                11.9205

                     31                     32                     33
                      A                      A                      A
 Frequencies --   1207.9077              1258.3201              1312.6548
 Red. masses --      2.0619                 1.7962                 1.6131
 Frc consts  --      1.7725                 1.6757                 1.6377
 IR Inten    --     15.4910                13.8633                15.6919

                     34                     35                     36
                      A                      A                      A
 Frequencies --   1322.9913              1342.5601              1385.1732
 Red. masses --      1.5467                 1.2934                 1.3152
 Frc consts  --      1.5951                 1.3736                 1.4868
 IR Inten    --      2.1480                21.5878                36.6331

                     37                     38                     39
                      A                      A                      A
 Frequencies --   1398.4811              1407.0398              1426.3490
 Red. masses --      1.2086                 1.2657                 1.3065
 Frc consts  --      1.3927                 1.4764                 1.5661
 IR Inten    --      3.1000                16.5208                 9.9987

                     40                     41                     42
                      A                      A                      A
 Frequencies --   1465.9603              1484.0206              1488.7942
 Red. masses --      1.1580                 1.0786                 1.0449
 Frc consts  --      1.4662                 1.3996                 1.3645
 IR Inten    --      1.0282                 1.4687                 7.9616

                     43                     44                     45
                      A                      A                      A
 Frequencies --   1496.7650              1504.8854              1510.9406
 Red. masses --      1.0689                 1.0535                 1.0501
 Frc consts  --      1.4109                 1.4058                 1.4125
 IR Inten    --      1.0986                 4.7064                10.2195

                     46                     47                     48
                      A                      A                      A
 Frequencies --   1518.0878              1941.7412              2904.0495
 Red. masses --      1.0939                12.5036                 1.0724
 Frc consts  --      1.4853                27.7759                 5.3286
 IR Inten    --      3.1321               271.8734                58.0162

                     49                     50                     51
                      A                      A                      A
 Frequencies --   2926.1677              2934.9017              3042.0842
 Red. masses --      1.0640                 1.0688                 1.0404
 Frc consts  --      5.3679                 5.4244                 5.6730
 IR Inten    --     36.0542               130.9144                17.5636

                     52                     53                     54
                      A                      A                      A
 Frequencies --   3044.5241              3056.8854              3092.3189
 Red. masses --      1.0833                 1.0862                 1.0724
 Frc consts  --      5.9161                 5.9804                 6.0417
 IR Inten    --      5.9171                38.7169                18.4306

                     55                     56                     57
                      A                      A                      A
 Frequencies --   3110.2954              3112.2728              3115.4839
 Red. masses --      1.0522                 1.1004                 1.0853
 Frc consts  --      5.9975                 6.2800                 6.2065
 IR Inten    --      3.7026                31.6449                 8.2483

                     58                     59                     60
                      A                      A                      A
 Frequencies --   3118.4115              3139.3332              3203.4014
 Red. masses --      1.1011                 1.1017                 1.1145
 Frc consts  --      6.3085                 6.3971                 6.7383
 IR Inten    --     29.9027                 9.9296                 1.4713

 - Thermochemistry -
 -------------------
 Temperature   298.150 Kelvin.  Pressure   1.00000 Atm.
 Atom     1 has atomic number  6 and mass  12.00000

 Molecular mass:   127.09971 amu.
 Principal axes and moments of inertia in atomic units:
                           1         2         3
     Eigenvalues --   635.310381919.237742063.39229
           X            0.99958   0.02693  -0.01027
           Y           -0.02646   0.99869   0.04373
           Z            0.01143  -0.04344   0.99899
 This molecule is an asymmetric top.
 Rotational symmetry number  1.
 Warning -- assumption of classical behavior for rotation
           may cause significant error
 Rotational temperatures (Kelvin)      0.13633     0.04513     0.04198
 Rotational constants (GHZ):           2.84072     0.94034     0.87465
 Zero-point vibrational energy     501903.3 (Joules/Mol)
                                  119.95777 (Kcal/Mol)
 Warning -- explicit consideration of  14 degrees of freedom as
           vibrations may cause significant error
 Vibrational temperatures:     58.90    91.52   152.15   194.98   281.02
          (Kelvin)            322.71   355.65   430.49   530.35   566.11
                              589.86   638.00   743.36   809.43  1013.82
                             1073.30  1151.96  1167.16  1191.15  1380.77
                             1397.91  1451.94  1489.04  1533.77  1545.99
                             1564.46  1592.98  1621.78  1634.69  1680.71
                             1737.91  1810.44  1888.62  1903.49  1931.64
                             1992.96  2012.10  2024.42  2052.20  2109.19
                             2135.17  2142.04  2153.51  2165.19  2173.91
                             2184.19  2793.73  4178.28  4210.10  4222.67
                             4376.88  4380.39  4398.18  4449.16  4475.02
                             4477.87  4482.49  4486.70  4516.80  4608.98

 Zero-point correction=                           0.191165 (Hartree/Particle)
 Thermal correction to Energy=                    0.201551
 Thermal correction to Enthalpy=                  0.202495
 Thermal correction to Gibbs Free Energy=         0.154984
 Sum of electronic and zero-point Energies=           -404.311649
 Sum of electronic and thermal Energies=              -404.301263
 Sum of electronic and thermal Enthalpies=            -404.300319
 Sum of electronic and thermal Free Energies=         -404.347829

                     E (Thermal)             CV                S
                      KCal/Mol        Cal/Mol-Kelvin    Cal/Mol-Kelvin
 Total                  126.475             37.690             99.995
 Electronic               0.000              0.000              0.000
 Translational            0.889              2.981             40.433
 Rotational               0.889              2.981             29.310
 Vibrational            124.698             31.728             30.252
 Vibration     1          0.594              1.981              5.213
 Vibration     2          0.597              1.972              4.342
 Vibration     3          0.605              1.945              3.345
 Vibration     4          0.613              1.918              2.866
 Vibration     5          0.636              1.846              2.177
 Vibration     6          0.649              1.804              1.924
 Vibration     7          0.661              1.767              1.751
 Vibration     8          0.692              1.675              1.421
 Vibration     9          0.741              1.537              1.086
 Vibration    10          0.761              1.484              0.987
 Vibration    11          0.774              1.449              0.927
 Vibration    12          0.803              1.375              0.816
 Vibration    13          0.872              1.213              0.618
 Vibration    14          0.918              1.112              0.519

                           ! Non-Optimized Parameters !
 Normal termination of Gaussian 16 at Sun Jul  3 11:58:00 2022.
