 Gaussian 16, Revision A.03,
 Gaussian 16:  ES64L-G16RevA.03 25-Dec-2016

 -----------------------------
 # opt freq b3lyp/6-31g(2df,p)
 -----------------------------

 -------------------
 Title Card Required
 -------------------
 Symbolic Z-matrix:
 Charge =  0 Multiplicity = 1

 SCF Done:  E(RB3LYP) =  -441.680764092     A.U. after   13 cycles
 SCF Done:  E(RB3LYP) =  -441.685375463     A.U. after   11 cycles
 SCF Done:  E(RB3LYP) =  -441.686001104     A.U. after   12 cycles
 SCF Done:  E(RB3LYP) =  -441.686559814     A.U. after   11 cycles
 SCF Done:  E(RB3LYP) =  -441.687212155     A.U. after   13 cycles
 SCF Done:  E(RB3LYP) =  -441.688135751     A.U. after   11 cycles
 SCF Done:  E(RB3LYP) =  -441.689875129     A.U. after   12 cycles
 SCF Done:  E(RB3LYP) =  -441.691798109     A.U. after   12 cycles
 SCF Done:  E(RB3LYP) =  -441.692848629     A.U. after   11 cycles
 SCF Done:  E(RB3LYP) =  -441.693767165     A.U. after   11 cycles
 SCF Done:  E(RB3LYP) =  -441.694051044     A.U. after   11 cycles
 SCF Done:  E(RB3LYP) =  -441.694008194     A.U. after   12 cycles
 SCF Done:  E(RB3LYP) =  -441.694215623     A.U. after   11 cycles
 SCF Done:  E(RB3LYP) =  -441.694225530     A.U. after    9 cycles
 SCF Done:  E(RB3LYP) =  -441.694226313     A.U. after    7 cycles
 SCF Done:  E(RB3LYP) =  -441.694226561     A.U. after    7 cycles
 Optimization completed.
    -- Stationary point found.
 Normal termination of Gaussian 16 at Thu Aug  4 14:44:26 2022.

 ----------------------------------------------------------------------
 #N Geom=AllCheck Guess=TCheck SCRF=Check GenChk RB3LYP/6-31G(2df,p) Fr
 eq
 ----------------------------------------------------------------------

 Structure from the checkpoint file:  "CCOCpdNpCpOpCC.chk"
 -------------------
 Title Card Required
 -------------------
 Charge =  0 Multiplicity = 1

                         Standard orientation:
 ---------------------------------------------------------------------
 Center     Atomic      Atomic             Coordinates (Angstroms)
 Number     Number       Type             X           Y           Z
 ---------------------------------------------------------------------
      1          6           0        3.366850   -1.157711    0.162516
      2          6           0        2.522835    0.066264   -0.141259
      3          8           0        1.170106   -0.236736    0.213193
      4          6           0        0.232092    0.713545    0.023018
      5          7           0        0.362283    1.892108   -0.429197
      6          6           0       -1.149395    0.221068    0.422323
      7          8           0       -2.070044    1.283572    0.388284
      8          6           0       -1.606118   -0.936382   -0.486740
      9          6           0       -2.980420   -1.471805   -0.082272
     10          1           0        4.412012   -0.963468   -0.094698
     11          1           0        3.020944   -2.018363   -0.416030
     12          1           0        3.311650   -1.410324    1.224662
     13          1           0        2.571025    0.326316   -1.206942
     14          1           0        2.864294    0.935348    0.436578
     15          1           0        1.311633    2.150805   -0.682631
     16          1           0       -1.073365   -0.160157    1.453722
     17          1           0       -1.587695    2.027090   -0.008891
     18          1           0       -0.854647   -1.732485   -0.449054
     19          1           0       -1.636875   -0.563298   -1.518049
     20          1           0       -2.958652   -1.891185    0.930100
     21          1           0       -3.310961   -2.261221   -0.764115
     22          1           0       -3.720901   -0.668376   -0.097604
 ---------------------------------------------------------------------

 SCF Done:  E(RB3LYP) =  -441.694226561     A.U. after    1 cycles

 The electronic state is 1-A.
 Alpha  occ. eigenvalues --  -19.18842 -19.11450 -14.31199 -10.27833 -10.25707
 Alpha  occ. eigenvalues --  -10.23022 -10.19599 -10.17515 -10.16370  -1.08894
 Alpha  occ. eigenvalues --   -1.00731  -0.89109  -0.79143  -0.76618  -0.69618
 Alpha  occ. eigenvalues --   -0.64217  -0.59359  -0.56802  -0.55272  -0.50140
 Alpha  occ. eigenvalues --   -0.49633  -0.45772  -0.43122  -0.42404  -0.41337
 Alpha  occ. eigenvalues --   -0.40885  -0.39356  -0.37082  -0.36488  -0.35128
 Alpha  occ. eigenvalues --   -0.34275  -0.32965  -0.31587  -0.28498  -0.27891
 Alpha  occ. eigenvalues --   -0.25203
 Alpha virt. eigenvalues --    0.02271   0.07603   0.10076   0.11454   0.11767
 Alpha virt. eigenvalues --    0.13163   0.14356   0.15285   0.15391   0.16898
 Alpha virt. eigenvalues --    0.17410   0.17636   0.17902   0.18519   0.20270

 Mulliken charges:
               1
     1  C   -0.392473
     2  C   -0.069251
     3  O   -0.235430
     4  C    0.394598
     5  N   -0.565052
     6  C    0.080067
     7  O   -0.442324
     8  C   -0.173455
     9  C   -0.385689
    10  H    0.125899
    11  H    0.136677
    12  H    0.137219
    13  H    0.115782
    14  H    0.115956
    15  H    0.225080
    16  H    0.087062
    17  H    0.292758
    18  H    0.099286
    19  H    0.097895
    20  H    0.109816
    21  H    0.106198
    22  H    0.139383
 Sum of Mulliken charges =  -0.00000

 Dipole moment (field-independent basis, Debye):
    X=              3.8707    Y=             -1.2051    Z=             -0.5635  Tot=              4.0929
 Quadrupole moment (field-independent basis, Debye-Ang):
   XX=            -52.2221   YY=            -57.4465   ZZ=            -55.3522
   XY=              3.6613   XZ=              0.2820   YZ=             -0.6041

  Exact polarizability:  96.050   1.452  83.127  -1.473  -3.777  64.037
 Approx polarizability: 114.832  -0.344 123.961  -2.632  -9.821  97.977

                      1                      2                      3
                      A                      A                      A
 Frequencies --     50.8730                84.3971                93.4352
 Red. masses --      3.3674                 3.8129                 2.2866
 Frc consts  --      0.0051                 0.0160                 0.0118
 IR Inten    --      1.3374                 0.9856                 0.6582

                      4                      5                      6
                      A                      A                      A
 Frequencies --    111.5203               156.3594               212.0215
 Red. masses --      2.0782                 2.6812                 2.6037
 Frc consts  --      0.0152                 0.0386                 0.0690
 IR Inten    --      0.4334                 0.0316                 0.9736

                      7                      8                      9
                      A                      A                      A
 Frequencies --    233.5332               259.3700               309.2577
 Red. masses --      1.1367                 1.3491                 3.4755
 Frc consts  --      0.0365                 0.0535                 0.1958
 IR Inten    --      0.3024                 0.3195                 3.4456

                     10                     11                     12
                      A                      A                      A
 Frequencies --    353.0678               367.4104               410.9062
 Red. masses --      3.7119                 3.8328                 1.6174
 Frc consts  --      0.2726                 0.3048                 0.1609
 IR Inten    --      0.7945                13.2750                42.5442

                     13                     14                     15
                      A                      A                      A
 Frequencies --    427.1858               515.5962               636.2152
 Red. masses --      1.8056                 2.7069                 3.0038
 Frc consts  --      0.1941                 0.4240                 0.7164
 IR Inten    --     28.8022                 1.5560                11.4270

                     16                     17                     18
                      A                      A                      A
 Frequencies --    732.7035               785.0743               814.2383
 Red. masses --      2.8800                 1.4037                 1.1886
 Frc consts  --      0.9110                 0.5097                 0.4643
 IR Inten    --     27.8528                 7.8077                31.6557

                     19                     20                     21
                      A                      A                      A
 Frequencies --    853.9292               878.8471               895.6318
 Red. masses --      1.3131                 1.8607                 2.2932
 Frc consts  --      0.5642                 0.8467                 1.0838
 IR Inten    --     28.3297                 9.0432                 1.5281

                     22                     23                     24
                      A                      A                      A
 Frequencies --    956.4524              1003.5829              1037.6199
 Red. masses --      2.7192                 1.7567                 2.5524
 Frc consts  --      1.4656                 1.0425                 1.6191
 IR Inten    --      5.2056                18.4307                 3.4730

                     25                     26                     27
                      A                      A                      A
 Frequencies --   1076.4394              1118.8353              1128.9076
 Red. masses --      2.5588                 2.4696                 2.3015
 Frc consts  --      1.7469                 1.8214                 1.7282
 IR Inten    --     22.7130               143.5393                32.5835

                     28                     29                     30
                      A                      A                      A
 Frequencies --   1140.0058              1165.4675              1183.9186
 Red. masses --      2.4026                 2.5018                 1.5282
 Frc consts  --      1.8397                 2.0022                 1.2620
 IR Inten    --     27.9268               112.0590                 4.6882

                     31                     32                     33
                      A                      A                      A
 Frequencies --   1259.3271              1287.9831              1299.9363
 Red. masses --      1.3570                 1.2265                 1.1074
 Frc consts  --      1.2679                 1.1988                 1.1025
 IR Inten    --     45.8082                 9.8974                 0.6951

                     34                     35                     36
                      A                      A                      A
 Frequencies --   1334.8981              1350.0395              1379.5693
 Red. masses --      1.5443                 1.5369                 1.3301
 Frc consts  --      1.6213                 1.6504                 1.4915
 IR Inten    --    156.3837               174.1507                 9.4921

                     37                     38                     39
                      A                      A                      A
 Frequencies --   1404.3054              1406.0595              1425.3658
 Red. masses --      1.2826                 1.2430                 1.4224
 Frc consts  --      1.4903                 1.4479                 1.7027
 IR Inten    --     11.4973                 6.8491                 3.5677

                     40                     41                     42
                      A                      A                      A
 Frequencies --   1465.1915              1481.3962              1485.1445
 Red. masses --      1.4345                 1.0950                 1.0394
 Frc consts  --      1.8145                 1.4158                 1.3508
 IR Inten    --     42.3026                 2.9574                 5.1389

                     43                     44                     45
                      A                      A                      A
 Frequencies --   1495.4574              1499.3486              1510.3552
 Red. masses --      1.0431                 1.0467                 1.0574
 Frc consts  --      1.3744                 1.3863                 1.4211
 IR Inten    --      3.9498                 3.3023                 4.2953

                     46                     47                     48
                      A                      A                      A
 Frequencies --   1524.0394              1725.7910              2975.0194
 Red. masses --      1.0919                 9.0520                 1.0814
 Frc consts  --      1.4942                15.8844                 5.6393
 IR Inten    --      1.8039               161.4958                28.5384

                     49                     50                     51
                      A                      A                      A
 Frequencies --   3007.8231              3030.1383              3034.7865
 Red. masses --      1.0555                 1.0609                 1.0380
 Frc consts  --      5.6260                 5.7394                 5.6325
 IR Inten    --     23.2890                15.5711                35.8327

                     52                     53                     54
                      A                      A                      A
 Frequencies --   3048.0206              3049.9336              3076.5495
 Red. masses --      1.1074                 1.0348                 1.0992
 Frc consts  --      6.0614                 5.6715                 6.1297
 IR Inten    --     24.9788                13.0173                16.1028

                     55                     56                     57
                      A                      A                      A
 Frequencies --   3099.6486              3125.3021              3126.7845
 Red. masses --      1.1010                 1.1016                 1.1007
 Frc consts  --      6.2324                 6.3394                 6.3401
 IR Inten    --     40.7666                17.7217                20.8578

                     58                     59                     60
                      A                      A                      A
 Frequencies --   3129.9529              3534.9984              3665.3075
 Red. masses --      1.1034                 1.0750                 1.0650
 Frc consts  --      6.3687                 7.9150                 8.4298
 IR Inten    --     21.3233                 1.8732               119.3703

 - Thermochemistry -
 -------------------
 Temperature   298.150 Kelvin.  Pressure   1.00000 Atm.
 Atom     1 has atomic number  6 and mass  12.00000

 Molecular mass:   131.09463 amu.
 Principal axes and moments of inertia in atomic units:
                           1         2         3
     Eigenvalues --   667.944282062.504522578.47193
           X            0.99988   0.01556   0.00193
           Y           -0.01555   0.99987  -0.00522
           Z           -0.00201   0.00519   0.99998
 This molecule is an asymmetric top.
 Rotational symmetry number  1.
 Warning -- assumption of classical behavior for rotation
           may cause significant error
 Rotational temperatures (Kelvin)      0.12967     0.04199     0.03359
 Rotational constants (GHZ):           2.70193     0.87502     0.69993
 Zero-point vibrational energy     503814.9 (Joules/Mol)
                                  120.41465 (Kcal/Mol)
 Warning -- explicit consideration of  14 degrees of freedom as
           vibrations may cause significant error
 Vibrational temperatures:     73.19   121.43   134.43   160.45   224.97
          (Kelvin)            305.05   336.00   373.18   444.95   507.99
                              528.62   591.20   614.63   741.83   915.37
                             1054.20  1129.55  1171.51  1228.61  1264.46
                             1288.61  1376.12  1443.93  1492.90  1548.76
                             1609.75  1624.25  1640.21  1676.85  1703.39
                             1811.89  1853.12  1870.32  1920.62  1942.41
                             1984.89  2020.48  2023.01  2050.78  2108.08
                             2131.40  2136.79  2151.63  2157.23  2173.06
                             2192.75  2483.03  4280.39  4327.59  4359.69
                             4366.38  4385.42  4388.17  4426.47  4459.70
                             4496.61  4498.75  4503.30  5086.07  5273.56

 Zero-point correction=                           0.191893 (Hartree/Particle)
 Thermal correction to Energy=                    0.202787
 Thermal correction to Enthalpy=                  0.203731
 Thermal correction to Gibbs Free Energy=         0.155183
 Sum of electronic and zero-point Energies=           -441.502334
 Sum of electronic and thermal Energies=              -441.491440
 Sum of electronic and thermal Enthalpies=            -441.490496
 Sum of electronic and thermal Free Energies=         -441.539044

                     E (Thermal)             CV                S
                      KCal/Mol        Cal/Mol-Kelvin    Cal/Mol-Kelvin
 Total                  127.251             38.882            102.178
 Electronic               0.000              0.000              0.000
 Translational            0.889              2.981             40.525
 Rotational               0.889              2.981             29.653
 Vibrational            125.473             32.921             31.999
 Vibration     1          0.595              1.977              4.783
 Vibration     2          0.601              1.960              3.786
 Vibration     3          0.602              1.954              3.587
 Vibration     4          0.607              1.940              3.242
 Vibration     5          0.620              1.896              2.593
 Vibration     6          0.643              1.823              2.026
 Vibration     7          0.654              1.790              1.852
 Vibration     8          0.668              1.747              1.666
 Vibration     9          0.699              1.656              1.366
 Vibration    10          0.729              1.569              1.152
 Vibration    11          0.740              1.539              1.091
 Vibration    12          0.775              1.447              0.923
 Vibration    13          0.789              1.411              0.868
 Vibration    14          0.871              1.215              0.620

                           ! Non-Optimized Parameters !
 Normal termination of Gaussian 16 at Thu Aug  4 15:16:25 2022.
