 Gaussian 16, Revision A.03,
 Gaussian 16:  ES64L-G16RevA.03 25-Dec-2016

 -----------------------------
 # opt freq b3lyp/6-31g(2df,p)
 -----------------------------

 -------------------
 Title Card Required
 -------------------
 Symbolic Z-matrix:
 Charge =  0 Multiplicity = 1

 SCF Done:  E(RB3LYP) =  -384.847032890     A.U. after   15 cycles
 SCF Done:  E(RB3LYP) =  -384.900440329     A.U. after   13 cycles
 SCF Done:  E(RB3LYP) =  -384.960916797     A.U. after   12 cycles
 SCF Done:  E(RB3LYP) =  -384.980776143     A.U. after   12 cycles
 SCF Done:  E(RB3LYP) =  -385.001163145     A.U. after   11 cycles
 SCF Done:  E(RB3LYP) =  -385.010898048     A.U. after   11 cycles
 SCF Done:  E(RB3LYP) =  -385.021423891     A.U. after   13 cycles
 SCF Done:  E(RB3LYP) =  -385.028606976     A.U. after   10 cycles
 SCF Done:  E(RB3LYP) =  -385.037582600     A.U. after   11 cycles
 SCF Done:  E(RB3LYP) =  -385.042231652     A.U. after   11 cycles
 SCF Done:  E(RB3LYP) =  -385.042933247     A.U. after   11 cycles
 SCF Done:  E(RB3LYP) =  -385.044268484     A.U. after   10 cycles
 SCF Done:  E(RB3LYP) =  -385.044338945     A.U. after   10 cycles
 SCF Done:  E(RB3LYP) =  -385.044351677     A.U. after    9 cycles
 SCF Done:  E(RB3LYP) =  -385.044357916     A.U. after    8 cycles
 SCF Done:  E(RB3LYP) =  -385.044360809     A.U. after    8 cycles
 SCF Done:  E(RB3LYP) =  -385.044361196     A.U. after    7 cycles
 SCF Done:  E(RB3LYP) =  -385.044361310     A.U. after    6 cycles
 Optimization completed.
    -- Stationary point found.
 Normal termination of Gaussian 16 at Thu Aug  4 03:03:11 2022.

 ----------------------------------------------------------------------
 #N Geom=AllCheck Guess=TCheck SCRF=Check GenChk RB3LYP/6-31G(2df,p) Fr
 eq
 ----------------------------------------------------------------------

 Structure from the checkpoint file:  "CCOC1OC2CC21.chk"
 -------------------
 Title Card Required
 -------------------
 Charge =  0 Multiplicity = 1

                         Standard orientation:
 ---------------------------------------------------------------------
 Center     Atomic      Atomic             Coordinates (Angstroms)
 Number     Number       Type             X           Y           Z
 ---------------------------------------------------------------------
      1          6           0       -3.083043    0.291602   -0.133228
      2          6           0       -1.574302    0.467348   -0.134259
      3          8           0       -1.002966   -0.728242    0.395440
      4          6           0        0.363894   -0.855325    0.400410
      5          8           0        1.002760   -0.856226   -0.913395
      6          6           0        2.069845   -0.057592   -0.392199
      7          6           0        1.596261    1.316916   -0.084796
      8          6           0        1.351364    0.195921    0.916931
      9          1           0       -3.568835    1.189493   -0.527015
     10          1           0       -3.450049    0.115030    0.881896
     11          1           0       -3.370568   -0.560896   -0.754739
     12          1           0       -1.284729    1.327666    0.483743
     13          1           0       -1.202036    0.634678   -1.152152
     14          1           0        0.551479   -1.821610    0.883219
     15          1           0        3.086352   -0.363595   -0.604777
     16          1           0        0.798849    1.757049   -0.672091
     17          1           0        2.362592    2.014272    0.240839
     18          1           0        1.734483    0.230428    1.927566
 ---------------------------------------------------------------------

 SCF Done:  E(RB3LYP) =  -385.044361310     A.U. after    1 cycles

 The electronic state is 1-A.
 Alpha  occ. eigenvalues --  -19.14694 -19.13652 -10.28097 -10.24180 -10.22739
 Alpha  occ. eigenvalues --  -10.19678 -10.19493 -10.17495  -1.07255  -1.01959
 Alpha  occ. eigenvalues --   -0.83400  -0.76463  -0.68209  -0.62058  -0.60374
 Alpha  occ. eigenvalues --   -0.54944  -0.52458  -0.49501  -0.49189  -0.45882
 Alpha  occ. eigenvalues --   -0.44454  -0.39968  -0.38837  -0.37456  -0.36798
 Alpha  occ. eigenvalues --   -0.36036  -0.33698  -0.31396  -0.28581  -0.26726
 Alpha  occ. eigenvalues --   -0.23826
 Alpha virt. eigenvalues --    0.09171   0.09880   0.10730   0.12057   0.12696
 Alpha virt. eigenvalues --    0.13696   0.14858   0.15768   0.16625   0.17119
 Alpha virt. eigenvalues --    0.18662   0.18976   0.20103   0.21804   0.23443

 Mulliken charges:
               1
     1  C   -0.388122
     2  C   -0.047835
     3  O   -0.245143
     4  C    0.258375
     5  O   -0.315055
     6  C    0.114242
     7  C   -0.300303
     8  C   -0.198541
     9  H    0.114406
    10  H    0.125752
    11  H    0.130069
    12  H    0.100221
    13  H    0.112842
    14  H    0.094350
    15  H    0.106877
    16  H    0.119450
    17  H    0.116818
    18  H    0.101596
 Sum of Mulliken charges =  -0.00000

 Dipole moment (field-independent basis, Debye):
    X=              0.7474    Y=              1.5799    Z=              0.9867  Tot=              2.0071
 Quadrupole moment (field-independent basis, Debye-Ang):
   XX=            -43.2587   YY=            -48.2119   ZZ=            -49.0990
   XY=             -0.6880   XZ=              2.4655   YZ=             -1.5507

  Exact polarizability:  80.214   0.951  64.703   0.054  -1.702  58.262
 Approx polarizability:  98.667   1.859  96.298  -2.982  -1.091  92.520

                      1                      2                      3
                      A                      A                      A
 Frequencies --     72.7126               121.4765               162.9276
 Red. masses --      3.3596                 1.7883                 3.1831
 Frc consts  --      0.0105                 0.0155                 0.0498
 IR Inten    --      2.5636                 2.7525                 0.6824

                      4                      5                      6
                      A                      A                      A
 Frequencies --    250.1768               263.3013               355.3198
 Red. masses --      1.1887                 3.6419                 3.1524
 Frc consts  --      0.0438                 0.1488                 0.2345
 IR Inten    --      0.9965                 1.6066                 3.6466

                      7                      8                      9
                      A                      A                      A
 Frequencies --    392.2193               478.8828               664.7360
 Red. masses --      3.5225                 3.0766                 4.9097
 Frc consts  --      0.3193                 0.4157                 1.2782
 IR Inten    --      1.5042                 2.6124                 0.2681

                     10                     11                     12
                      A                      A                      A
 Frequencies --    732.6953               781.1444               810.3225
 Red. masses --      2.6218                 1.9345                 2.0718
 Frc consts  --      0.8293                 0.6955                 0.8015
 IR Inten    --      6.4304                 5.2194                17.0819

                     13                     14                     15
                      A                      A                      A
 Frequencies --    832.6372               865.8673               906.9394
 Red. masses --      1.0919                 2.4193                 3.1862
 Frc consts  --      0.4460                 1.0687                 1.5441
 IR Inten    --      0.5774                 7.1396                48.9043

                     16                     17                     18
                      A                      A                      A
 Frequencies --    953.4045               988.5433               995.4937
 Red. masses --      2.5389                 1.8094                 2.6373
 Frc consts  --      1.3597                 1.0418                 1.5399
 IR Inten    --     83.5621                12.4387                 4.6349

                     19                     20                     21
                      A                      A                      A
 Frequencies --   1040.2358              1046.9942              1049.3922
 Red. masses --      1.8016                 1.5721                 1.6924
 Frc consts  --      1.1486                 1.0154                 1.0981
 IR Inten    --     33.7178                 9.7574                27.1732

                     22                     23                     24
                      A                      A                      A
 Frequencies --   1074.7674              1088.8676              1141.4819
 Red. masses --      2.1424                 1.7527                 2.1833
 Frc consts  --      1.4580                 1.2244                 1.6761
 IR Inten    --      9.0664                36.6897                17.2194

                     25                     26                     27
                      A                      A                      A
 Frequencies --   1183.8525              1186.9672              1230.4914
 Red. masses --      2.1797                 1.5125                 2.9665
 Frc consts  --      1.7999                 1.2555                 2.6464
 IR Inten    --    132.3537                 4.1110               136.8010

                     28                     29                     30
                      A                      A                      A
 Frequencies --   1261.0801              1290.9061              1308.2650
 Red. masses --      1.3329                 1.1623                 1.7997
 Frc consts  --      1.2489                 1.1411                 1.8149
 IR Inten    --     14.6168                11.0616                67.5039

                     31                     32                     33
                      A                      A                      A
 Frequencies --   1360.5061              1397.2628              1420.9453
 Red. masses --      1.8775                 1.2290                 1.3995
 Frc consts  --      2.0475                 1.4137                 1.6649
 IR Inten    --     10.1334                 0.1554                 2.4228

                     34                     35                     36
                      A                      A                      A
 Frequencies --   1428.1208              1478.3833              1483.8407
 Red. masses --      1.2247                 1.2513                 1.0409
 Frc consts  --      1.4717                 1.6114                 1.3503
 IR Inten    --     33.5568                 8.8616                 3.8671

                     37                     38                     39
                      A                      A                      A
 Frequencies --   1501.6299              1529.8749              3009.3344
 Red. masses --      1.0472                 1.0908                 1.0575
 Frc consts  --      1.3913                 1.5042                 5.6425
 IR Inten    --      3.0845                 1.0526                31.7266

                     40                     41                     42
                      A                      A                      A
 Frequencies --   3042.1504              3044.4555              3055.6472
 Red. masses --      1.0846                 1.0364                 1.1041
 Frc consts  --      5.9141                 5.6595                 6.0736
 IR Inten    --     49.3223                18.1916                18.9455

                     43                     44                     45
                      A                      A                      A
 Frequencies --   3118.3743              3123.5969              3130.7071
 Red. masses --      1.1014                 1.1031                 1.0536
 Frc consts  --      6.3102                 6.3411                 6.0843
 IR Inten    --     23.0265                26.8799                11.7269

                     46                     47                     48
                      A                      A                      A
 Frequencies --   3192.7480              3207.0590              3220.4331
 Red. masses --      1.0904                 1.1010                 1.1125
 Frc consts  --      6.5492                 6.6719                 6.7977
 IR Inten    --     17.4111                 5.5232                14.2142

 - Thermochemistry -
 -------------------
 Temperature   298.150 Kelvin.  Pressure   1.00000 Atm.
 Atom     1 has atomic number  6 and mass  12.00000

 Molecular mass:   114.06808 amu.
 Principal axes and moments of inertia in atomic units:
                           1         2         3
     Eigenvalues --   382.879901352.175821458.82449
           X            0.99990  -0.00258   0.01370
           Y            0.00340   0.99817  -0.06039
           Z           -0.01351   0.06043   0.99808
 This molecule is an asymmetric top.
 Rotational symmetry number  1.
 Rotational temperatures (Kelvin)      0.22622     0.06406     0.05937
 Rotational constants (GHZ):           4.71360     1.33469     1.23712
 Zero-point vibrational energy     402406.8 (Joules/Mol)
                                   96.17754 (Kcal/Mol)
 Warning -- explicit consideration of   8 degrees of freedom as
           vibrations may cause significant error
 Vibrational temperatures:    104.62   174.78   234.42   359.95   378.83
          (Kelvin)            511.23   564.32   689.01   956.41  1054.19
                             1123.89  1165.87  1197.98  1245.79  1304.88
                             1371.74  1422.29  1432.29  1496.67  1506.39
                             1509.84  1546.35  1566.64  1642.34  1703.30
                             1707.78  1770.40  1814.41  1857.33  1882.30
                             1957.46  2010.35  2044.42  2054.75  2127.06
                             2134.92  2160.51  2201.15  4329.76  4376.98
                             4380.29  4396.39  4486.65  4494.16  4504.39
                             4593.65  4614.24  4633.48

 Zero-point correction=                           0.153269 (Hartree/Particle)
 Thermal correction to Energy=                    0.161066
 Thermal correction to Enthalpy=                  0.162010
 Thermal correction to Gibbs Free Energy=         0.120821
 Sum of electronic and zero-point Energies=           -384.891093
 Sum of electronic and thermal Energies=              -384.883296
 Sum of electronic and thermal Enthalpies=            -384.882352
 Sum of electronic and thermal Free Energies=         -384.923541

                     E (Thermal)             CV                S
                      KCal/Mol        Cal/Mol-Kelvin    Cal/Mol-Kelvin
 Total                  101.070             29.055             86.690
 Electronic               0.000              0.000              0.000
 Translational            0.889              2.981             40.110
 Rotational               0.889              2.981             28.115
 Vibrational             99.293             23.093             18.465
 Vibration     1          0.599              1.967              4.079
 Vibration     2          0.609              1.931              3.077
 Vibration     3          0.623              1.888              2.516
 Vibration     4          0.663              1.762              1.729
 Vibration     5          0.670              1.740              1.640
 Vibration     6          0.731              1.564              1.143
 Vibration     7          0.760              1.487              0.992
 Vibration     8          0.835              1.297              0.713

 Optimization completed.
    -- Stationary point found.
 Normal termination of Gaussian 16 at Thu Aug  4 03:26:29 2022.
