 Gaussian 16, Revision A.03,
 Gaussian 16:  ES64L-G16RevA.03 25-Dec-2016

 -----------------------------
 # opt freq b3lyp/6-31g(2df,p)
 -----------------------------

 -------------------
 Title Card Required
 -------------------
 Symbolic Z-matrix:
 Charge =  0 Multiplicity = 1

 SCF Done:  E(RB3LYP) =  -418.140254215     A.U. after   14 cycles
 SCF Done:  E(RB3LYP) =  -418.148937987     A.U. after   15 cycles
 SCF Done:  E(RB3LYP) =  -418.151001386     A.U. after   12 cycles
 SCF Done:  E(RB3LYP) =  -418.151665047     A.U. after   12 cycles
 SCF Done:  E(RB3LYP) =  -418.151708934     A.U. after   10 cycles
 SCF Done:  E(RB3LYP) =  -418.151713168     A.U. after    9 cycles
 SCF Done:  E(RB3LYP) =  -418.151713440     A.U. after    7 cycles
 SCF Done:  E(RB3LYP) =  -418.151713529     A.U. after    7 cycles
 SCF Done:  E(RB3LYP) =  -418.151713547     A.U. after    6 cycles
 Optimization completed.
    -- Stationary point found.
 Normal termination of Gaussian 16 at Sun Jul  3 17:23:10 2022.

 ----------------------------------------------------------------------
 #N Geom=AllCheck Guess=TCheck SCRF=Check GenChk RB3LYP/6-31G(2df,p) Fr
 eq
 ----------------------------------------------------------------------

 Structure from the checkpoint file:  "CCOCCpCtNpCtN.chk"
 -------------------
 Title Card Required
 -------------------
 Charge =  0 Multiplicity = 1

                         Standard orientation:
 ---------------------------------------------------------------------
 Center     Atomic      Atomic             Coordinates (Angstroms)
 Number     Number       Type             X           Y           Z
 ---------------------------------------------------------------------
      1          6           0        3.133209    0.000060   -0.857359
      2          6           0        2.315001    0.000164    0.420610
      3          8           0        0.937367    0.000597    0.068274
      4          6           0        0.076658    0.000367    1.164393
      5          6           0       -1.371031   -0.000077    0.622276
      6          6           0       -1.644414   -1.213494   -0.161481
      7          7           0       -1.867533   -2.188692   -0.736630
      8          6           0       -1.645142    1.212987   -0.161678
      9          7           0       -1.868836    2.187900   -0.737083
     10          1           0        4.200925   -0.000561   -0.620247
     11          1           0        2.909051    0.887030   -1.455751
     12          1           0        2.908089   -0.886392   -1.456157
     13          1           0        2.541231    0.887961    1.032613
     14          1           0        2.540703   -0.887901    1.032418
     15          1           0        0.210455    0.892760    1.796340
     16          1           0        0.210995   -0.891911    1.796388
     17          1           0       -2.051489   -0.000263    1.483624
 ---------------------------------------------------------------------

 SCF Done:  E(RB3LYP) =  -418.151713548     A.U. after    1 cycles

 The electronic state is 1-A.
 Alpha  occ. eigenvalues --  -19.17154 -14.35011 -14.35008 -10.29720 -10.27985
 Alpha  occ. eigenvalues --  -10.25070 -10.24332 -10.24331 -10.18906  -1.06976
 Alpha  occ. eigenvalues --   -0.93140  -0.91726  -0.84939  -0.77277  -0.69069
 Alpha  occ. eigenvalues --   -0.63213  -0.59820  -0.55089  -0.50337  -0.50021
 Alpha  occ. eigenvalues --   -0.49332  -0.44701  -0.40561  -0.39662  -0.38194
 Alpha  occ. eigenvalues --   -0.37822  -0.37063  -0.35910  -0.35654  -0.34478
 Alpha  occ. eigenvalues --   -0.34468  -0.33698  -0.28688
 Alpha virt. eigenvalues --   -0.00968   0.00258   0.03054   0.04559   0.06697
 Alpha virt. eigenvalues --    0.08152   0.10965   0.12236   0.12297   0.14384
 Alpha virt. eigenvalues --    0.15153   0.15740   0.16483   0.18267   0.19431

 Mulliken charges:
               1
     1  C   -0.388491
     2  C   -0.036850
     3  O   -0.231989
     4  C   -0.064025
     5  C   -0.318706
     6  C    0.317005
     7  N   -0.302757
     8  C    0.317041
     9  N   -0.302756
    10  H    0.122161
    11  H    0.138735
    12  H    0.138748
    13  H    0.098558
    14  H    0.098560
    15  H    0.118110
    16  H    0.118107
    17  H    0.178549
 Sum of Mulliken charges =  -0.00000

 Dipole moment (field-independent basis, Debye):
    X=              2.7754    Y=              0.0004    Z=              4.3177  Tot=              5.1328
 Quadrupole moment (field-independent basis, Debye-Ang):
   XX=            -50.7865   YY=            -65.8718   ZZ=            -50.9583
   XY=              0.0024   XZ=             -5.7696   YZ=              0.0009

  Exact polarizability:  76.422  -0.005  79.516   1.788  -0.000  65.949
 Approx polarizability:  93.407  -0.012 128.637   6.016  -0.003 102.469

                      1                      2                      3
                      A                      A                      A
 Frequencies --     45.0975                65.4723                95.3538
 Red. masses --      4.9651                 1.7517                 5.6987
 Frc consts  --      0.0059                 0.0044                 0.0305
 IR Inten    --      0.1910                 0.6130                 5.2475

                      4                      5                      6
                      A                      A                      A
 Frequencies --    134.7047               139.0243               227.2748
 Red. masses --      4.7858                 9.4600                 4.8558
 Frc consts  --      0.0512                 0.1077                 0.1478
 IR Inten    --      3.7345                 7.7327                 5.3547

                      7                      8                      9
                      A                      A                      A
 Frequencies --    236.2441               250.6503               365.9955
 Red. masses --      1.8597                 1.5089                 6.9772
 Frc consts  --      0.0612                 0.0559                 0.5507
 IR Inten    --      0.3485                 0.4424                 7.8746

                     10                     11                     12
                      A                      A                      A
 Frequencies --    388.1007               430.2762               495.4420
 Red. masses --      7.8599                 2.9989                 5.7150
 Frc consts  --      0.6975                 0.3271                 0.8265
 IR Inten    --      1.0091                 1.6935                 0.1690

                     13                     14                     15
                      A                      A                      A
 Frequencies --    585.9186               703.6872               812.4260
 Red. masses --     12.1774                 5.1675                 4.0290
 Frc consts  --      2.4631                 1.5076                 1.5668
 IR Inten    --      0.5793                 2.0343                 7.3092

                     16                     17                     18
                      A                      A                      A
 Frequencies --    822.8495               920.8493               926.0989
 Red. masses --      1.0831                 2.2456                 2.2463
 Frc consts  --      0.4321                 1.1219                 1.1351
 IR Inten    --      0.6554                10.0969                 3.6150

                     19                     20                     21
                      A                      A                      A
 Frequencies --   1005.7813              1059.1693              1118.5148
 Red. masses --      2.7622                 3.3916                 1.7930
 Frc consts  --      1.6463                 2.2417                 1.3217
 IR Inten    --      0.7899                22.3817                 2.7348

                     22                     23                     24
                      A                      A                      A
 Frequencies --   1142.9062              1173.0832              1187.9174
 Red. masses --      2.3169                 7.2626                 1.5123
 Frc consts  --      1.7831                 5.8884                 1.2574
 IR Inten    --     12.7863               226.6525                 3.6835

                     25                     26                     27
                      A                      A                      A
 Frequencies --   1256.4540              1272.6865              1299.8719
 Red. masses --      1.0969                 1.6003                 1.1045
 Frc consts  --      1.0203                 1.5272                 1.0996
 IR Inten    --      3.5082                 6.7219                 2.4248

                     28                     29                     30
                      A                      A                      A
 Frequencies --   1328.0801              1384.8502              1408.9091
 Red. masses --      1.4892                 1.2191                 1.2524
 Frc consts  --      1.5476                 1.3775                 1.4648
 IR Inten    --     11.1595                49.2555                11.4659

                     31                     32                     33
                      A                      A                      A
 Frequencies --   1445.4580              1483.4390              1498.6824
 Red. masses --      1.4216                 1.0392                 1.0526
 Frc consts  --      1.7500                 1.3474                 1.3930
 IR Inten    --      9.3626                 5.2001                 4.1300

                     34                     35                     36
                      A                      A                      A
 Frequencies --   1509.5004              1533.8240              2373.4672
 Red. masses --      1.0785                 1.0965                12.6643
 Frc consts  --      1.4479                 1.5199                42.0338
 IR Inten    --      4.4158                 2.6346                 1.0742

                     37                     38                     39
                      A                      A                      A
 Frequencies --   2379.1768              2966.4035              2976.7721
 Red. masses --     12.6596                 1.0541                 1.0546
 Frc consts  --     42.2204                 5.4653                 5.5058
 IR Inten    --      1.2096                17.2320                71.4455

                     40                     41                     42
                      A                      A                      A
 Frequencies --   3000.7230              3010.6831              3043.4357
 Red. masses --      1.1061                 1.1081                 1.0810
 Frc consts  --      5.8679                 5.9179                 5.8992
 IR Inten    --     56.8302                20.3875                 0.2845

                     43                     44                     45
                      A                      A                      A
 Frequencies --   3049.9471              3125.6159              3129.8739
 Red. masses --      1.0347                 1.1016                 1.1031
 Frc consts  --      5.6710                 6.3408                 6.3669
 IR Inten    --     11.8479                19.2566                18.2731

 - Thermochemistry -
 -------------------
 Temperature   298.150 Kelvin.  Pressure   1.00000 Atm.
 Atom     1 has atomic number  6 and mass  12.00000

 Molecular mass:   124.06366 amu.
 Principal axes and moments of inertia in atomic units:
                           1         2         3
     Eigenvalues --   847.248351769.117832166.15151
           X            0.99978   0.00001  -0.02078
           Y           -0.00001   1.00000   0.00001
           Z            0.02078  -0.00001   0.99978
 This molecule is an asymmetric top.
 Rotational symmetry number  1.
 Warning -- assumption of classical behavior for rotation
           may cause significant error
 Rotational temperatures (Kelvin)      0.10223     0.04896     0.03999
 Rotational constants (GHZ):           2.13012     1.02014     0.83316
 Zero-point vibrational energy     351766.1 (Joules/Mol)
                                   84.07410 (Kcal/Mol)
 Warning -- explicit consideration of  13 degrees of freedom as
           vibrations may cause significant error
 Vibrational temperatures:     64.89    94.20   137.19   193.81   200.02
          (Kelvin)            327.00   339.90   360.63   526.59   558.39
                              619.07   712.83   843.01  1012.45  1168.90
                             1183.90  1324.90  1332.45  1447.09  1523.91
                             1609.29  1644.39  1687.81  1709.15  1807.76
                             1831.11  1870.23  1910.81  1992.49  2027.11
                             2079.69  2134.34  2156.27  2171.83  2206.83
                             3414.89  3423.10  4267.99  4282.91  4317.37
                             4331.70  4378.83  4388.19  4497.06  4503.19

 Zero-point correction=                           0.133981 (Hartree/Particle)
 Thermal correction to Energy=                    0.143981
 Thermal correction to Enthalpy=                  0.144925
 Thermal correction to Gibbs Free Energy=         0.097622
 Sum of electronic and zero-point Energies=           -418.017733
 Sum of electronic and thermal Energies=              -418.007733
 Sum of electronic and thermal Enthalpies=            -418.006789
 Sum of electronic and thermal Free Energies=         -418.054092

                     E (Thermal)             CV                S
                      KCal/Mol        Cal/Mol-Kelvin    Cal/Mol-Kelvin
 Total                   90.349             33.666             99.557
 Electronic               0.000              0.000              0.000
 Translational            0.889              2.981             40.361
 Rotational               0.889              2.981             29.564
 Vibrational             88.572             27.705             29.633
 Vibration     1          0.595              1.979              5.022
 Vibration     2          0.597              1.971              4.285
 Vibration     3          0.603              1.953              3.547
 Vibration     4          0.613              1.919              2.878
 Vibration     5          0.615              1.914              2.817
 Vibration     6          0.651              1.799              1.900
 Vibration     7          0.655              1.785              1.831
 Vibration     8          0.663              1.762              1.726
 Vibration     9          0.739              1.542              1.097
 Vibration    10          0.756              1.496              1.007
 Vibration    11          0.791              1.404              0.858
 Vibration    12          0.851              1.260              0.670
 Vibration    13          0.943              1.062              0.475

 Optimization completed.
    -- Stationary point found.
 Normal termination of Gaussian 16 at Sun Jul  3 17:46:04 2022.
