 Gaussian 16, Revision A.03,
 Gaussian 16:  ES64L-G16RevA.03 25-Dec-2016

 -----------------------------
 # opt freq b3lyp/6-31g(2df,p)
 -----------------------------

 -------------------
 Title Card Required
 -------------------
 Symbolic Z-matrix:
 Charge =  0 Multiplicity = 1

 SCF Done:  E(RB3LYP) =  -382.421717562     A.U. after   12 cycles
 SCF Done:  E(RB3LYP) =  -382.428979818     A.U. after   11 cycles
 SCF Done:  E(RB3LYP) =  -382.430146711     A.U. after   10 cycles
 SCF Done:  E(RB3LYP) =  -382.430337196     A.U. after   10 cycles
 SCF Done:  E(RB3LYP) =  -382.430373885     A.U. after    9 cycles
 SCF Done:  E(RB3LYP) =  -382.430386028     A.U. after    9 cycles
 SCF Done:  E(RB3LYP) =  -382.430390268     A.U. after    9 cycles
 SCF Done:  E(RB3LYP) =  -382.430391115     A.U. after    7 cycles
 SCF Done:  E(RB3LYP) =  -382.430391207     A.U. after    6 cycles
 Optimization completed.
    -- Stationary point found.
 Normal termination of Gaussian 16 at Sun Jul  3 15:24:57 2022.

 ----------------------------------------------------------------------
 #N Geom=AllCheck Guess=TCheck SCRF=Check GenChk RB3LYP/6-31G(2df,p) Fr
 eq
 ----------------------------------------------------------------------

 Structure from the checkpoint file:  "CCOC1NNC1C.chk"
 -------------------
 Title Card Required
 -------------------
 Charge =  0 Multiplicity = 1

                         Standard orientation:
 ---------------------------------------------------------------------
 Center     Atomic      Atomic             Coordinates (Angstroms)
 Number     Number       Type             X           Y           Z
 ---------------------------------------------------------------------
      1          6           0       -3.330859    0.394540   -0.308401
      2          6           0       -2.120390   -0.097780    0.464309
      3          8           0       -0.949348    0.237541   -0.277954
      4          6           0        0.239053   -0.113247    0.340029
      5          7           0        0.686269   -1.545030    0.174029
      6          7           0        2.061688   -1.001342   -0.066769
      7          6           0        1.513866    0.350648   -0.375044
      8          6           0        2.311134    1.525381    0.157252
      9          1           0       -4.249624    0.159893    0.237092
     10          1           0       -3.380615   -0.082006   -1.291551
     11          1           0       -3.279188    1.477181   -0.454624
     12          1           0       -2.170881   -1.185003    0.618553
     13          1           0       -2.072381    0.372423    1.458624
     14          1           0        0.222973    0.133455    1.411582
     15          1           0        0.298787   -1.800782   -0.742602
     16          1           0        2.490748   -1.466833   -0.863311
     17          1           0        1.275880    0.484441   -1.441672
     18          1           0        2.536180    1.385537    1.218443
     19          1           0        1.750291    2.457778    0.032279
     20          1           0        3.260099    1.630947   -0.378872
 ---------------------------------------------------------------------

 SCF Done:  E(RB3LYP) =  -382.430391207     A.U. after    1 cycles

 The electronic state is 1-A.
 Alpha  occ. eigenvalues --  -19.15105 -14.33422 -14.33157 -10.25367 -10.23405
 Alpha  occ. eigenvalues --  -10.21102 -10.18055 -10.17444  -1.05243  -0.97068
 Alpha  occ. eigenvalues --   -0.77161  -0.76829  -0.72197  -0.65898  -0.61491
 Alpha  occ. eigenvalues --   -0.56978  -0.53775  -0.48181  -0.46920  -0.44706
 Alpha  occ. eigenvalues --   -0.43229  -0.42029  -0.39805  -0.38957  -0.38292
 Alpha  occ. eigenvalues --   -0.36399  -0.35484  -0.33725  -0.32606  -0.27783
 Alpha  occ. eigenvalues --   -0.26505  -0.20429
 Alpha virt. eigenvalues --    0.06925   0.08787   0.10255   0.11500   0.12593
 Alpha virt. eigenvalues --    0.14570   0.14941   0.16130   0.16498   0.16722
 Alpha virt. eigenvalues --    0.17633   0.18037   0.18812   0.19486   0.20377

 Mulliken charges:
               1
     1  C   -0.386294
     2  C   -0.049990
     3  O   -0.249799
     4  C    0.181402
     5  N   -0.329442
     6  N   -0.308845
     7  C    0.017878
     8  C   -0.403639
     9  H    0.118891
    10  H    0.127062
    11  H    0.127793
    12  H    0.109629
    13  H    0.097392
    14  H    0.081038
    15  H    0.208094
    16  H    0.224149
    17  H    0.070647
    18  H    0.125635
    19  H    0.120447
    20  H    0.117952
 Sum of Mulliken charges =  -0.00000

 Dipole moment (field-independent basis, Debye):
    X=             -1.0351    Y=              0.9298    Z=             -1.2738  Tot=              1.8864
 Quadrupole moment (field-independent basis, Debye-Ang):
   XX=            -47.0697   YY=            -51.7328   ZZ=            -48.6292
   XY=              2.0850   XZ=             -5.0539   YZ=              4.5545

  Exact polarizability:  86.944   1.176  69.161  -1.776   1.926  62.433
 Approx polarizability: 105.105   0.185  97.742  -1.952   1.261  94.974

                      1                      2                      3
                      A                      A                      A
 Frequencies --     56.8636                78.3277               122.7958
 Red. masses --      2.5197                 2.1577                 2.8837
 Frc consts  --      0.0048                 0.0078                 0.0256
 IR Inten    --      0.0483                 2.5864                 8.9339

                      4                      5                      6
                      A                      A                      A
 Frequencies --    158.4773               209.2148               240.9660
 Red. masses --      2.9280                 1.2002                 1.3266
 Frc consts  --      0.0433                 0.0310                 0.0454
 IR Inten    --      0.5070                 0.2474                 0.7595

                      7                      8                      9
                      A                      A                      A
 Frequencies --    258.0141               350.3514               383.9364
 Red. masses --      1.9075                 2.9916                 3.2568
 Frc consts  --      0.0748                 0.2164                 0.2829
 IR Inten    --      1.4823                 5.9139                 7.6761

                     10                     11                     12
                      A                      A                      A
 Frequencies --    449.9381               561.5393               664.5816
 Red. masses --      3.2327                 2.9062                 3.6546
 Frc consts  --      0.3856                 0.5399                 0.9510
 IR Inten    --      4.1926                 4.6658                 5.9268

                     13                     14                     15
                      A                      A                      A
 Frequencies --    799.8147               817.7095               879.1894
 Red. masses --      2.4589                 1.0998                 1.8790
 Frc consts  --      0.9268                 0.4333                 0.8558
 IR Inten    --     22.1802                 0.8235                11.0916

                     16                     17                     18
                      A                      A                      A
 Frequencies --    901.4251               922.1881               953.6850
 Red. masses --      2.4337                 3.3986                 2.5591
 Frc consts  --      1.1651                 1.7029                 1.3713
 IR Inten    --      3.5208                 1.5214                59.0293

                     19                     20                     21
                      A                      A                      A
 Frequencies --   1008.0511              1064.7296              1078.6356
 Red. masses --      1.5538                 3.0381                 1.6005
 Frc consts  --      0.9303                 2.0292                 1.0971
 IR Inten    --     54.5040                24.7590                17.1708

                     22                     23                     24
                      A                      A                      A
 Frequencies --   1103.3289              1139.6087              1144.6185
 Red. masses --      1.7070                 2.2306                 2.0066
 Frc consts  --      1.2244                 1.7068                 1.5490
 IR Inten    --      3.3278                28.7875                 6.0331

                     25                     26                     27
                      A                      A                      A
 Frequencies --   1180.0297              1186.2083              1217.6731
 Red. masses --      2.8326                 1.6771                 1.7561
 Frc consts  --      2.3239                 1.3904                 1.5341
 IR Inten    --    188.1905                38.7343                 5.3840

                     28                     29                     30
                      A                      A                      A
 Frequencies --   1238.9369              1296.7669              1316.1830
 Red. masses --      1.5965                 1.1028                 1.3040
 Frc consts  --      1.4439                 1.0927                 1.3309
 IR Inten    --     19.4730                 0.7648                22.3566

                     31                     32                     33
                      A                      A                      A
 Frequencies --   1325.5696              1370.4781              1393.1595
 Red. masses --      1.3096                 1.2234                 1.2701
 Frc consts  --      1.3558                 1.3539                 1.4524
 IR Inten    --      8.8389                15.1660                28.4205

                     34                     35                     36
                      A                      A                      A
 Frequencies --   1406.8353              1413.8591              1419.4524
 Red. masses --      1.2638                 1.4183                 1.3067
 Frc consts  --      1.4737                 1.6704                 1.5512
 IR Inten    --      6.1911                32.9826                35.7301

                     37                     38                     39
                      A                      A                      A
 Frequencies --   1459.4122              1483.6736              1488.3612
 Red. masses --      1.4982                 1.0402                 1.0771
 Frc consts  --      1.8801                 1.3491                 1.4058
 IR Inten    --     15.8597                 4.7076                 7.0090

                     40                     41                     42
                      A                      A                      A
 Frequencies --   1497.4258              1499.7648              1528.8341
 Red. masses --      1.0552                 1.0462                 1.0962
 Frc consts  --      1.3940                 1.3865                 1.5096
 IR Inten    --      6.2175                 1.8875                 1.6096

                     43                     44                     45
                      A                      A                      A
 Frequencies --   2982.8838              2984.8131              3003.5886
 Red. masses --      1.0712                 1.0707                 1.0840
 Frc consts  --      5.6157                 5.6201                 5.7617
 IR Inten    --     39.8883                 8.2652                72.8193

                     46                     47                     48
                      A                      A                      A
 Frequencies --   3022.6910              3034.6222              3045.2220
 Red. masses --      1.1031                 1.0353                 1.0347
 Frc consts  --      5.9383                 5.6174                 5.6533
 IR Inten    --     29.6906                19.7705                16.4221

                     49                     50                     51
                      A                      A                      A
 Frequencies --   3101.4562              3116.3716              3120.4107
 Red. masses --      1.1008                 1.1020                 1.1015
 Frc consts  --      6.2387                 6.3057                 6.3194
 IR Inten    --     21.1915                21.3678                24.0682

                     52                     53                     54
                      A                      A                      A
 Frequencies --   3121.8536              3342.4054              3482.9180
 Red. masses --      1.1028                 1.0742                 1.0770
 Frc consts  --      6.3324                 7.0702                 7.6978
 IR Inten    --     25.6927                 9.5370                 2.1667

 - Thermochemistry -
 -------------------
 Temperature   298.150 Kelvin.  Pressure   1.00000 Atm.
 Atom     1 has atomic number  6 and mass  12.00000

 Molecular mass:   116.09496 amu.
 Principal axes and moments of inertia in atomic units:
                           1         2         3
     Eigenvalues --   429.292781636.036591920.57611
           X            0.99984   0.01790  -0.00310
           Y           -0.01779   0.99936   0.03112
           Z            0.00366  -0.03106   0.99951
 This molecule is an asymmetric top.
 Rotational symmetry number  1.
 Rotational temperatures (Kelvin)      0.20176     0.05294     0.04510
 Rotational constants (GHZ):           4.20399     1.10312     0.93969
 Zero-point vibrational energy     463133.4 (Joules/Mol)
                                  110.69153 (Kcal/Mol)
 Warning -- explicit consideration of  11 degrees of freedom as
           vibrations may cause significant error
 Vibrational temperatures:     81.81   112.70   176.68   228.01   301.01
          (Kelvin)            346.70   371.22   504.08   552.40   647.36
                              807.93   956.18  1150.75  1176.50  1264.96
                             1296.95  1326.82  1372.14  1450.36  1531.91
                             1551.92  1587.44  1639.64  1646.85  1697.80
                             1706.69  1751.96  1782.55  1865.76  1893.69
                             1907.20  1971.81  2004.45  2024.12  2034.23
                             2042.28  2099.77  2134.68  2141.42  2154.46
                             2157.83  2199.65  4291.70  4294.48  4321.49
                             4348.98  4366.14  4381.40  4462.30  4483.76
                             4489.57  4491.65  4808.98  5011.14

 Zero-point correction=                           0.176398 (Hartree/Particle)
 Thermal correction to Energy=                    0.185611
 Thermal correction to Enthalpy=                  0.186556
 Thermal correction to Gibbs Free Energy=         0.141854
 Sum of electronic and zero-point Energies=           -382.253993
 Sum of electronic and thermal Energies=              -382.244780
 Sum of electronic and thermal Enthalpies=            -382.243836
 Sum of electronic and thermal Free Energies=         -382.288537

                     E (Thermal)             CV                S
                      KCal/Mol        Cal/Mol-Kelvin    Cal/Mol-Kelvin
 Total                  116.473             32.704             94.082
 Electronic               0.000              0.000              0.000
 Translational            0.889              2.981             40.163
 Rotational               0.889              2.981             28.691
 Vibrational            114.696             26.742             25.228
 Vibration     1          0.596              1.975              4.563
 Vibration     2          0.600              1.964              3.932
 Vibration     3          0.610              1.930              3.056
 Vibration     4          0.621              1.893              2.568
 Vibration     5          0.642              1.827              2.051
 Vibration     6          0.658              1.778              1.796
 Vibration     7          0.667              1.749              1.675
 Vibration     8          0.727              1.575              1.165
 Vibration     9          0.753              1.504              1.024
 Vibration    10          0.809              1.361              0.796
 Vibration    11          0.917              1.115              0.521

                           ! Non-Optimized Parameters !
 Normal termination of Gaussian 16 at Sun Jul  3 15:46:53 2022.
