 Gaussian 16, Revision A.03,
 Gaussian 16:  ES64L-G16RevA.03 25-Dec-2016

 -----------------------------
 # opt freq b3lyp/6-31g(2df,p)
 -----------------------------

 -------------------
 Title Card Required
 -------------------
 Symbolic Z-matrix:
 Charge =  0 Multiplicity = 1

 SCF Done:  E(RB3LYP) =  -440.375121731     A.U. after   13 cycles
 SCF Done:  E(RB3LYP) =  -440.395672456     A.U. after   12 cycles
 SCF Done:  E(RB3LYP) =  -440.399343800     A.U. after   11 cycles
 SCF Done:  E(RB3LYP) =  -440.399767596     A.U. after   11 cycles
 SCF Done:  E(RB3LYP) =  -440.399816245     A.U. after   10 cycles
 SCF Done:  E(RB3LYP) =  -440.399864306     A.U. after    9 cycles
 SCF Done:  E(RB3LYP) =  -440.399879182     A.U. after    9 cycles
 SCF Done:  E(RB3LYP) =  -440.399894054     A.U. after   10 cycles
 SCF Done:  E(RB3LYP) =  -440.399900652     A.U. after    9 cycles
 SCF Done:  E(RB3LYP) =  -440.399977136     A.U. after   11 cycles
 SCF Done:  E(RB3LYP) =  -440.404236543     A.U. after   11 cycles
 SCF Done:  E(RB3LYP) =  -440.404308932     A.U. after   10 cycles
 SCF Done:  E(RB3LYP) =  -440.404335886     A.U. after    8 cycles
 SCF Done:  E(RB3LYP) =  -440.404349798     A.U. after    9 cycles
 SCF Done:  E(RB3LYP) =  -440.404352153     A.U. after    8 cycles
 SCF Done:  E(RB3LYP) =  -440.404355741     A.U. after    8 cycles
 SCF Done:  E(RB3LYP) =  -440.404357101     A.U. after    8 cycles
 SCF Done:  E(RB3LYP) =  -440.404357249     A.U. after    7 cycles
 SCF Done:  E(RB3LYP) =  -440.404357274     A.U. after    6 cycles
 Optimization completed.
    -- Stationary point found.
 Normal termination of Gaussian 16 at Sun Jul  3 13:33:02 2022.

 ----------------------------------------------------------------------
 #N Geom=AllCheck Guess=TCheck SCRF=Check GenChk RB3LYP/6-31G(2df,p) Fr
 eq
 ----------------------------------------------------------------------

 Structure from the checkpoint file:  "CCOCC1OCdC1N.chk"
 -------------------
 Title Card Required
 -------------------
 Charge =  0 Multiplicity = 1

                         Standard orientation:
 ---------------------------------------------------------------------
 Center     Atomic      Atomic             Coordinates (Angstroms)
 Number     Number       Type             X           Y           Z
 ---------------------------------------------------------------------
      1          6           0       -3.913606    0.129248    0.189148
      2          6           0       -2.662543   -0.466713   -0.433522
      3          8           0       -1.535090    0.034306    0.254880
      4          6           0       -0.314165   -0.459629   -0.243444
      5          6           0        0.823602    0.184727    0.511454
      6          8           0        1.117038    1.548136    0.038961
      7          6           0        2.379297    1.062096   -0.336937
      8          6           0        2.226301   -0.200735    0.081092
      9          7           0        2.868484   -1.437054    0.007765
     10          1           0       -4.807489   -0.237193   -0.324515
     11          1           0       -3.892957    1.220269    0.117783
     12          1           0       -3.983496   -0.143223    1.246107
     13          1           0       -2.600683   -0.206086   -1.503692
     14          1           0       -2.686488   -1.568844   -0.373468
     15          1           0       -0.198917   -0.244810   -1.317237
     16          1           0       -0.250363   -1.555088   -0.114392
     17          1           0        0.613817    0.207204    1.585975
     18          1           0        3.098236    1.695379   -0.836926
     19          1           0        3.792852   -1.365984   -0.401098
     20          1           0        2.947196   -1.895742    0.909643
 ---------------------------------------------------------------------

 SCF Done:  E(RB3LYP) =  -440.404357274     A.U. after    1 cycles

 The electronic state is 1-A.
 Alpha  occ. eigenvalues --  -19.13734 -19.13349 -14.33922 -10.23470 -10.22516
 Alpha  occ. eigenvalues --  -10.22413 -10.21349 -10.20343 -10.17150  -1.04897
 Alpha  occ. eigenvalues --   -1.02701  -0.90291  -0.76984  -0.72778  -0.70104
 Alpha  occ. eigenvalues --   -0.62246  -0.60119  -0.53276  -0.51583  -0.51086
 Alpha  occ. eigenvalues --   -0.49046  -0.48069  -0.45087  -0.43734  -0.40528
 Alpha  occ. eigenvalues --   -0.38949  -0.37968  -0.35374  -0.34484  -0.32626
 Alpha  occ. eigenvalues --   -0.32238  -0.31324  -0.29633  -0.25041  -0.18387
 Alpha virt. eigenvalues --    0.04717   0.07010   0.09393   0.11116   0.12713
 Alpha virt. eigenvalues --    0.13703   0.14333   0.14894   0.15531   0.16458
 Alpha virt. eigenvalues --    0.17408   0.18649   0.18962   0.20068   0.21926

 Mulliken charges:
               1
     1  C   -0.384556
     2  C   -0.025998
     3  O   -0.245460
     4  C   -0.052389
     5  C    0.072738
     6  O   -0.289658
     7  C    0.000456
     8  C    0.079530
     9  N   -0.594176
    10  H    0.112772
    11  H    0.130444
    12  H    0.124723
    13  H    0.087704
    14  H    0.081963
    15  H    0.100428
    16  H    0.088693
    17  H    0.101600
    18  H    0.118961
    19  H    0.246237
    20  H    0.245985
 Sum of Mulliken charges =  -0.00000

 Dipole moment (field-independent basis, Debye):
    X=              1.4722    Y=             -2.2192    Z=             -0.0528  Tot=              2.6637
 Quadrupole moment (field-independent basis, Debye-Ang):
   XX=            -41.0444   YY=            -56.1634   ZZ=            -52.7185
   XY=             -1.5300   XZ=              1.6339   YZ=             -3.0348

  Exact polarizability:  96.179  -0.935  78.945  -4.236  -4.955  61.520
 Approx polarizability: 110.874  -2.284 132.352  -6.683 -10.778  94.515

                      1                      2                      3
                      A                      A                      A
 Frequencies --     49.5796                71.0016                98.0255
 Red. masses --      3.3449                 1.9180                 3.2454
 Frc consts  --      0.0048                 0.0057                 0.0184
 IR Inten    --      1.0348                 1.6269                 3.4597

                      4                      5                      6
                      A                      A                      A
 Frequencies --    139.3874               197.8946               214.8706
 Red. masses --      3.5206                 3.3286                 1.1794
 Frc consts  --      0.0403                 0.0768                 0.0321
 IR Inten    --      0.4041                 3.6062                42.7092

                      7                      8                      9
                      A                      A                      A
 Frequencies --    243.7677               258.0423               330.8585
 Red. masses --      1.2892                 2.2047                 4.0657
 Frc consts  --      0.0451                 0.0865                 0.2622
 IR Inten    --      1.1310                 0.2677                 1.2434

                     10                     11                     12
                      A                      A                      A
 Frequencies --    362.9143               426.6369               521.4726
 Red. masses --      2.9590                 3.1041                 3.1913
 Frc consts  --      0.2296                 0.3329                 0.5113
 IR Inten    --      3.6390                 8.2863                11.0303

                     13                     14                     15
                      A                      A                      A
 Frequencies --    604.8118               702.6281               775.1163
 Red. masses --      2.9354                 4.8703                 1.5613
 Frc consts  --      0.6326                 1.4166                 0.5527
 IR Inten    --     43.8746                12.4732               175.4393

                     16                     17                     18
                      A                      A                      A
 Frequencies --    794.7755               821.0253               849.3686
 Red. masses --      1.3854                 1.0924                 3.2010
 Frc consts  --      0.5156                 0.4339                 1.3606
 IR Inten    --     14.0368                 2.1340                41.8246

                     19                     20                     21
                      A                      A                      A
 Frequencies --    890.8405               953.5859              1011.1151
 Red. masses --      2.4414                 2.2951                 3.3580
 Frc consts  --      1.1415                 1.2296                 2.0227
 IR Inten    --     27.6744                 9.3058                60.3834

                     22                     23                     24
                      A                      A                      A
 Frequencies --   1041.5590              1059.9425              1108.5722
 Red. masses --      3.5145                 1.7908                 1.6582
 Frc consts  --      2.2464                 1.1854                 1.2007
 IR Inten    --      9.8383                14.8832                 4.2136

                     25                     26                     27
                      A                      A                      A
 Frequencies --   1127.7487              1146.0234              1171.0282
 Red. masses --      2.2596                 3.7328                 3.4773
 Frc consts  --      1.6932                 2.8885                 2.8095
 IR Inten    --     12.8960               104.9001               143.8438

                     28                     29                     30
                      A                      A                      A
 Frequencies --   1189.8096              1211.9227              1254.8725
 Red. masses --      1.5656                 1.3610                 1.1971
 Frc consts  --      1.3059                 1.1778                 1.1106
 IR Inten    --      6.9384                 3.3200                 7.7436

                     31                     32                     33
                      A                      A                      A
 Frequencies --   1282.1001              1296.3861              1335.8184
 Red. masses --      1.6151                 1.1057                 1.4876
 Frc consts  --      1.5642                 1.0949                 1.5639
 IR Inten    --     29.8497                 1.7121                 2.7818

                     34                     35                     36
                      A                      A                      A
 Frequencies --   1354.5800              1390.7622              1408.0337
 Red. masses --      2.4837                 1.3352                 1.3413
 Frc consts  --      2.6851                 1.5216                 1.5668
 IR Inten    --     30.2971                37.3136                23.5952

                     37                     38                     39
                      A                      A                      A
 Frequencies --   1450.2797              1483.3372              1494.5756
 Red. masses --      1.5358                 1.0404                 1.0957
 Frc consts  --      1.9032                 1.3488                 1.4421
 IR Inten    --      3.6949                 3.9839                 8.7398

                     40                     41                     42
                      A                      A                      A
 Frequencies --   1500.9422              1532.9185              1641.3711
 Red. masses --      1.0462                 1.0969                 1.1087
 Frc consts  --      1.3886                 1.5187                 1.7598
 IR Inten    --      0.2881                 2.6090                20.2295

                     43                     44                     45
                      A                      A                      A
 Frequencies --   1744.6467              2944.0501              2954.2398
 Red. masses --      6.8478                 1.0589                 1.0617
 Frc consts  --     12.2805                 5.4073                 5.4594
 IR Inten    --     38.9239                17.0282                83.5809

                     46                     47                     48
                      A                      A                      A
 Frequencies --   2975.5261              3003.1369              3044.4703
 Red. masses --      1.1027                 1.0942                 1.0347
 Frc consts  --      5.7525                 5.8141                 5.6504
 IR Inten    --     54.8529                26.2150                18.1855

                     49                     50                     51
                      A                      A                      A
 Frequencies --   3069.8073              3118.3377              3122.0838
 Red. masses --      1.0849                 1.1015                 1.1026
 Frc consts  --      6.0239                 6.3110                 6.3320
 IR Inten    --     28.7809                26.2911                24.6792

                     52                     53                     54
                      A                      A                      A
 Frequencies --   3237.4076              3500.1498              3594.8902
 Red. masses --      1.1021                 1.0497                 1.0926
 Frc consts  --      6.8054                 7.5767                 8.3191
 IR Inten    --     12.2115                 2.1358                 7.3679

 - Thermochemistry -
 -------------------
 Temperature   298.150 Kelvin.  Pressure   1.00000 Atm.
 Atom     1 has atomic number  6 and mass  12.00000

 Molecular mass:   129.07898 amu.
 Principal axes and moments of inertia in atomic units:
                           1         2         3
     Eigenvalues --   432.403512496.835902792.63332
           X            0.99999  -0.00508   0.00146
           Y            0.00509   0.99994  -0.00959
           Z           -0.00141   0.00960   0.99995
 This molecule is an asymmetric top.
 Rotational symmetry number  1.
 Rotational temperatures (Kelvin)      0.20031     0.03469     0.03102
 Rotational constants (GHZ):           4.17374     0.72281     0.64625
 Zero-point vibrational energy     443270.5 (Joules/Mol)
                                  105.94420 (Kcal/Mol)
 Warning -- explicit consideration of  13 degrees of freedom as
           vibrations may cause significant error
 Vibrational temperatures:     71.33   102.16   141.04   200.55   284.73
          (Kelvin)            309.15   350.73   371.27   476.03   522.15
                              613.84   750.28   870.19  1010.93  1115.22
                             1143.50  1181.27  1222.05  1281.72  1372.00
                             1454.77  1498.57  1525.02  1594.99  1622.58
                             1648.87  1684.85  1711.87  1743.69  1805.48
                             1844.66  1865.21  1921.94  1948.94  2001.00
                             2025.85  2086.63  2134.19  2150.36  2159.52
                             2205.53  2361.57  2510.16  4235.83  4250.49
                             4281.12  4320.84  4380.31  4416.77  4486.59
                             4491.98  4657.91  5035.93  5172.25

 Zero-point correction=                           0.168833 (Hartree/Particle)
 Thermal correction to Energy=                    0.178977
 Thermal correction to Enthalpy=                  0.179921
 Thermal correction to Gibbs Free Energy=         0.132757
 Sum of electronic and zero-point Energies=           -440.235524
 Sum of electronic and thermal Energies=              -440.225380
 Sum of electronic and thermal Enthalpies=            -440.224436
 Sum of electronic and thermal Free Energies=         -440.271600

                     E (Thermal)             CV                S
                      KCal/Mol        Cal/Mol-Kelvin    Cal/Mol-Kelvin
 Total                  112.310             35.894             99.266
 Electronic               0.000              0.000              0.000
 Translational            0.889              2.981             40.479
 Rotational               0.889              2.981             29.490
 Vibrational            110.532             29.933             29.297
 Vibration     1          0.595              1.978              4.834
 Vibration     2          0.598              1.968              4.125
 Vibration     3          0.603              1.951              3.493
 Vibration     4          0.615              1.914              2.812
 Vibration     5          0.637              1.843              2.153
 Vibration     6          0.645              1.818              2.002
 Vibration     7          0.659              1.773              1.775
 Vibration     8          0.667              1.749              1.675
 Vibration     9          0.713              1.614              1.256
 Vibration    10          0.737              1.549              1.110
 Vibration    11          0.788              1.412              0.870
 Vibration    12          0.876              1.202              0.607
 Vibration    13          0.963              1.022              0.441

 Optimization completed.
    -- Stationary point found.
 Normal termination of Gaussian 16 at Sun Jul  3 13:56:37 2022.
