 Gaussian 16, Revision A.03,
 Gaussian 16:  ES64L-G16RevA.03 25-Dec-2016

 -----------------------------
 # opt freq b3lyp/6-31g(2df,p)
 -----------------------------

 -------------------
 Title Card Required
 -------------------
 Symbolic Z-matrix:
 Charge =  0 Multiplicity = 1

 SCF Done:  E(RB3LYP) =  -424.348806402     A.U. after   13 cycles
 SCF Done:  E(RB3LYP) =  -424.370979924     A.U. after   11 cycles
 SCF Done:  E(RB3LYP) =  -424.374333025     A.U. after   11 cycles
 SCF Done:  E(RB3LYP) =  -424.375122968     A.U. after   11 cycles
 SCF Done:  E(RB3LYP) =  -424.375404495     A.U. after   11 cycles
 SCF Done:  E(RB3LYP) =  -424.375443874     A.U. after   10 cycles
 SCF Done:  E(RB3LYP) =  -424.375455596     A.U. after    9 cycles
 SCF Done:  E(RB3LYP) =  -424.375460906     A.U. after    8 cycles
 SCF Done:  E(RB3LYP) =  -424.375462424     A.U. after    7 cycles
 SCF Done:  E(RB3LYP) =  -424.375463271     A.U. after    7 cycles
 SCF Done:  E(RB3LYP) =  -424.375463754     A.U. after    7 cycles
 SCF Done:  E(RB3LYP) =  -424.375463939     A.U. after    6 cycles
 SCF Done:  E(RB3LYP) =  -424.375463991     A.U. after    6 cycles
 Optimization completed.
    -- Stationary point found.
 Normal termination of Gaussian 16 at Thu Aug  4 01:49:43 2022.

 ----------------------------------------------------------------------
 #N Geom=AllCheck Guess=TCheck SCRF=Check GenChk RB3LYP/6-31G(2df,p) Fr
 eq
 ----------------------------------------------------------------------

 Structure from the checkpoint file:  "CCOC1OC12CCC2.chk"
 -------------------
 Title Card Required
 -------------------
 Charge =  0 Multiplicity = 1

                         Standard orientation:
 ---------------------------------------------------------------------
 Center     Atomic      Atomic             Coordinates (Angstroms)
 Number     Number       Type             X           Y           Z
 ---------------------------------------------------------------------
      1          6           0       -3.465432   -0.680668    0.126696
      2          6           0       -2.193802   -0.289576   -0.604815
      3          8           0       -1.366857    0.435023    0.297850
      4          6           0       -0.212237    0.922717   -0.282227
      5          8           0        0.625230    1.613864    0.603078
      6          6           0        1.098131    0.368342    0.074949
      7          6           0        1.387205   -0.880497    0.901631
      8          6           0        2.430279   -1.272447   -0.191830
      9          6           0        2.363447    0.180276   -0.759160
     10          1           0       -4.129747   -1.239267   -0.539248
     11          1           0       -3.992445    0.209781    0.480068
     12          1           0       -3.233010   -1.307181    0.992233
     13          1           0       -2.426808    0.335202   -1.482112
     14          1           0       -1.665608   -1.182869   -0.972641
     15          1           0       -0.376567    1.400414   -1.255023
     16          1           0        0.549722   -1.556960    1.085723
     17          1           0        1.856667   -0.631841    1.857866
     18          1           0        2.036946   -2.010237   -0.894769
     19          1           0        3.404829   -1.611583    0.162194
     20          1           0        2.282811    0.306476   -1.841990
     21          1           0        3.180674    0.808088   -0.391187
 ---------------------------------------------------------------------

 SCF Done:  E(RB3LYP) =  -424.375463991     A.U. after    1 cycles

 The electronic state is 1-A.
 Alpha  occ. eigenvalues --  -19.14995 -19.14800 -10.27582 -10.23729 -10.23265
 Alpha  occ. eigenvalues --  -10.18771 -10.18464 -10.18176 -10.18049  -1.09367
 Alpha  occ. eigenvalues --   -1.02651  -0.83651  -0.76190  -0.66803  -0.64913
 Alpha  occ. eigenvalues --   -0.63386  -0.60840  -0.54811  -0.51641  -0.50216
 Alpha  occ. eigenvalues --   -0.47329  -0.46583  -0.44807  -0.40525  -0.39135
 Alpha  occ. eigenvalues --   -0.38811  -0.37454  -0.37436  -0.35437  -0.33877
 Alpha  occ. eigenvalues --   -0.32583  -0.31913  -0.31010  -0.26788  -0.24601
 Alpha virt. eigenvalues --    0.07842   0.08082   0.10590   0.11950   0.13025
 Alpha virt. eigenvalues --    0.13471   0.14271   0.15249   0.16273   0.17322
 Alpha virt. eigenvalues --    0.17453   0.18077   0.18635   0.19313   0.19924

 Mulliken charges:
               1
     1  C   -0.383398
     2  C   -0.040316
     3  O   -0.238828
     4  C    0.043939
     5  O   -0.289208
     6  C    0.425346
     7  C   -0.303617
     8  C   -0.212211
     9  C   -0.311146
    10  H    0.116627
    11  H    0.132463
    12  H    0.130648
    13  H    0.095047
    14  H    0.093788
    15  H    0.084867
    16  H    0.109446
    17  H    0.116303
    18  H    0.105955
    19  H    0.105956
    20  H    0.102654
    21  H    0.115684
 Sum of Mulliken charges =  -0.00000

 Dipole moment (field-independent basis, Debye):
    X=             -0.2405    Y=             -1.8713    Z=             -1.8780  Tot=              2.6621
 Quadrupole moment (field-independent basis, Debye-Ang):
   XX=            -49.8208   YY=            -57.2105   ZZ=            -54.3638
   XY=             -0.0395   XZ=              1.8949   YZ=             -2.4611

  Exact polarizability:  97.017  -1.023  73.233   0.884  -2.716  70.486
 Approx polarizability: 117.145  -1.278 108.178   2.580   0.493 105.490

                      1                      2                      3
                      A                      A                      A
 Frequencies --     44.0181                62.8488               105.3063
 Red. masses --      3.4469                 1.7497                 2.3077
 Frc consts  --      0.0039                 0.0041                 0.0151
 IR Inten    --      0.8677                 0.5191                 0.0459

                      4                      5                      6
                      A                      A                      A
 Frequencies --    134.7795               206.2473               252.1939
 Red. masses --      2.5597                 2.6629                 1.2942
 Frc consts  --      0.0274                 0.0667                 0.0485
 IR Inten    --      0.1300                 1.7783                 1.3740

                      7                      8                      9
                      A                      A                      A
 Frequencies --    272.5619               351.2455               399.1516
 Red. masses --      2.8476                 2.8905                 2.9983
 Frc consts  --      0.1246                 0.2101                 0.2815
 IR Inten    --      0.5736                 4.1477                 2.4773

                     10                     11                     12
                      A                      A                      A
 Frequencies --    510.9959               532.4766               580.9229
 Red. masses --      5.1592                 4.6185                 4.2442
 Frc consts  --      0.7937                 0.7715                 0.8439
 IR Inten    --     13.5873                 1.2806                 0.9782

                     13                     14                     15
                      A                      A                      A
 Frequencies --    717.6739               785.3613               818.9537
 Red. masses --      1.3590                 1.2504                 1.1511
 Frc consts  --      0.4124                 0.4544                 0.4549
 IR Inten    --      1.0484                 1.1427                 6.0018

                     16                     17                     18
                      A                      A                      A
 Frequencies --    838.3195               879.2507               909.4376
 Red. masses --      2.0863                 3.2467                 2.2078
 Frc consts  --      0.8639                 1.4788                 1.0759
 IR Inten    --     29.3917                12.6177                 2.0915

                     19                     20                     21
                      A                      A                      A
 Frequencies --    917.9614               929.2496              1014.5571
 Red. masses --      2.8072                 2.5033                 2.1719
 Frc consts  --      1.3937                 1.2736                 1.3172
 IR Inten    --      0.9853                11.8572                10.3828

                     22                     23                     24
                      A                      A                      A
 Frequencies --   1033.2027              1062.6217              1099.1035
 Red. masses --      1.5603                 3.1725                 2.4140
 Frc consts  --      0.9814                 2.1106                 1.7182
 IR Inten    --     15.4845                11.4916                15.7028

                     25                     26                     27
                      A                      A                      A
 Frequencies --   1141.1533              1146.1426              1163.8637
 Red. masses --      2.7333                 2.4466                 2.8321
 Frc consts  --      2.0972                 1.8936                 2.2603
 IR Inten    --     53.1719                67.2723               164.1947

                     28                     29                     30
                      A                      A                      A
 Frequencies --   1179.9620              1188.8712              1201.1388
 Red. masses --      2.1099                 1.6080                 1.4495
 Frc consts  --      1.7308                 1.3391                 1.2321
 IR Inten    --     55.7019                 9.8901                 2.1400

                     31                     32                     33
                      A                      A                      A
 Frequencies --   1222.6529              1242.2130              1270.0888
 Red. masses --      1.4252                 1.1585                 1.5204
 Frc consts  --      1.2552                 1.0533                 1.4451
 IR Inten    --     29.2962                 0.5955                10.8838

                     34                     35                     36
                      A                      A                      A
 Frequencies --   1275.0041              1298.1983              1354.3373
 Red. masses --      1.6098                 1.1039                 1.2210
 Frc consts  --      1.5418                 1.0962                 1.3196
 IR Inten    --      0.6824                 0.7130                30.7773

                     37                     38                     39
                      A                      A                      A
 Frequencies --   1399.8543              1421.8381              1469.7411
 Red. masses --      1.2746                 1.4925                 1.0932
 Frc consts  --      1.4715                 1.7777                 1.3913
 IR Inten    --      6.4870                48.7112                 2.5505

                     40                     41                     42
                      A                      A                      A
 Frequencies --   1480.9631              1483.3980              1490.2040
 Red. masses --      1.0886                 1.0402                 1.6234
 Frc consts  --      1.4067                 1.3485                 2.1240
 IR Inten    --      0.8189                 4.4140                30.2128

                     43                     44                     45
                      A                      A                      A
 Frequencies --   1499.7273              1512.3953              1532.7198
 Red. masses --      1.0470                 1.5375                 1.2510
 Frc consts  --      1.3874                 2.0720                 1.7315
 IR Inten    --      2.6601                19.2913                 5.2798

                     46                     47                     48
                      A                      A                      A
 Frequencies --   2970.4638              3000.5986              3037.8686
 Red. masses --      1.0555                 1.1056                 1.0861
 Frc consts  --      5.4874                 5.8649                 5.9054
 IR Inten    --     40.1077                44.5992                45.3571

                     49                     50                     51
                      A                      A                      A
 Frequencies --   3046.7070              3053.4906              3061.6530
 Red. masses --      1.0347                 1.0577                 1.0588
 Frc consts  --      5.6591                 5.8103                 5.8478
 IR Inten    --     16.3411                40.6692                12.8144

                     52                     53                     54
                      A                      A                      A
 Frequencies --   3073.5195              3102.4267              3112.5016
 Red. masses --      1.0617                 1.1065                 1.1064
 Frc consts  --      5.9089                 6.2750                 6.3154
 IR Inten    --     32.2054                13.4201                 8.4699

                     55                     56                     57
                      A                      A                      A
 Frequencies --   3121.3180              3125.2167              3131.9707
 Red. masses --      1.1016                 1.1028                 1.1079
 Frc consts  --      6.3232                 6.3464                 6.4029
 IR Inten    --     23.3875                23.3128                42.0190

 - Thermochemistry -
 -------------------
 Temperature   298.150 Kelvin.  Pressure   1.00000 Atm.
 Atom     1 has atomic number  6 and mass  12.00000

 Molecular mass:   128.08373 amu.
 Principal axes and moments of inertia in atomic units:
                           1         2         3
     Eigenvalues --   550.799661952.464062181.64919
           X            1.00000   0.00235   0.00026
           Y           -0.00234   0.99836  -0.05719
           Z           -0.00039   0.05719   0.99836
 This molecule is an asymmetric top.
 Rotational symmetry number  1.
 Warning -- assumption of classical behavior for rotation
           may cause significant error
 Rotational temperatures (Kelvin)      0.15725     0.04436     0.03970
 Rotational constants (GHZ):           3.27658     0.92434     0.82724
 Zero-point vibrational energy     474143.7 (Joules/Mol)
                                  113.32307 (Kcal/Mol)
 Warning -- explicit consideration of  12 degrees of freedom as
           vibrations may cause significant error
 Vibrational temperatures:     63.33    90.43   151.51   193.92   296.74
          (Kelvin)            362.85   392.16   505.36   574.29   735.21
                              766.12   835.82  1032.57  1129.96  1178.29
                             1206.15  1265.05  1308.48  1320.74  1336.98
                             1459.72  1486.55  1528.88  1581.36  1641.87
                             1649.04  1674.54  1697.70  1710.52  1728.17
                             1759.12  1787.27  1827.37  1834.45  1867.82
                             1948.59  2014.08  2045.71  2114.63  2130.78
                             2134.28  2144.07  2157.77  2176.00  2205.24
                             4273.83  4317.19  4370.82  4383.53  4393.29
                             4405.04  4422.11  4463.70  4478.20  4490.88
                             4496.49  4506.21

 Zero-point correction=                           0.180592 (Hartree/Particle)
 Thermal correction to Energy=                    0.190121
 Thermal correction to Enthalpy=                  0.191065
 Thermal correction to Gibbs Free Energy=         0.145043
 Sum of electronic and zero-point Energies=           -424.194872
 Sum of electronic and thermal Energies=              -424.185343
 Sum of electronic and thermal Enthalpies=            -424.184399
 Sum of electronic and thermal Free Energies=         -424.230421

                     E (Thermal)             CV                S
                      KCal/Mol        Cal/Mol-Kelvin    Cal/Mol-Kelvin
 Total                  119.303             34.604             96.862
 Electronic               0.000              0.000              0.000
 Translational            0.889              2.981             40.456
 Rotational               0.889              2.981             29.241
 Vibrational            117.525             28.642             27.165
 Vibration     1          0.595              1.980              5.070
 Vibration     2          0.597              1.972              4.366
 Vibration     3          0.605              1.945              3.354
 Vibration     4          0.613              1.919              2.877
 Vibration     5          0.641              1.831              2.077
 Vibration     6          0.664              1.759              1.715
 Vibration     7          0.676              1.724              1.580
 Vibration     8          0.728              1.573              1.161
 Vibration     9          0.765              1.472              0.966
 Vibration    10          0.866              1.226              0.631
 Vibration    11          0.887              1.178              0.582
 Vibration    12          0.938              1.073              0.484

                           ! Non-Optimized Parameters !
 Normal termination of Gaussian 16 at Thu Aug  4 02:20:30 2022.
