 Gaussian 16, Revision A.03,
 Gaussian 16:  ES64L-G16RevA.03 25-Dec-2016

 -----------------------------
 # opt freq b3lyp/6-31g(2df,p)
 -----------------------------

 -------------------
 Title Card Required
 -------------------
 Symbolic Z-matrix:
 Charge =  0 Multiplicity = 1

 SCF Done:  E(RB3LYP) =  -440.415791838     A.U. after   13 cycles
 SCF Done:  E(RB3LYP) =  -440.430289019     A.U. after   11 cycles
 SCF Done:  E(RB3LYP) =  -440.431949182     A.U. after   11 cycles
 SCF Done:  E(RB3LYP) =  -440.432167153     A.U. after   11 cycles
 SCF Done:  E(RB3LYP) =  -440.432244417     A.U. after   11 cycles
 SCF Done:  E(RB3LYP) =  -440.432292386     A.U. after   11 cycles
 SCF Done:  E(RB3LYP) =  -440.432370089     A.U. after   11 cycles
 SCF Done:  E(RB3LYP) =  -440.432479228     A.U. after   12 cycles
 SCF Done:  E(RB3LYP) =  -440.432681089     A.U. after   11 cycles
 SCF Done:  E(RB3LYP) =  -440.432890950     A.U. after   12 cycles
 SCF Done:  E(RB3LYP) =  -440.432891061     A.U. after   11 cycles
 SCF Done:  E(RB3LYP) =  -440.432903430     A.U. after   10 cycles
 SCF Done:  E(RB3LYP) =  -440.432903895     A.U. after    8 cycles
 SCF Done:  E(RB3LYP) =  -440.432903953     A.U. after    8 cycles
 SCF Done:  E(RB3LYP) =  -440.432904007     A.U. after    7 cycles
 Optimization completed.
    -- Stationary point found.
 Normal termination of Gaussian 16 at Thu Aug  4 03:06:39 2022.

 ----------------------------------------------------------------------
 #N Geom=AllCheck Guess=TCheck SCRF=Check GenChk RB3LYP/6-31G(2df,p) Fr
 eq
 ----------------------------------------------------------------------

 Structure from the checkpoint file:  "CCOCCC1dNCO1.chk"
 -------------------
 Title Card Required
 -------------------
 Charge =  0 Multiplicity = 1

                         Standard orientation:
 ---------------------------------------------------------------------
 Center     Atomic      Atomic             Coordinates (Angstroms)
 Number     Number       Type             X           Y           Z
 ---------------------------------------------------------------------
      1          6           0       -4.243937    0.099135   -0.119105
      2          6           0       -2.930658   -0.519211    0.328413
      3          8           0       -1.868952    0.287567   -0.144768
      4          6           0       -0.598508   -0.199103    0.213151
      5          6           0        0.442625    0.768640   -0.356438
      6          6           0        1.831131    0.322380   -0.091975
      7          7           0        2.839679    0.850975    0.511261
      8          6           0        3.531876   -0.394840    0.153845
      9          8           0        2.311727   -0.896198   -0.505608
     10          1           0       -5.087265   -0.502514    0.232510
     11          1           0       -4.288837    0.156652   -1.210303
     12          1           0       -4.347629    1.111264    0.281961
     13          1           0       -2.830258   -1.545112   -0.064348
     14          1           0       -2.890207   -0.590915    1.428439
     15          1           0       -0.434032   -1.210906   -0.190707
     16          1           0       -0.496165   -0.263840    1.309347
     17          1           0        0.314031    1.763716    0.076104
     18          1           0        0.286036    0.846744   -1.438762
     19          1           0        3.811998   -1.029709    0.997901
     20          1           0        4.347195   -0.285168   -0.565308
 ---------------------------------------------------------------------

 SCF Done:  E(RB3LYP) =  -440.432904007     A.U. after    1 cycles

 The electronic state is 1-A.
 Alpha  occ. eigenvalues --  -19.17175 -19.14379 -14.31064 -10.27589 -10.26926
 Alpha  occ. eigenvalues --  -10.23861 -10.23191 -10.20252 -10.17834  -1.10798
 Alpha  occ. eigenvalues --   -1.03905  -0.87284  -0.80162  -0.75131  -0.68546
 Alpha  occ. eigenvalues --   -0.63389  -0.60944  -0.52607  -0.50999  -0.49867
 Alpha  occ. eigenvalues --   -0.48691  -0.48194  -0.46026  -0.44540  -0.43245
 Alpha  occ. eigenvalues --   -0.38873  -0.38706  -0.37570  -0.35739  -0.35071
 Alpha  occ. eigenvalues --   -0.33503  -0.32239  -0.27622  -0.26478  -0.25940
 Alpha virt. eigenvalues --    0.01402   0.08248   0.08779   0.11581   0.11655
 Alpha virt. eigenvalues --    0.12100   0.13349   0.15299   0.16006   0.16851
 Alpha virt. eigenvalues --    0.17136   0.17506   0.18439   0.19366   0.19628

 Mulliken charges:
               1
     1  C   -0.385011
     2  C   -0.032682
     3  O   -0.242593
     4  C   -0.056721
     5  C   -0.329464
     6  C    0.403673
     7  N   -0.324580
     8  C   -0.063828
     9  O   -0.280760
    10  H    0.116375
    11  H    0.127717
    12  H    0.128230
    13  H    0.088439
    14  H    0.088403
    15  H    0.107028
    16  H    0.098615
    17  H    0.144893
    18  H    0.138929
    19  H    0.136259
    20  H    0.137079
 Sum of Mulliken charges =  -0.00000

 Dipole moment (field-independent basis, Debye):
    X=             -0.8672    Y=             -1.5238    Z=              0.0181  Tot=              1.7534
 Quadrupole moment (field-independent basis, Debye-Ang):
   XX=            -48.8589   YY=            -56.8378   ZZ=            -54.1635
   XY=             -2.9583   XZ=             -2.5424   YZ=             -2.7101

  Exact polarizability: 106.074  -2.253  66.024   3.489  -0.111  62.548
 Approx polarizability: 123.233   0.339 103.506   8.489   4.472  97.133

                      1                      2                      3
                      A                      A                      A
 Frequencies --     44.0977                50.6135                84.1712
 Red. masses --      3.5004                 2.7110                 3.4590
 Frc consts  --      0.0040                 0.0041                 0.0144
 IR Inten    --      0.0827                 0.5889                 0.1807

                      4                      5                      6
                      A                      A                      A
 Frequencies --    103.6684               135.5737               186.8573
 Red. masses --      2.3407                 2.7729                 3.5966
 Frc consts  --      0.0148                 0.0300                 0.0740
 IR Inten    --      0.8627                 2.5382                 0.3881

                      7                      8                      9
                      A                      A                      A
 Frequencies --    247.0902               294.6623               351.4991
 Red. masses --      1.1680                 2.6979                 3.8245
 Frc consts  --      0.0420                 0.1380                 0.2784
 IR Inten    --      0.5175                10.2013                 3.4227

                     10                     11                     12
                      A                      A                      A
 Frequencies --    392.2821               477.2796               659.0613
 Red. masses --      3.1858                 3.0809                 3.4207
 Frc consts  --      0.2888                 0.4135                 0.8754
 IR Inten    --      9.4502                 3.1624                 4.5063

                     13                     14                     15
                      A                      A                      A
 Frequencies --    771.6939               806.2278               822.5187
 Red. masses --      2.9846                 1.3962                 1.0995
 Frc consts  --      1.0472                 0.5347                 0.4383
 IR Inten    --     15.7975                 2.4673                 0.3278

                     16                     17                     18
                      A                      A                      A
 Frequencies --    881.8755               904.5887               980.3618
 Red. masses --      6.3169                 2.0956                 3.7738
 Frc consts  --      2.8945                 1.0103                 2.1370
 IR Inten    --     38.7188                 5.3383                57.3117

                     19                     20                     21
                      A                      A                      A
 Frequencies --   1042.7311              1046.8913              1052.9444
 Red. masses --      3.6519                 4.4642                 2.2219
 Frc consts  --      2.3394                 2.8827                 1.4514
 IR Inten    --     18.9039                14.1123                 5.6100

                     22                     23                     24
                      A                      A                      A
 Frequencies --   1064.2779              1082.6040              1101.1770
 Red. masses --      1.8642                 2.2518                 1.1709
 Frc consts  --      1.2441                 1.5549                 0.8365
 IR Inten    --      5.2622                 4.3520                 2.6235

                     25                     26                     27
                      A                      A                      A
 Frequencies --   1149.7308              1166.9133              1183.1606
 Red. masses --      2.9676                 5.2312                 1.4894
 Frc consts  --      2.3112                 4.1969                 1.2285
 IR Inten    --     36.1381               229.9068                 2.2714

                     28                     29                     30
                      A                      A                      A
 Frequencies --   1208.0545              1238.4558              1295.4521
 Red. masses --      1.6843                 1.2696                 1.2573
 Frc consts  --      1.4482                 1.1473                 1.2432
 IR Inten    --     37.8553                 1.7117                 2.6131

                     31                     32                     33
                      A                      A                      A
 Frequencies --   1297.1102              1303.6312              1384.6973
 Red. masses --      1.1907                 1.1299                 2.0084
 Frc consts  --      1.1804                 1.1313                 2.2688
 IR Inten    --      2.2939                 2.2016                34.1109

                     34                     35                     36
                      A                      A                      A
 Frequencies --   1390.5755              1408.3927              1450.8474
 Red. masses --      1.4268                 1.2980                 1.4692
 Frc consts  --      1.6256                 1.5169                 1.8221
 IR Inten    --     70.1082                28.5301                 4.8837

                     37                     38                     39
                      A                      A                      A
 Frequencies --   1469.5826              1483.5788              1498.5198
 Red. masses --      1.0954                 1.0403                 1.1730
 Frc consts  --      1.3939                 1.3491                 1.5520
 IR Inten    --      4.7280                 4.2464                 6.4381

                     40                     41                     42
                      A                      A                      A
 Frequencies --   1499.6261              1517.9860              1540.1515
 Red. masses --      1.0495                 1.0829                 1.0960
 Frc consts  --      1.3906                 1.4702                 1.5317
 IR Inten    --      2.3517                 5.5174                 1.5256

                     43                     44                     45
                      A                      A                      A
 Frequencies --   1700.4238              2953.2053              2966.7641
 Red. masses --      9.4034                 1.0546                 1.0567
 Frc consts  --     16.0196                 5.4190                 5.4796
 IR Inten    --     96.9745                21.2725                66.6030

                     46                     47                     48
                      A                      A                      A
 Frequencies --   2981.4963              2996.7666              3045.3967
 Red. masses --      1.1055                 1.1035                 1.0347
 Frc consts  --      5.7897                 5.8390                 5.6538
 IR Inten    --     61.1772                32.8597                17.4425

                     49                     50                     51
                      A                      A                      A
 Frequencies --   3049.3841              3068.6926              3118.3077
 Red. masses --      1.0635                 1.0535                 1.0982
 Frc consts  --      5.8265                 5.8449                 6.2918
 IR Inten    --      8.0470                40.7640                 6.0846

                     52                     53                     54
                      A                      A                      A
 Frequencies --   3120.2331              3122.1875              3138.0629
 Red. masses --      1.1015                 1.1027                 1.1143
 Frc consts  --      6.3185                 6.3334                 6.4653
 IR Inten    --     24.0161                25.4783                15.0138

 - Thermochemistry -
 -------------------
 Temperature   298.150 Kelvin.  Pressure   1.00000 Atm.
 Atom     1 has atomic number  6 and mass  12.00000

 Molecular mass:   129.07898 amu.
 Principal axes and moments of inertia in atomic units:
                           1         2         3
     Eigenvalues --   250.034023228.464383331.51863
           X            1.00000  -0.00064  -0.00093
           Y            0.00055   0.99527  -0.09713
           Z            0.00099   0.09713   0.99527
 This molecule is an asymmetric top.
 Rotational symmetry number  1.
 Rotational temperatures (Kelvin)      0.34641     0.02683     0.02600
 Rotational constants (GHZ):           7.21798     0.55901     0.54172
 Zero-point vibrational energy     444604.9 (Joules/Mol)
                                  106.26312 (Kcal/Mol)
 Warning -- explicit consideration of  11 degrees of freedom as
           vibrations may cause significant error
 Vibrational temperatures:     63.45    72.82   121.10   149.16   195.06
          (Kelvin)            268.85   355.51   423.95   505.73   564.41
                              686.70   948.24  1110.30  1159.98  1183.42
                             1268.82  1301.50  1410.52  1500.26  1506.24
                             1514.95  1531.26  1557.63  1584.35  1654.21
                             1678.93  1702.30  1738.12  1781.86  1863.87
                             1866.25  1875.63  1992.27  2000.73  2026.36
                             2087.45  2114.40  2134.54  2156.04  2157.63
                             2184.04  2215.93  2446.53  4249.00  4268.51
                             4289.71  4311.68  4381.65  4387.38  4415.16
                             4486.55  4489.32  4492.13  4514.97

 Zero-point correction=                           0.169341 (Hartree/Particle)
 Thermal correction to Energy=                    0.179304
 Thermal correction to Enthalpy=                  0.180249
 Thermal correction to Gibbs Free Energy=         0.132579
 Sum of electronic and zero-point Energies=           -440.263563
 Sum of electronic and thermal Energies=              -440.253600
 Sum of electronic and thermal Enthalpies=            -440.252655
 Sum of electronic and thermal Free Energies=         -440.300325

                     E (Thermal)             CV                S
                      KCal/Mol        Cal/Mol-Kelvin    Cal/Mol-Kelvin
 Total                  112.515             33.973            100.329
 Electronic               0.000              0.000              0.000
 Translational            0.889              2.981             40.479
 Rotational               0.889              2.981             29.377
 Vibrational            110.738             28.011             30.474
 Vibration     1          0.595              1.980              5.066
 Vibration     2          0.595              1.977              4.793
 Vibration     3          0.601              1.960              3.791
 Vibration     4          0.605              1.946              3.384
 Vibration     5          0.613              1.918              2.865
 Vibration     6          0.632              1.858              2.259
 Vibration     7          0.661              1.768              1.751
 Vibration     8          0.689              1.684              1.447
 Vibration     9          0.728              1.572              1.159
 Vibration    10          0.760              1.487              0.991
 Vibration    11          0.834              1.300              0.717

 Optimization completed.
    -- Stationary point found.
 Normal termination of Gaussian 16 at Thu Aug  4 03:37:01 2022.
