 Gaussian 16, Revision A.03,
 Gaussian 16:  ES64L-G16RevA.03 25-Dec-2016

 -----------------------------
 # opt freq b3lyp/6-31g(2df,p)
 -----------------------------

 -------------------
 Title Card Required
 -------------------
 Symbolic Z-matrix:
 Charge =  0 Multiplicity = 1

 SCF Done:  E(RB3LYP) =  -229.860184595     A.U. after   12 cycles
 SCF Done:  E(RB3LYP) =  -229.862812954     A.U. after   10 cycles
 SCF Done:  E(RB3LYP) =  -229.863094216     A.U. after    9 cycles
 SCF Done:  E(RB3LYP) =  -229.863109362     A.U. after    7 cycles
 SCF Done:  E(RB3LYP) =  -229.863112294     A.U. after    7 cycles
 SCF Done:  E(RB3LYP) =  -229.863114099     A.U. after    7 cycles
 Optimization completed.
    -- Stationary point found.
 Normal termination of Gaussian 16 at Thu Aug  4 08:16:55 2022.

 ----------------------------------------------------------------------
 #N Geom=AllCheck Guess=TCheck SCRF=Check GenChk RB3LYP/6-31G(2df,p) Fr
 eq
 ----------------------------------------------------------------------

 Structure from the checkpoint file:  "CCpCppNpN.chk"
 -------------------
 Title Card Required
 -------------------
 Charge =  0 Multiplicity = 1

                         Standard orientation:
 ---------------------------------------------------------------------
 Center     Atomic      Atomic             Coordinates (Angstroms)
 Number     Number       Type             X           Y           Z
 ---------------------------------------------------------------------
      1          6           0        1.263489   -0.858214    0.002782
      2          6           0        0.000000    0.021817   -0.000000
      3          6           0       -1.263489   -0.858215   -0.002782
      4          7           0        0.082485    0.919923    1.159536
      5          7           0       -0.082485    0.919923   -1.159536
      6          1           0        1.304333   -1.504910    0.887531
      7          1           0        2.157371   -0.228099    0.003296
      8          1           0        1.285894   -1.504014   -0.880944
      9          1           0       -1.285893   -1.504015    0.880944
     10          1           0       -1.304332   -1.504910   -0.887530
     11          1           0       -2.157371   -0.228099   -0.003296
     12          1           0        0.077509    0.377279    2.018632
     13          1           0       -0.749827    1.504118    1.172285
     14          1           0       -0.077511    0.377279   -2.018632
     15          1           0        0.749827    1.504117   -1.172286
 ---------------------------------------------------------------------

 SCF Done:  E(RB3LYP) =  -229.863114099     A.U. after    1 cycles

 The electronic state is 1-A.
 Alpha  occ. eigenvalues --  -14.29991 -14.29991 -10.23605 -10.16789 -10.16789
 Alpha  occ. eigenvalues --   -0.91314  -0.82566  -0.72857  -0.68398  -0.56148
 Alpha  occ. eigenvalues --   -0.48759  -0.48497  -0.42675  -0.42338  -0.39443
 Alpha  occ. eigenvalues --   -0.38460  -0.36368  -0.35751  -0.33886  -0.23979
 Alpha  occ. eigenvalues --   -0.23052
 Alpha virt. eigenvalues --    0.06556   0.12212   0.13235   0.13709   0.15463
 Alpha virt. eigenvalues --    0.16296   0.17659   0.18301   0.20022   0.21626
 Alpha virt. eigenvalues --    0.21921   0.24720   0.25481   0.27385   0.46366

 Mulliken charges:
               1
     1  C   -0.383325
     2  C    0.257183
     3  C   -0.383325
     4  N   -0.511431
     5  N   -0.511431
     6  H    0.103718
     7  H    0.115982
     8  H    0.103220
     9  H    0.103220
    10  H    0.103718
    11  H    0.115982
    12  H    0.217740
    13  H    0.225505
    14  H    0.217740
    15  H    0.225505
 Sum of Mulliken charges =   0.00000

 Dipole moment (field-independent basis, Debye):
    X=             -0.0000    Y=             -1.1453    Z=             -0.0000  Tot=              1.1453
 Quadrupole moment (field-independent basis, Debye-Ang):
   XX=            -33.6128   YY=            -34.6949   ZZ=            -29.6696
   XY=             -0.0000   XZ=             -2.7006   YZ=             -0.0000

  Exact polarizability:  48.003   0.000  48.969  -0.179   0.000  50.553
 Approx polarizability:  63.662   0.000  68.127   0.751  -0.000  71.352

                      1                      2                      3
                      A                      A                      A
 Frequencies --    225.5065               257.2412               284.5144
 Red. masses --      1.0123                 1.0722                 1.0155
 Frc consts  --      0.0303                 0.0418                 0.0484
 IR Inten    --      1.5946                24.6411                22.9183

                      4                      5                      6
                      A                      A                      A
 Frequencies --    292.1787               338.4343               377.7611
 Red. masses --      1.2031                 2.3687                 2.0383
 Frc consts  --      0.0605                 0.1598                 0.1714
 IR Inten    --     12.4874                 1.2823                17.1173

                      7                      8                      9
                      A                      A                      A
 Frequencies --    431.7065               474.1493               485.9756
 Red. masses --      2.1197                 2.4851                 2.6240
 Frc consts  --      0.2328                 0.3292                 0.3651
 IR Inten    --      4.3184                 4.7486                 0.7130

                     10                     11                     12
                      A                      A                      A
 Frequencies --    758.1904               874.7723               908.1034
 Red. masses --      4.0983                 1.7605                 1.5842
 Frc consts  --      1.3881                 0.7937                 0.7697
 IR Inten    --      2.6773               139.9339                 3.4076

                     13                     14                     15
                      A                      A                      A
 Frequencies --    911.2738               957.4437               960.9691
 Red. masses --      1.3248                 1.5453                 1.7812
 Frc consts  --      0.6482                 0.8346                 0.9691
 IR Inten    --    148.1799                 6.1432                 1.4300

                     16                     17                     18
                      A                      A                      A
 Frequencies --   1025.7461              1049.3243              1138.1011
 Red. masses --      1.3799                 1.3831                 1.4757
 Frc consts  --      0.8554                 0.8973                 1.1262
 IR Inten    --     21.6621                14.2978                10.3846

                     19                     20                     21
                      A                      A                      A
 Frequencies --   1270.3209              1327.8081              1342.8959
 Red. masses --      2.8321                 1.9333                 1.7570
 Frc consts  --      2.6927                 2.0082                 1.8669
 IR Inten    --     51.5522                18.1485                14.6953

                     22                     23                     24
                      A                      A                      A
 Frequencies --   1392.6509              1412.3435              1476.0319
 Red. masses --      1.2819                 1.2714                 1.0475
 Frc consts  --      1.4648                 1.4943                 1.3447
 IR Inten    --     12.9861                 6.8688                 0.0474

                     25                     26                     27
                      A                      A                      A
 Frequencies --   1481.3552              1499.5877              1504.1494
 Red. masses --      1.0553                 1.0613                 1.0648
 Frc consts  --      1.3644                 1.4062                 1.4194
 IR Inten    --      0.3789                 1.4101                 2.8512

                     28                     29                     30
                      A                      A                      A
 Frequencies --   1639.5403              1639.6947              3021.8137
 Red. masses --      1.1048                 1.1074                 1.0363
 Frc consts  --      1.7498                 1.7542                 5.5752
 IR Inten    --      2.1316                55.8197                20.7110

                     31                     32                     33
                      A                      A                      A
 Frequencies --   3028.1123              3087.0644              3094.2878
 Red. masses --      1.0372                 1.0989                 1.0986
 Frc consts  --      5.6036                 6.1704                 6.1975
 IR Inten    --     22.3317                 1.6996                59.5060

                     34                     35                     36
                      A                      A                      A
 Frequencies --   3113.9958              3115.9083              3480.3724
 Red. masses --      1.1025                 1.1020                 1.0486
 Frc consts  --      6.2992                 6.3035                 7.4839
 IR Inten    --     23.0431                30.3747                 0.9540

                     37                     38                     39
                      A                      A                      A
 Frequencies --   3480.7954              3565.9263              3566.5754
 Red. masses --      1.0490                 1.0927                 1.0916
 Frc consts  --      7.4881                 8.1864                 8.1812
 IR Inten    --      0.0638                 0.0416                 0.0004

 - Thermochemistry -
 -------------------
 Temperature   298.150 Kelvin.  Pressure   1.00000 Atm.
 Atom     1 has atomic number  6 and mass  12.00000

 Molecular mass:    74.08440 amu.
 Principal axes and moments of inertia in atomic units:
                           1         2         3
     Eigenvalues --   381.13039 384.18879 398.45559
           X            0.95524  -0.00000  -0.29583
           Y            0.00000   1.00000  -0.00000
           Z            0.29583  -0.00000   0.95524
 This molecule is an asymmetric top.
 Rotational symmetry number  1.
 Rotational temperatures (Kelvin)      0.22726     0.22545     0.21737
 Rotational constants (GHZ):           4.73523     4.69754     4.52934
 Zero-point vibrational energy     360630.0 (Joules/Mol)
                                   86.19263 (Kcal/Mol)
 Warning -- explicit consideration of   9 degrees of freedom as
           vibrations may cause significant error
 Vibrational temperatures:    324.45   370.11   409.35   420.38   486.93
          (Kelvin)            543.51   621.13   682.20   699.21  1090.87
                             1258.60  1306.56  1311.12  1377.55  1382.62
                             1475.82  1509.74  1637.47  1827.71  1910.42
                             1932.13  2003.71  2032.05  2123.68  2131.34
                             2157.57  2164.14  2358.93  2359.15  4347.72
                             4356.78  4441.60  4451.99  4480.35  4483.10
                             5007.48  5008.09  5130.57  5131.51

 Zero-point correction=                           0.137357 (Hartree/Particle)
 Thermal correction to Energy=                    0.144021
 Thermal correction to Enthalpy=                  0.144965
 Thermal correction to Gibbs Free Energy=         0.108486
 Sum of electronic and zero-point Energies=           -229.725757
 Sum of electronic and thermal Energies=              -229.719093
 Sum of electronic and thermal Enthalpies=            -229.718149
 Sum of electronic and thermal Free Energies=         -229.754628

                     E (Thermal)             CV                S
                      KCal/Mol        Cal/Mol-Kelvin    Cal/Mol-Kelvin
 Total                   90.374             25.055             76.775
 Electronic               0.000              0.000              0.000
 Translational            0.889              2.981             38.824
 Rotational               0.889              2.981             25.570
 Vibrational             88.597             19.093             12.381
 Vibration     1          0.650              1.802              1.914
 Vibration     2          0.667              1.751              1.680
 Vibration     3          0.683              1.702              1.506
 Vibration     4          0.688              1.688              1.461
 Vibration     5          0.719              1.599              1.220
 Vibration     6          0.748              1.518              1.048
 Vibration     7          0.793              1.401              0.853
 Vibration     8          0.831              1.307              0.726
 Vibration     9          0.842              1.281              0.694

                           ! Non-Optimized Parameters !
 Normal termination of Gaussian 16 at Thu Aug  4 08:26:46 2022.
