 Gaussian 16, Revision A.03,
 Gaussian 16:  ES64L-G16RevA.03 25-Dec-2016

 -----------------------------
 # opt freq b3lyp/6-31g(2df,p)
 -----------------------------

 -------------------
 Title Card Required
 -------------------
 Symbolic Z-matrix:
 Charge =  0 Multiplicity = 1

 SCF Done:  E(RB3LYP) =  -441.661269194     A.U. after   13 cycles
 SCF Done:  E(RB3LYP) =  -441.665093097     A.U. after   11 cycles
 SCF Done:  E(RB3LYP) =  -441.665625974     A.U. after   11 cycles
 SCF Done:  E(RB3LYP) =  -441.664023792     A.U. after   13 cycles
 SCF Done:  E(RB3LYP) =  -441.665842786     A.U. after   11 cycles
 SCF Done:  E(RB3LYP) =  -441.665869220     A.U. after   10 cycles
 SCF Done:  E(RB3LYP) =  -441.665881092     A.U. after   10 cycles
 SCF Done:  E(RB3LYP) =  -441.665884260     A.U. after    8 cycles
 SCF Done:  E(RB3LYP) =  -441.665885430     A.U. after    7 cycles
 SCF Done:  E(RB3LYP) =  -441.665885580     A.U. after    7 cycles
 Optimization completed.
    -- Stationary point found.
 Normal termination of Gaussian 16 at Sun Jul  3 18:16:35 2022.

 ----------------------------------------------------------------------
 #N Geom=AllCheck Guess=TCheck SCRF=Check GenChk RB3LYP/6-31G(2df,p) Fr
 eq
 ----------------------------------------------------------------------

 Structure from the checkpoint file:  "CCpCNpCOCCdO.chk"
 -------------------
 Title Card Required
 -------------------
 Charge =  0 Multiplicity = 1

                         Standard orientation:
 ---------------------------------------------------------------------
 Center     Atomic      Atomic             Coordinates (Angstroms)
 Number     Number       Type             X           Y           Z
 ---------------------------------------------------------------------
      1          6           0        2.675888    1.435628   -0.125303
      2          6           0        1.559897    0.398060   -0.291319
      3          6           0        1.877770   -0.907602    0.455212
      4          7           0        3.063180   -1.559408   -0.116094
      5          6           0        0.220328    0.975395    0.159195
      6          8           0       -0.821919    0.077027   -0.181939
      7          6           0       -2.093355    0.511048    0.217656
      8          6           0       -3.109505   -0.534018   -0.209094
      9          8           0       -4.290061   -0.440631   -0.003956
     10          1           0        3.638204    0.988146   -0.380740
     11          1           0        2.733636    1.785707    0.912784
     12          1           0        2.512481    2.309414   -0.764450
     13          1           0        1.457575    0.156259   -1.359180
     14          1           0        0.978503   -1.540872    0.455164
     15          1           0        2.102129   -0.669437    1.503819
     16          1           0        2.830723   -1.944586   -1.027738
     17          1           0        3.330266   -2.351906    0.459549
     18          1           0        0.044970    1.951295   -0.322777
     19          1           0        0.225869    1.149700    1.249694
     20          1           0       -2.366459    1.477343   -0.240707
     21          1           0       -2.163407    0.646646    1.310848
     22          1           0       -2.657041   -1.404091   -0.734521
 ---------------------------------------------------------------------

 SCF Done:  E(RB3LYP) =  -441.665885580     A.U. after    1 cycles

 The electronic state is 1-A.
 Alpha  occ. eigenvalues --  -19.15552 -19.14492 -14.30869 -10.27595 -10.24452
 Alpha  occ. eigenvalues --  -10.23474 -10.20218 -10.18884 -10.17068  -1.05740
 Alpha  occ. eigenvalues --   -1.04587  -0.87957  -0.79768  -0.73766  -0.66613
 Alpha  occ. eigenvalues --   -0.65180  -0.59173  -0.56613  -0.50934  -0.49716
 Alpha  occ. eigenvalues --   -0.48546  -0.46547  -0.45365  -0.45043  -0.43467
 Alpha  occ. eigenvalues --   -0.41135  -0.39774  -0.37942  -0.36954  -0.35884
 Alpha  occ. eigenvalues --   -0.34716  -0.32723  -0.32381  -0.27165  -0.25738
 Alpha  occ. eigenvalues --   -0.23525
 Alpha virt. eigenvalues --   -0.02817   0.07717   0.08243   0.10670   0.11635
 Alpha virt. eigenvalues --    0.12703   0.13500   0.15538   0.16264   0.17121
 Alpha virt. eigenvalues --    0.17291   0.17943   0.18663   0.18899   0.19646

 Mulliken charges:
               1
     1  C   -0.398174
     2  C    0.025572
     3  C   -0.150651
     4  N   -0.510718
     5  C   -0.061709
     6  O   -0.252461
     7  C   -0.143124
     8  C    0.139284
     9  O   -0.237486
    10  H    0.141219
    11  H    0.108232
    12  H    0.107227
    13  H    0.077676
    14  H    0.094628
    15  H    0.094797
    16  H    0.224264
    17  H    0.226797
    18  H    0.090084
    19  H    0.087712
    20  H    0.121171
    21  H    0.121107
    22  H    0.094553
 Sum of Mulliken charges =  -0.00000

 Dipole moment (field-independent basis, Debye):
    X=              1.9044    Y=              0.0545    Z=              0.2361  Tot=              1.9197
 Quadrupole moment (field-independent basis, Debye-Ang):
   XX=            -75.4192   YY=            -50.4886   ZZ=            -53.1285
   XY=             -4.6240   XZ=              0.6807   YZ=              0.2624

  Exact polarizability:  97.394  -0.618  77.826  -1.424   1.989  66.520
 Approx polarizability: 121.177  -2.093 106.067  -2.594   3.682 102.545

                      1                      2                      3
                      A                      A                      A
 Frequencies --     43.7682                55.5891                74.9366
 Red. masses --      5.1951                 1.9944                 3.6267
 Frc consts  --      0.0059                 0.0036                 0.0120
 IR Inten    --      4.9807                 2.4905                 3.9505

                      4                      5                      6
                      A                      A                      A
 Frequencies --     94.0820               128.4409               148.0289
 Red. masses --      2.5274                 3.0264                 2.9492
 Frc consts  --      0.0132                 0.0294                 0.0381
 IR Inten    --      5.4501                 5.0223                 2.4228

                      7                      8                      9
                      A                      A                      A
 Frequencies --    217.0309               227.9909               250.8445
 Red. masses --      1.1630                 1.1893                 2.1028
 Frc consts  --      0.0323                 0.0364                 0.0780
 IR Inten    --      0.2425                33.3586                 0.9793

                     10                     11                     12
                      A                      A                      A
 Frequencies --    270.0944               319.4694               393.4282
 Red. masses --      2.6854                 4.5591                 2.3281
 Frc consts  --      0.1154                 0.2741                 0.2123
 IR Inten    --      6.2158                 4.4445                 3.6429

                     13                     14                     15
                      A                      A                      A
 Frequencies --    455.2109               514.8599               592.9202
 Red. masses --      2.9726                 3.4963                 4.2457
 Frc consts  --      0.3629                 0.5461                 0.8794
 IR Inten    --     11.7008                 4.1929                 8.3935

                     16                     17                     18
                      A                      A                      A
 Frequencies --    740.4804               816.1486               863.7769
 Red. masses --      1.2574                 1.9245                 1.4106
 Frc consts  --      0.4062                 0.7553                 0.6201
 IR Inten    --      0.1343                36.8643                61.2916

                     19                     20                     21
                      A                      A                      A
 Frequencies --    920.2432               938.7494               969.5199
 Red. masses --      1.4961                 1.3533                 1.7663
 Frc consts  --      0.7465                 0.7026                 0.9782
 IR Inten    --     13.2752                22.0681                11.9090

                     22                     23                     24
                      A                      A                      A
 Frequencies --   1014.3912              1060.4860              1067.2942
 Red. masses --      3.3771                 2.9143                 1.4380
 Frc consts  --      2.0474                 1.9310                 0.9651
 IR Inten    --     46.4633                12.0546                 7.7884

                     25                     26                     27
                      A                      A                      A
 Frequencies --   1086.6034              1114.9416              1145.8265
 Red. masses --      3.1988                 1.7842                 2.1884
 Frc consts  --      2.2253                 1.3068                 1.6928
 IR Inten    --      6.4827                 1.0099                 6.1099

                     28                     29                     30
                      A                      A                      A
 Frequencies --   1168.7199              1183.2910              1219.4983
 Red. masses --      5.1803                 2.4726                 1.3770
 Frc consts  --      4.1689                 2.0398                 1.2066
 IR Inten    --    162.1320                52.0219                 1.3431

                     31                     32                     33
                      A                      A                      A
 Frequencies --   1238.6595              1282.4430              1308.7668
 Red. masses --      1.1696                 1.2574                 1.1992
 Frc consts  --      1.0573                 1.2184                 1.2103
 IR Inten    --      4.3208                 1.7302                 2.2707

                     34                     35                     36
                      A                      A                      A
 Frequencies --   1335.9449              1356.7233              1370.6291
 Red. masses --      1.2149                 1.3143                 1.3222
 Frc consts  --      1.2775                 1.4254                 1.4634
 IR Inten    --     32.4434                 2.5412                 1.7355

                     37                     38                     39
                      A                      A                      A
 Frequencies --   1399.6402              1401.9745              1424.6587
 Red. masses --      1.3001                 1.2617                 1.4428
 Frc consts  --      1.5006                 1.4611                 1.7253
 IR Inten    --      7.6639                15.5962                 5.2657

                     40                     41                     42
                      A                      A                      A
 Frequencies --   1436.5530              1481.1830              1492.2023
 Red. masses --      1.3648                 1.1171                 1.0635
 Frc consts  --      1.6595                 1.4440                 1.3952
 IR Inten    --     13.4506                17.2012                 5.6294

                     43                     44                     45
                      A                      A                      A
 Frequencies --   1507.9691              1513.7958              1521.2055
 Red. masses --      1.0514                 1.0815                 1.0917
 Frc consts  --      1.4087                 1.4603                 1.4885
 IR Inten    --      5.1525                 2.0820                 4.3353

                     46                     47                     48
                      A                      A                      A
 Frequencies --   1658.4163              1845.2815              2896.0139
 Red. masses --      1.0880                10.6857                 1.0843
 Frc consts  --      1.7630                21.4378                 5.3579
 IR Inten    --     22.2707               167.5931                79.8048

                     49                     50                     51
                      A                      A                      A
 Frequencies --   2946.9812              2958.5962              2980.1707
 Red. masses --      1.0567                 1.0559                 1.0980
 Frc consts  --      5.4070                 5.4454                 5.7456
 IR Inten    --     28.2452                52.5310                60.6907

                     52                     53                     54
                      A                      A                      A
 Frequencies --   2985.1267              2990.0094              3006.5506
 Red. masses --      1.1021                 1.0621                 1.0863
 Frc consts  --      5.7861                 5.5943                 5.7856
 IR Inten    --      4.7106                57.2131                19.0499

                     55                     56                     57
                      A                      A                      A
 Frequencies --   3028.0406              3038.7154              3090.5204
 Red. masses --      1.0425                 1.0962                 1.0990
 Frc consts  --      5.6320                 5.9638                 6.1845
 IR Inten    --     18.3056                58.9356                39.7430

                     58                     59                     60
                      A                      A                      A
 Frequencies --   3134.1384              3486.0963              3564.4881
 Red. masses --      1.0985                 1.0500                 1.0915
 Frc consts  --      6.3575                 7.5182                 8.1706
 IR Inten    --     10.2248                 0.4408                 0.1211

 - Thermochemistry -
 -------------------
 Temperature   298.150 Kelvin.  Pressure   1.00000 Atm.
 Atom     1 has atomic number  6 and mass  12.00000

 Molecular mass:   131.09463 amu.
 Principal axes and moments of inertia in atomic units:
                           1         2         3
     Eigenvalues --   501.048713037.561353417.13243
           X            0.99999  -0.00320  -0.00064
           Y            0.00320   0.99996   0.00782
           Z            0.00061  -0.00782   0.99997
 This molecule is an asymmetric top.
 Rotational symmetry number  1.
 Warning -- assumption of classical behavior for rotation
           may cause significant error
 Rotational temperatures (Kelvin)      0.17287     0.02851     0.02535
 Rotational constants (GHZ):           3.60193     0.59414     0.52814
 Zero-point vibrational energy     501104.7 (Joules/Mol)
                                  119.76689 (Kcal/Mol)
 Warning -- explicit consideration of  15 degrees of freedom as
           vibrations may cause significant error
 Vibrational temperatures:     62.97    79.98   107.82   135.36   184.80
          (Kelvin)            212.98   312.26   328.03   360.91   388.61
                              459.65   566.06   654.95   740.77   853.08
                             1065.39  1174.26  1242.78  1324.02  1350.65
                             1394.92  1459.48  1525.80  1535.60  1563.38
                             1604.15  1648.59  1681.53  1702.49  1754.59
                             1782.15  1845.15  1883.02  1922.13  1952.02
                             1972.03  2013.77  2017.13  2049.77  2066.88
                             2131.09  2146.95  2169.63  2178.01  2188.68
                             2386.09  2654.95  4166.72  4240.05  4256.76
                             4287.80  4294.93  4301.96  4325.76  4356.67
                             4372.03  4446.57  4509.33  5015.72  5128.50

 Zero-point correction=                           0.190861 (Hartree/Particle)
 Thermal correction to Energy=                    0.202275
 Thermal correction to Enthalpy=                  0.203219
 Thermal correction to Gibbs Free Energy=         0.152537
 Sum of electronic and zero-point Energies=           -441.475025
 Sum of electronic and thermal Energies=              -441.463611
 Sum of electronic and thermal Enthalpies=            -441.462667
 Sum of electronic and thermal Free Energies=         -441.513348

                     E (Thermal)             CV                S
                      KCal/Mol        Cal/Mol-Kelvin    Cal/Mol-Kelvin
 Total                  126.929             38.880            106.668
 Electronic               0.000              0.000              0.000
 Translational            0.889              2.981             40.525
 Rotational               0.889              2.981             30.032
 Vibrational            125.152             32.919             36.111
 Vibration     1          0.595              1.980              5.081
 Vibration     2          0.596              1.975              4.608
 Vibration     3          0.599              1.966              4.019
 Vibration     4          0.603              1.953              3.573
 Vibration     5          0.611              1.925              2.969
 Vibration     6          0.617              1.905              2.697
 Vibration     7          0.646              1.815              1.984
 Vibration     8          0.651              1.798              1.895
 Vibration     9          0.663              1.761              1.725
 Vibration    10          0.674              1.728              1.596
 Vibration    11          0.705              1.636              1.313
 Vibration    12          0.761              1.484              0.987
 Vibration    13          0.814              1.349              0.780
 Vibration    14          0.870              1.217              0.622
 Vibration    15          0.950              1.047              0.462

                           ! Non-Optimized Parameters !
 Normal termination of Gaussian 16 at Sun Jul  3 18:44:00 2022.
