 Gaussian 16, Revision A.03,
 Gaussian 16:  ES64L-G16RevA.03 25-Dec-2016

 -----------------------------
 # opt freq b3lyp/6-31g(2df,p)
 -----------------------------

 -------------------
 Title Card Required
 -------------------
 Symbolic Z-matrix:
 Charge =  0 Multiplicity = 1

 SCF Done:  E(RB3LYP) =  -362.713503865     A.U. after   16 cycles
 SCF Done:  E(RB3LYP) =  -362.736172209     A.U. after   13 cycles
 SCF Done:  E(RB3LYP) =  -362.737281804     A.U. after   13 cycles
 SCF Done:  E(RB3LYP) =  -362.737336456     A.U. after   13 cycles
 SCF Done:  E(RB3LYP) =  -362.738120201     A.U. after   13 cycles
 SCF Done:  E(RB3LYP) =  -362.738878410     A.U. after   15 cycles
 SCF Done:  E(RB3LYP) =  -362.739247663     A.U. after   13 cycles
 SCF Done:  E(RB3LYP) =  -362.739343771     A.U. after   12 cycles
 SCF Done:  E(RB3LYP) =  -362.739324769     A.U. after   12 cycles
 SCF Done:  E(RB3LYP) =  -362.739372332     A.U. after   11 cycles
 SCF Done:  E(RB3LYP) =  -362.740875765     A.U. after   12 cycles
 SCF Done:  E(RB3LYP) =  -362.740439024     A.U. after   13 cycles
 SCF Done:  E(RB3LYP) =  -362.741783464     A.U. after   12 cycles
 SCF Done:  E(RB3LYP) =  -362.741263966     A.U. after   14 cycles
 SCF Done:  E(RB3LYP) =  -362.741985563     A.U. after   12 cycles
 SCF Done:  E(RB3LYP) =  -362.742052577     A.U. after   11 cycles
 SCF Done:  E(RB3LYP) =  -362.742063911     A.U. after   10 cycles
 SCF Done:  E(RB3LYP) =  -362.742064687     A.U. after    9 cycles
 SCF Done:  E(RB3LYP) =  -362.742064710     A.U. after    7 cycles
 Optimization completed.
    -- Stationary point found.
 Normal termination of Gaussian 16 at Sun Jul  3 14:35:59 2022.

 ----------------------------------------------------------------------
 #N Geom=AllCheck Guess=TCheck SCRF=Check GenChk RB3LYP/6-31G(2df,p) Fr
 eq
 ----------------------------------------------------------------------

 Structure from the checkpoint file:  "CCpCtCOpdCCdN.chk"
 -------------------
 Title Card Required
 -------------------
 Charge =  0 Multiplicity = 1

                         Standard orientation:
 ---------------------------------------------------------------------
 Center     Atomic      Atomic             Coordinates (Angstroms)
 Number     Number       Type             X           Y           Z
 ---------------------------------------------------------------------
      1          6           0       -0.089988    2.424145   -0.000022
      2          6           0        0.168379    0.935419    0.000055
      3          6           0       -0.992221    0.116876    0.000032
      4          6           0       -2.022453   -0.510328    0.000030
      5          8           0       -3.167447   -1.135749   -0.000036
      6          6           0        1.426411    0.436162    0.000010
      7          6           0        1.763697   -0.978264   -0.000050
      8          7           0        2.932621   -1.498340    0.000014
      9          1           0       -0.675193    2.713787   -0.879649
     10          1           0        0.846085    2.987163   -0.000041
     11          1           0       -0.675252    2.713842    0.879537
     12          1           0       -3.027242   -2.092319    0.000131
     13          1           0        2.259935    1.135770   -0.000013
     14          1           0        0.913958   -1.666985   -0.000190
     15          1           0        3.645983   -0.760947    0.000089
 ---------------------------------------------------------------------

 SCF Done:  E(RB3LYP) =  -362.742064710     A.U. after    1 cycles

 The electronic state is 1-A.
 Alpha  occ. eigenvalues --  -19.22942 -14.30360 -10.24766 -10.22606 -10.21721
 Alpha  occ. eigenvalues --  -10.19262 -10.18824 -10.18567  -1.11435  -0.88930
 Alpha  occ. eigenvalues --   -0.82650  -0.74809  -0.70995  -0.64118  -0.60476
 Alpha  occ. eigenvalues --   -0.57940  -0.49919  -0.47719  -0.45711  -0.43885
 Alpha  occ. eigenvalues --   -0.42343  -0.40633  -0.39385  -0.37733  -0.34451
 Alpha  occ. eigenvalues --   -0.29367  -0.27652  -0.25066  -0.22086
 Alpha virt. eigenvalues --   -0.04602   0.02979   0.05976   0.06173   0.10396
 Alpha virt. eigenvalues --    0.11445   0.13573   0.14061   0.16330   0.18187
 Alpha virt. eigenvalues --    0.20213   0.20590   0.22613   0.26717   0.31470

 Mulliken charges:
               1
     1  C   -0.479074
     2  C    0.145727
     3  C    0.038445
     4  C    0.115750
     5  O   -0.385372
     6  C   -0.170698
     7  C    0.026718
     8  N   -0.425540
     9  H    0.141515
    10  H    0.127223
    11  H    0.141511
    12  H    0.333637
    13  H    0.085225
    14  H    0.094327
    15  H    0.210605
 Sum of Mulliken charges =  -0.00000

 Dipole moment (field-independent basis, Debye):
    X=             -2.2028    Y=              0.9377    Z=              0.0002  Tot=              2.3941
 Quadrupole moment (field-independent basis, Debye-Ang):
   XX=            -47.9812   YY=            -42.3797   ZZ=            -48.0042
   XY=             13.8792   XZ=             -0.0007   YZ=             -0.0007

  Exact polarizability: 128.036  -1.680  81.711   0.000  -0.000  38.038
 Approx polarizability: 223.632  -3.686 120.166  -0.000   0.000  58.081

                      1                      2                      3
                      A                      A                      A
 Frequencies --     82.5975               113.8085               148.4270
 Red. masses --      6.0111                 2.5600                 1.3179
 Frc consts  --      0.0242                 0.0195                 0.0171
 IR Inten    --      4.9095                 6.3422                 7.1083

                      4                      5                      6
                      A                      A                      A
 Frequencies --    174.7333               198.6496               204.1295
 Red. masses --      1.1963                 3.1898                 3.8653
 Frc consts  --      0.0215                 0.0742                 0.0949
 IR Inten    --    117.5819                 0.0051                 1.9411

                      7                      8                      9
                      A                      A                      A
 Frequencies --    237.8268               337.2123               416.2353
 Red. masses --      1.6466                 4.4506                 3.9644
 Frc consts  --      0.0549                 0.2982                 0.4047
 IR Inten    --      9.0956                 8.4161                 6.4225

                     10                     11                     12
                      A                      A                      A
 Frequencies --    433.8460               454.5684               580.5700
 Red. masses --      8.1188                 5.0676                 3.8912
 Frc consts  --      0.9004                 0.6170                 0.7728
 IR Inten    --      0.1284                 0.0305                 0.3945

                     13                     14                     15
                      A                      A                      A
 Frequencies --    596.7435               709.5876               809.9988
 Red. masses --      5.3363                 3.8864                 1.2815
 Frc consts  --      1.1196                 1.1529                 0.4954
 IR Inten    --      6.1033                20.2115                 6.3826

                     16                     17                     18
                      A                      A                      A
 Frequencies --    911.9366              1020.5614              1062.3120
 Red. masses --      1.8761                 1.6556                 1.5145
 Frc consts  --      0.9193                 1.0160                 1.0070
 IR Inten    --     23.3294                 8.7051                 1.6411

                     19                     20                     21
                      A                      A                      A
 Frequencies --   1078.4853              1126.8129              1141.3453
 Red. masses --      5.2384                 1.9425                 1.0915
 Frc consts  --      3.5898                 1.4532                 0.8377
 IR Inten    --     32.3580                89.3351                39.1622

                     22                     23                     24
                      A                      A                      A
 Frequencies --   1224.2865              1264.4239              1294.5311
 Red. masses --      1.6076                 1.3770                 1.4034
 Frc consts  --      1.4197                 1.2971                 1.3857
 IR Inten    --    146.7897               100.8019                82.0067

                     25                     26                     27
                      A                      A                      A
 Frequencies --   1405.1055              1407.5977              1434.2679
 Red. masses --      1.8964                 1.2288                 1.6593
 Frc consts  --      2.2059                 1.4345                 2.0111
 IR Inten    --     13.6071                 1.8517                 8.5577

                     28                     29                     30
                      A                      A                      A
 Frequencies --   1473.5305              1487.7883              1645.8468
 Red. masses --      1.0445                 1.0855                 7.7998
 Frc consts  --      1.3362                 1.4157                12.4483
 IR Inten    --      6.0316                 9.6525                 3.7340

                     31                     32                     33
                      A                      A                      A
 Frequencies --   1683.4470              2385.3709              3033.9256
 Red. masses --      6.7905                11.6453                 1.0357
 Frc consts  --     11.3383                39.0402                 5.6168
 IR Inten    --    169.6095               384.0530                18.0153

                     34                     35                     36
                      A                      A                      A
 Frequencies --   3090.7008              3091.4670              3126.0494
 Red. masses --      1.0995                 1.0863                 1.1018
 Frc consts  --      6.1880                 6.1168                 6.3436
 IR Inten    --     11.3135                15.8693                13.2763

                     37                     38                     39
                      A                      A                      A
 Frequencies --   3148.4591              3396.3420              3757.8582
 Red. masses --      1.0886                 1.0731                 1.0659
 Frc consts  --      6.3581                 7.2932                 8.8684
 IR Inten    --     11.9474                 5.3661               115.7361

 - Thermochemistry -
 -------------------
 Temperature   298.150 Kelvin.  Pressure   1.00000 Atm.
 Atom     1 has atomic number  6 and mass  12.00000

 Molecular mass:   109.05276 amu.
 Principal axes and moments of inertia in atomic units:
                           1         2         3
     Eigenvalues --   658.349091556.125022203.33613
           X            0.99990   0.01439  -0.00000
           Y           -0.01439   0.99990  -0.00000
           Z            0.00000   0.00000   1.00000
 This molecule is an asymmetric top.
 Rotational symmetry number  1.
 Warning -- assumption of classical behavior for rotation
           may cause significant error
 Rotational temperatures (Kelvin)      0.13156     0.05566     0.03931
 Rotational constants (GHZ):           2.74131     1.15977     0.81909
 Zero-point vibrational energy     306192.5 (Joules/Mol)
                                   73.18176 (Kcal/Mol)
 Warning -- explicit consideration of  13 degrees of freedom as
           vibrations may cause significant error
 Vibrational temperatures:    118.84   163.75   213.55   251.40   285.81
          (Kelvin)            293.70   342.18   485.17   598.87   624.21
                              654.02   835.31   858.58  1020.94  1165.41
                             1312.07  1468.36  1528.43  1551.70  1621.23
                             1642.14  1761.48  1819.22  1862.54  2021.63
                             2025.22  2063.59  2120.08  2140.60  2368.01
                             2422.10  3432.02  4365.14  4446.83  4447.93
                             4497.69  4529.93  4886.58  5406.72

 Zero-point correction=                           0.116623 (Hartree/Particle)
 Thermal correction to Energy=                    0.125787
 Thermal correction to Enthalpy=                  0.126731
 Thermal correction to Gibbs Free Energy=         0.082452
 Sum of electronic and zero-point Energies=           -362.625442
 Sum of electronic and thermal Energies=              -362.616278
 Sum of electronic and thermal Enthalpies=            -362.615334
 Sum of electronic and thermal Free Energies=         -362.659613

                     E (Thermal)             CV                S
                      KCal/Mol        Cal/Mol-Kelvin    Cal/Mol-Kelvin
 Total                   78.932             31.449             93.192
 Electronic               0.000              0.000              0.000
 Translational            0.889              2.981             39.976
 Rotational               0.889              2.981             29.203
 Vibrational             77.155             25.488             24.013
 Vibration     1          0.600              1.961              3.828
 Vibration     2          0.607              1.938              3.203
 Vibration     3          0.618              1.904              2.692
 Vibration     4          0.627              1.874              2.384
 Vibration     5          0.637              1.842              2.146
 Vibration     6          0.640              1.834              2.096
 Vibration     7          0.656              1.783              1.819
 Vibration     8          0.718              1.601              1.225
 Vibration     9          0.779              1.435              0.905
 Vibration    10          0.795              1.396              0.846
 Vibration    11          0.813              1.351              0.782
 Vibration    12          0.937              1.073              0.484
 Vibration    13          0.955              1.039              0.455

 Optimization completed.
    -- Stationary point found.
 Normal termination of Gaussian 16 at Sun Jul  3 14:49:35 2022.
