 Gaussian 16, Revision A.03,
 Gaussian 16:  ES64L-G16RevA.03 25-Dec-2016

 -----------------------------
 # opt freq b3lyp/6-31g(2df,p)
 -----------------------------

 -------------------
 Title Card Required
 -------------------
 Symbolic Z-matrix:
 Charge =  0 Multiplicity = 1

 SCF Done:  E(RB3LYP) =  -496.293870048     A.U. after   14 cycles
 SCF Done:  E(RB3LYP) =  -496.303810563     A.U. after   14 cycles
 SCF Done:  E(RB3LYP) =  -496.302815724     A.U. after   12 cycles
 SCF Done:  E(RB3LYP) =  -496.305253597     A.U. after   13 cycles
 SCF Done:  E(RB3LYP) =  -496.305717115     A.U. after   12 cycles
 SCF Done:  E(RB3LYP) =  -496.305747048     A.U. after   10 cycles
 SCF Done:  E(RB3LYP) =  -496.305751750     A.U. after   10 cycles
 SCF Done:  E(RB3LYP) =  -496.305752157     A.U. after    8 cycles
 SCF Done:  E(RB3LYP) =  -496.305752213     A.U. after    7 cycles
 Optimization completed.
    -- Stationary point found.
 Normal termination of Gaussian 16 at Thu Aug  4 06:30:32 2022.

 ----------------------------------------------------------------------
 #N Geom=AllCheck Guess=TCheck SCRF=Check GenChk RB3LYP/6-31G(2df,p) Fr
 eq
 ----------------------------------------------------------------------

 Structure from the checkpoint file:  "CCpCpOCpdOpOCdO.chk"
 -------------------
 Title Card Required
 -------------------
 Charge =  0 Multiplicity = 1

                         Standard orientation:
 ---------------------------------------------------------------------
 Center     Atomic      Atomic             Coordinates (Angstroms)
 Number     Number       Type             X           Y           Z
 ---------------------------------------------------------------------
      1          6           0       -2.877899   -1.189428   -0.304416
      2          6           0       -1.954614    0.014559   -0.215833
      3          6           0       -2.382614    1.043900    0.821994
      4          8           0       -0.641762   -0.521669    0.147962
      5          6           0        0.408378    0.195132   -0.211292
      6          8           0        0.423034    1.236742   -0.810712
      7          8           0        1.516537   -0.483976    0.229810
      8          6           0        2.750372    0.081468   -0.029450
      9          8           0        3.745697   -0.460878    0.326227
     10          1           0       -3.878450   -0.865996   -0.605083
     11          1           0       -2.953742   -1.692236    0.664241
     12          1           0       -2.510783   -1.909058   -1.040449
     13          1           0       -1.844198    0.493471   -1.192336
     14          1           0       -2.435336    0.589840    1.816209
     15          1           0       -3.372576    1.434603    0.568151
     16          1           0       -1.682685    1.882018    0.847950
     17          1           0        2.667990    1.031818   -0.570992
 ---------------------------------------------------------------------

 SCF Done:  E(RB3LYP) =  -496.305752213     A.U. after    1 cycles

 The electronic state is 1-A.
 Alpha  occ. eigenvalues --  -19.21831 -19.20530 -19.15517 -19.15036 -10.37332
 Alpha  occ. eigenvalues --  -10.32629 -10.26418 -10.19480 -10.19327  -1.16761
 Alpha  occ. eigenvalues --   -1.10132  -1.05331  -1.03765  -0.81533  -0.71142
 Alpha  occ. eigenvalues --   -0.70526  -0.61409  -0.59218  -0.56894  -0.51568
 Alpha  occ. eigenvalues --   -0.50187  -0.47148  -0.46303  -0.45679  -0.43185
 Alpha  occ. eigenvalues --   -0.41497  -0.40894  -0.40521  -0.39115  -0.37632
 Alpha  occ. eigenvalues --   -0.35569  -0.33660  -0.32314  -0.31688  -0.29012
 Alpha virt. eigenvalues --   -0.02591   0.03398   0.07743   0.09528   0.12462
 Alpha virt. eigenvalues --    0.13343   0.13776   0.14885   0.15937   0.17254
 Alpha virt. eigenvalues --    0.17452   0.19099   0.19702   0.23655   0.24572

 Mulliken charges:
               1
     1  C   -0.394438
     2  C    0.141083
     3  C   -0.398456
     4  O   -0.251179
     5  C    0.535150
     6  O   -0.400708
     7  O   -0.221425
     8  C    0.178356
     9  O   -0.246098
    10  H    0.127181
    11  H    0.134243
    12  H    0.132587
    13  H    0.118167
    14  H    0.130591
    15  H    0.127245
    16  H    0.143474
    17  H    0.144227
 Sum of Mulliken charges =  -0.00000

 Dipole moment (field-independent basis, Debye):
    X=             -3.8260    Y=              0.6314    Z=             -0.4209  Tot=              3.9006
 Quadrupole moment (field-independent basis, Debye-Ang):
   XX=            -55.2982   YY=            -54.1500   ZZ=            -51.3121
   XY=              3.9093   XZ=             -2.2040   YZ=              2.9155

  Exact polarizability:  92.305  -0.368  59.659   0.980  -2.729  51.723
 Approx polarizability: 114.181  -3.515  91.701   3.442 -11.256  78.742

                      1                      2                      3
                      A                      A                      A
 Frequencies --     60.9044                62.8016               108.8903
 Red. masses --      5.2984                 3.7260                 2.7768
 Frc consts  --      0.0116                 0.0087                 0.0194
 IR Inten    --      0.4481                 0.7475                16.5932

                      4                      5                      6
                      A                      A                      A
 Frequencies --    135.3171               159.3569               215.2034
 Red. masses --      4.5499                 6.4017                 1.0302
 Frc consts  --      0.0491                 0.0958                 0.0281
 IR Inten    --      0.5756                 5.2987                 0.0189

                      7                      8                      9
                      A                      A                      A
 Frequencies --    249.0609               281.7708               310.1653
 Red. masses --      1.1950                 3.9132                 3.1184
 Frc consts  --      0.0437                 0.1831                 0.1768
 IR Inten    --      1.4171                12.1628                 3.6456

                     10                     11                     12
                      A                      A                      A
 Frequencies --    410.9031               433.1681               484.9508
 Red. masses --      4.1974                 2.8602                 3.4129
 Frc consts  --      0.4176                 0.3162                 0.4729
 IR Inten    --      7.2858                 3.8423                 1.1089

                     13                     14                     15
                      A                      A                      A
 Frequencies --    578.8464               781.1782               798.5206
 Red. masses --      6.2276                 9.3316                12.1209
 Frc consts  --      1.2294                 3.3551                 4.5536
 IR Inten    --      9.9001                 4.6453                21.1923

                     16                     17                     18
                      A                      A                      A
 Frequencies --    839.1481               917.2142               936.8182
 Red. masses --      3.1933                 2.9599                 1.2260
 Frc consts  --      1.3249                 1.4671                 0.6339
 IR Inten    --     41.2189               108.3695                 0.7033

                     19                     20                     21
                      A                      A                      A
 Frequencies --    951.6524              1044.8970              1055.9715
 Red. masses --      1.4032                 9.9278                 1.6514
 Frc consts  --      0.7487                 6.3863                 1.0849
 IR Inten    --      3.2413               113.1736                 0.2088

                     22                     23                     24
                      A                      A                      A
 Frequencies --   1098.6951              1147.2051              1164.4929
 Red. masses --      3.8628                 2.6450                 2.0489
 Frc consts  --      2.7473                 2.0510                 1.6370
 IR Inten    --    568.9890                 3.9731                10.7464

                     25                     26                     27
                      A                      A                      A
 Frequencies --   1206.4142              1286.1156              1365.0409
 Red. masses --      1.9878                 4.9134                 1.4151
 Frc consts  --      1.7045                 4.7884                 1.5535
 IR Inten    --     12.1544               787.9122                17.4607

                     28                     29                     30
                      A                      A                      A
 Frequencies --   1384.5437              1397.1998              1404.8377
 Red. masses --      1.1920                 1.2227                 1.3477
 Frc consts  --      1.3463                 1.4063                 1.5671
 IR Inten    --      7.9409                64.1170                16.5561

                     31                     32                     33
                      A                      A                      A
 Frequencies --   1421.0228              1481.3075              1485.6724
 Red. masses --      1.2572                 1.0562                 1.0438
 Frc consts  --      1.4957                 1.3655                 1.3574
 IR Inten    --      5.2225                 1.3204                 0.9575

                     34                     35                     36
                      A                      A                      A
 Frequencies --   1495.6709              1510.6914              1831.7068
 Red. masses --      1.0531                 1.0518                11.8563
 Frc consts  --      1.3880                 1.4143                23.4376
 IR Inten    --      3.3634                10.4149               300.3206

                     37                     38                     39
                      A                      A                      A
 Frequencies --   1886.1315              3044.3885              3048.5907
 Red. masses --      9.2826                 1.0350                 1.0357
 Frc consts  --     19.4565                 5.6518                 5.6711
 IR Inten    --    268.5084                10.0686                11.0042

                     40                     41                     42
                      A                      A                      A
 Frequencies --   3080.0457              3082.9561              3116.3120
 Red. masses --      1.0858                 1.0968                 1.1020
 Frc consts  --      6.0688                 6.1418                 6.3053
 IR Inten    --      2.2485                13.3555                 2.1973

                     43                     44                     45
                      A                      A                      A
 Frequencies --   3126.1206              3127.5235              3134.2033
 Red. masses --      1.1008                 1.1023                 1.1021
 Frc consts  --      6.3383                 6.3524                 6.3784
 IR Inten    --     33.0853                16.5253                15.4574

 - Thermochemistry -
 -------------------
 Temperature   298.150 Kelvin.  Pressure   1.00000 Atm.
 Atom     1 has atomic number  6 and mass  12.00000

 Molecular mass:   132.04226 amu.
 Principal axes and moments of inertia in atomic units:
                           1         2         3
     Eigenvalues --   403.059782384.187612562.40209
           X            0.99993   0.01022  -0.00614
           Y           -0.00975   0.99730   0.07276
           Z            0.00686  -0.07270   0.99733
 This molecule is an asymmetric top.
 Rotational symmetry number  1.
 Rotational temperatures (Kelvin)      0.21489     0.03633     0.03380
 Rotational constants (GHZ):           4.47760     0.75696     0.70432
 Zero-point vibrational energy     347776.1 (Joules/Mol)
                                   83.12049 (Kcal/Mol)
 Warning -- explicit consideration of  13 degrees of freedom as
           vibrations may cause significant error
 Vibrational temperatures:     87.63    90.36   156.67   194.69   229.28
          (Kelvin)            309.63   358.34   405.41   446.26   591.20
                              623.23   697.74   832.83  1123.94  1148.89
                             1207.35  1319.67  1347.87  1369.22  1503.37
                             1519.31  1580.78  1650.57  1675.45  1735.76
                             1850.43  1963.99  1992.05  2010.26  2021.25
                             2044.53  2131.27  2137.55  2151.94  2173.55
                             2635.42  2713.72  4380.20  4386.24  4431.50
                             4435.69  4483.68  4497.79  4499.81  4509.42

 Zero-point correction=                           0.132461 (Hartree/Particle)
 Thermal correction to Energy=                    0.142376
 Thermal correction to Enthalpy=                  0.143320
 Thermal correction to Gibbs Free Energy=         0.096555
 Sum of electronic and zero-point Energies=           -496.173291
 Sum of electronic and thermal Energies=              -496.163376
 Sum of electronic and thermal Enthalpies=            -496.162432
 Sum of electronic and thermal Free Energies=         -496.209197

                     E (Thermal)             CV                S
                      KCal/Mol        Cal/Mol-Kelvin    Cal/Mol-Kelvin
 Total                   89.342             33.741             98.426
 Electronic               0.000              0.000              0.000
 Translational            0.889              2.981             40.547
 Rotational               0.889              2.981             29.289
 Vibrational             87.565             27.779             28.590
 Vibration     1          0.597              1.973              4.428
 Vibration     2          0.597              1.972              4.367
 Vibration     3          0.606              1.942              3.289
 Vibration     4          0.613              1.918              2.869
 Vibration     5          0.621              1.892              2.557
 Vibration     6          0.645              1.818              1.999
 Vibration     7          0.662              1.764              1.737
 Vibration     8          0.681              1.707              1.523
 Vibration     9          0.699              1.654              1.361
 Vibration    10          0.775              1.447              0.923
 Vibration    11          0.794              1.398              0.848
 Vibration    12          0.841              1.283              0.697
 Vibration    13          0.935              1.077              0.488

                           ! Non-Optimized Parameters !
 Normal termination of Gaussian 16 at Thu Aug  4 06:50:48 2022.
