 Gaussian 16, Revision A.03,
 Gaussian 16:  ES64L-G16RevA.03 25-Dec-2016

 -----------------------------
 # opt freq b3lyp/6-31g(2df,p)
 -----------------------------

 -------------------
 Title Card Required
 -------------------
 Symbolic Z-matrix:
 Charge =  0 Multiplicity = 1

 SCF Done:  E(RB3LYP) =  -385.121399839     A.U. after   14 cycles
 SCF Done:  E(RB3LYP) =  -385.124408297     A.U. after   12 cycles
 SCF Done:  E(RB3LYP) =  -385.125694199     A.U. after   12 cycles
 SCF Done:  E(RB3LYP) =  -385.127455203     A.U. after   12 cycles
 SCF Done:  E(RB3LYP) =  -385.128052055     A.U. after   11 cycles
 SCF Done:  E(RB3LYP) =  -385.128162948     A.U. after   10 cycles
 SCF Done:  E(RB3LYP) =  -385.128172227     A.U. after    8 cycles
 SCF Done:  E(RB3LYP) =  -385.128173224     A.U. after    8 cycles
 SCF Done:  E(RB3LYP) =  -385.128173426     A.U. after    7 cycles
 Optimization completed.
    -- Stationary point found.
 Normal termination of Gaussian 16 at Fri Aug  5 10:27:05 2022.

 ----------------------------------------------------------------------
 #N Geom=AllCheck Guess=TCheck SCRF=Check GenChk RB3LYP/6-31G(2df,p) Fr
 eq
 ----------------------------------------------------------------------

 Structure from the checkpoint file:  "CCpCpC1COC1dO.chk"
 -------------------
 Title Card Required
 -------------------
 Charge =  0 Multiplicity = 1

                         Standard orientation:
 ---------------------------------------------------------------------
 Center     Atomic      Atomic             Coordinates (Angstroms)
 Number     Number       Type             X           Y           Z
 ---------------------------------------------------------------------
      1          6           0       -1.336701   -0.764524    1.272053
      2          6           0       -1.289199   -0.491785   -0.238381
      3          6           0       -2.174838    0.708772   -0.606348
      4          6           0        0.137758   -0.256959   -0.761596
      5          6           0        1.269199   -1.264044   -0.471601
      6          8           0        2.018985   -0.232216    0.248881
      7          6           0        1.031387    0.698415    0.041138
      8          8           0        1.001312    1.823098    0.427905
      9          1           0       -2.364496   -0.967153    1.587665
     10          1           0       -0.979414    0.102382    1.837973
     11          1           0       -0.730598   -1.629273    1.559620
     12          1           0       -1.675598   -1.378199   -0.760351
     13          1           0       -1.786669    1.626379   -0.153157
     14          1           0       -3.198934    0.558634   -0.251259
     15          1           0       -2.212994    0.859256   -1.690405
     16          1           0        0.101062    0.036399   -1.815300
     17          1           0        1.835409   -1.620620   -1.334285
     18          1           0        1.024217   -2.094100    0.193630
 ---------------------------------------------------------------------

 SCF Done:  E(RB3LYP) =  -385.128173426     A.U. after    1 cycles

 The electronic state is 1-A.
 Alpha  occ. eigenvalues --  -19.18000 -19.13409 -10.30584 -10.25321 -10.21283
 Alpha  occ. eigenvalues --  -10.20823 -10.18289 -10.17995  -1.10417  -1.03124
 Alpha  occ. eigenvalues --   -0.82594  -0.74446  -0.69336  -0.67380  -0.60038
 Alpha  occ. eigenvalues --   -0.52859  -0.51588  -0.49297  -0.47625  -0.45336
 Alpha  occ. eigenvalues --   -0.42523  -0.41201  -0.40533  -0.38871  -0.38344
 Alpha  occ. eigenvalues --   -0.36504  -0.34695  -0.34430  -0.32906  -0.30020
 Alpha  occ. eigenvalues --   -0.26968
 Alpha virt. eigenvalues --    0.01002   0.07836   0.08769   0.10302   0.10955
 Alpha virt. eigenvalues --    0.13606   0.14087   0.15006   0.16154   0.16622
 Alpha virt. eigenvalues --    0.18103   0.19152   0.20724   0.21574   0.22318

 Mulliken charges:
               1
     1  C   -0.407690
     2  C    0.009492
     3  C   -0.393428
     4  C   -0.182137
     5  C   -0.112472
     6  O   -0.241455
     7  C    0.464018
     8  O   -0.329438
     9  H    0.118985
    10  H    0.141386
    11  H    0.115350
    12  H    0.081448
    13  H    0.147556
    14  H    0.114044
    15  H    0.111661
    16  H    0.111462
    17  H    0.125015
    18  H    0.126203
 Sum of Mulliken charges =   0.00000

 Dipole moment (field-independent basis, Debye):
    X=             -1.8170    Y=             -3.0353    Z=             -1.6913  Tot=              3.9211
 Quadrupole moment (field-independent basis, Debye-Ang):
   XX=            -50.7888   YY=            -51.1095   ZZ=            -46.6954
   XY=             -3.0415   XZ=             -2.7535   YZ=             -0.8604

  Exact polarizability:  70.459  -3.257  69.918  -0.457   1.433  60.529
 Approx polarizability:  94.337  -4.122 110.186   1.216   6.140  88.603

                      1                      2                      3
                      A                      A                      A
 Frequencies --     74.8809               117.9213               144.8342
 Red. masses --      3.0006                 5.2406                 4.3412
 Frc consts  --      0.0099                 0.0429                 0.0537
 IR Inten    --      1.3279                 0.6031                 4.5274

                      4                      5                      6
                      A                      A                      A
 Frequencies --    229.7566               257.5226               278.5974
 Red. masses --      1.0861                 1.0893                 2.2465
 Frc consts  --      0.0338                 0.0426                 0.1027
 IR Inten    --      0.0157                 0.0216                 0.0689

                      7                      8                      9
                      A                      A                      A
 Frequencies --    348.8867               419.4611               446.2873
 Red. masses --      2.4265                 2.8706                 2.9686
 Frc consts  --      0.1740                 0.2976                 0.3484
 IR Inten    --      0.8679                 0.1398                 0.9093

                     10                     11                     12
                      A                      A                      A
 Frequencies --    515.2253               700.4051               746.0989
 Red. masses --      4.0670                 3.6524                 3.2217
 Frc consts  --      0.6361                 1.0557                 1.0566
 IR Inten    --      3.7171                 4.2121                 3.0453

                     13                     14                     15
                      A                      A                      A
 Frequencies --    789.3728               895.4701               912.6368
 Red. masses --      4.4778                 2.3669                 3.0187
 Frc consts  --      1.6439                 1.1182                 1.4814
 IR Inten    --      1.7504                 0.5998                 5.6347

                     16                     17                     18
                      A                      A                      A
 Frequencies --    931.8365               958.0366               968.4443
 Red. masses --      1.1748                 4.8157                 1.5521
 Frc consts  --      0.6010                 2.6042                 0.8577
 IR Inten    --      1.3218                72.8339                 5.6184

                     19                     20                     21
                      A                      A                      A
 Frequencies --   1025.4166              1078.7885              1103.0648
 Red. masses --      1.6562                 2.1306                 1.6843
 Frc consts  --      1.0260                 1.4609                 1.2075
 IR Inten    --      4.7219                 2.2406                 2.5707

                     22                     23                     24
                      A                      A                      A
 Frequencies --   1117.1199              1156.5815              1170.1298
 Red. masses --      3.9884                 1.2257                 1.7177
 Frc consts  --      2.9326                 0.9660                 1.3857
 IR Inten    --    138.9230                 1.6418                 0.7283

                     25                     26                     27
                      A                      A                      A
 Frequencies --   1208.0410              1229.8535              1307.9940
 Red. masses --      1.8262                 1.6339                 1.3776
 Frc consts  --      1.5702                 1.4561                 1.3886
 IR Inten    --      0.5695                 7.3981                 3.1238

                     28                     29                     30
                      A                      A                      A
 Frequencies --   1340.5850              1351.7968              1380.3412
 Red. masses --      1.7138                 1.4712                 1.4673
 Frc consts  --      1.8147                 1.5839                 1.6471
 IR Inten    --     21.7877                 1.1684                 6.2302

                     31                     32                     33
                      A                      A                      A
 Frequencies --   1404.8566              1426.6044              1488.0620
 Red. masses --      1.2520                 1.2310                 1.0406
 Frc consts  --      1.4559                 1.4761                 1.3577
 IR Inten    --      5.8827                 5.8032                 0.4341

                     34                     35                     36
                      A                      A                      A
 Frequencies --   1495.6831              1503.9528              1513.2974
 Red. masses --      1.0534                 1.0532                 1.0580
 Frc consts  --      1.3884                 1.4036                 1.4276
 IR Inten    --      0.5503                11.0930                 4.8191

                     37                     38                     39
                      A                      A                      A
 Frequencies --   1523.0381              1925.9789              3006.7168
 Red. masses --      1.0840                12.6540                 1.0831
 Frc consts  --      1.4815                27.6554                 5.7693
 IR Inten    --      1.9918               341.0654                23.5727

                     40                     41                     42
                      A                      A                      A
 Frequencies --   3033.2153              3037.3237              3066.9049
 Red. masses --      1.0348                 1.0358                 1.0812
 Frc consts  --      5.6096                 5.6303                 5.9921
 IR Inten    --     27.6127                 8.4031                11.4669

                     43                     44                     45
                      A                      A                      A
 Frequencies --   3074.7435              3101.7001              3105.4822
 Red. masses --      1.0596                 1.1015                 1.1007
 Frc consts  --      5.9020                 6.2437                 6.2542
 IR Inten    --     24.0398                20.6541                38.4758

                     46                     47                     48
                      A                      A                      A
 Frequencies --   3107.6137              3114.8703              3133.0943
 Red. masses --      1.1019                 1.1018                 1.1123
 Frc consts  --      6.2695                 6.2986                 6.4330
 IR Inten    --      9.6240                30.5939                22.8047

 - Thermochemistry -
 -------------------
 Temperature   298.150 Kelvin.  Pressure   1.00000 Atm.
 Atom     1 has atomic number  6 and mass  12.00000

 Molecular mass:   114.06808 amu.
 Principal axes and moments of inertia in atomic units:
                           1         2         3
     Eigenvalues --   595.786451067.802841270.87587
           X            0.99896  -0.04334  -0.01405
           Y            0.04258   0.99784  -0.05004
           Z            0.01619   0.04938   0.99865
 This molecule is an asymmetric top.
 Rotational symmetry number  1.
 Warning -- assumption of classical behavior for rotation
           may cause significant error
 Rotational temperatures (Kelvin)      0.14538     0.08111     0.06815
 Rotational constants (GHZ):           3.02917     1.69014     1.42008
 Zero-point vibrational energy     402355.1 (Joules/Mol)
                                   96.16518 (Kcal/Mol)
 Warning -- explicit consideration of  10 degrees of freedom as
           vibrations may cause significant error
 Vibrational temperatures:    107.74   169.66   208.38   330.57   370.52
          (Kelvin)            400.84   501.97   603.51   642.11   741.29
                             1007.73  1073.47  1135.73  1288.38  1313.08
                             1340.70  1378.40  1393.38  1475.35  1552.14
                             1587.06  1607.29  1664.06  1683.56  1738.10
                             1769.48  1881.91  1928.80  1944.93  1986.00
                             2021.28  2052.57  2140.99  2151.95  2163.85
                             2177.30  2191.31  2771.05  4325.99  4364.12
                             4370.03  4412.59  4423.87  4462.65  4468.10
                             4471.16  4481.60  4507.82

 Zero-point correction=                           0.153249 (Hartree/Particle)
 Thermal correction to Energy=                    0.161575
 Thermal correction to Enthalpy=                  0.162519
 Thermal correction to Gibbs Free Energy=         0.120325
 Sum of electronic and zero-point Energies=           -384.974924
 Sum of electronic and thermal Energies=              -384.966599
 Sum of electronic and thermal Enthalpies=            -384.965655
 Sum of electronic and thermal Free Energies=         -385.007848

                     E (Thermal)             CV                S
                      KCal/Mol        Cal/Mol-Kelvin    Cal/Mol-Kelvin
 Total                  101.390             30.282             88.803
 Electronic               0.000              0.000              0.000
 Translational            0.889              2.981             40.110
 Rotational               0.889              2.981             28.182
 Vibrational             99.612             24.320             20.511
 Vibration     1          0.599              1.966              4.021
 Vibration     2          0.608              1.934              3.134
 Vibration     3          0.616              1.908              2.739
 Vibration     4          0.652              1.796              1.881
 Vibration     5          0.667              1.750              1.679
 Vibration     6          0.679              1.713              1.542
 Vibration     7          0.726              1.578              1.171
 Vibration     8          0.782              1.428              0.894
 Vibration     9          0.806              1.369              0.807
 Vibration    10          0.870              1.216              0.621

 Optimization completed.
    -- Stationary point found.
 Normal termination of Gaussian 16 at Fri Aug  5 10:50:30 2022.
