 Gaussian 16, Revision A.03,
 Gaussian 16:  ES64L-G16RevA.03 25-Dec-2016

 -----------------------------
 # opt freq b3lyp/6-31g(2df,p)
 -----------------------------

 -------------------
 Title Card Required
 -------------------
 Symbolic Z-matrix:
 Charge =  0 Multiplicity = 1

 SCF Done:  E(RB3LYP) =  -363.947423252     A.U. after   15 cycles
 SCF Done:  E(RB3LYP) =  -363.973157977     A.U. after   12 cycles
 SCF Done:  E(RB3LYP) =  -363.973687017     A.U. after   13 cycles
 SCF Done:  E(RB3LYP) =  -363.971120584     A.U. after   14 cycles
 SCF Done:  E(RB3LYP) =  -363.975432152     A.U. after   12 cycles
 SCF Done:  E(RB3LYP) =  -363.975648188     A.U. after   13 cycles
 SCF Done:  E(RB3LYP) =  -363.975669960     A.U. after   13 cycles
 SCF Done:  E(RB3LYP) =  -363.975986750     A.U. after   13 cycles
 SCF Done:  E(RB3LYP) =  -363.976746868     A.U. after   13 cycles
 SCF Done:  E(RB3LYP) =  -363.976846642     A.U. after   13 cycles
 SCF Done:  E(RB3LYP) =  -363.978690623     A.U. after   13 cycles
 SCF Done:  E(RB3LYP) =  -363.978811122     A.U. after   13 cycles
 SCF Done:  E(RB3LYP) =  -363.978830418     A.U. after   12 cycles
 SCF Done:  E(RB3LYP) =  -363.978834722     A.U. after   11 cycles
 SCF Done:  E(RB3LYP) =  -363.978836549     A.U. after   10 cycles
 SCF Done:  E(RB3LYP) =  -363.978837112     A.U. after    8 cycles
 SCF Done:  E(RB3LYP) =  -363.978837498     A.U. after    8 cycles
 SCF Done:  E(RB3LYP) =  -363.978837538     A.U. after    7 cycles
 SCF Done:  E(RB3LYP) =  -363.978837552     A.U. after    7 cycles
 Optimization completed.
    -- Stationary point found.
 Normal termination of Gaussian 16 at Sun Jul  3 16:16:05 2022.

 ----------------------------------------------------------------------
 #N Geom=AllCheck Guess=TCheck SCRF=Check GenChk RB3LYP/6-31G(2df,p) Fr
 eq
 ----------------------------------------------------------------------

 Structure from the checkpoint file:  "CCpCdOpCCtCN.chk"
 -------------------
 Title Card Required
 -------------------
 Charge =  0 Multiplicity = 1

                         Standard orientation:
 ---------------------------------------------------------------------
 Center     Atomic      Atomic             Coordinates (Angstroms)
 Number     Number       Type             X           Y           Z
 ---------------------------------------------------------------------
      1          6           0       -2.470042   -1.084521   -0.213216
      2          6           0       -1.127996   -0.374319   -0.379384
      3          6           0       -1.223651    1.106341   -0.061317
      4          8           0       -2.247953    1.684236    0.205922
      5          6           0       -0.002218   -1.034964    0.468664
      6          6           0        1.336845   -0.505718    0.234283
      7          6           0        2.443682   -0.073547    0.028048
      8          7           0        3.658910    0.452656   -0.251511
      9          1           0       -3.247958   -0.584830   -0.794450
     10          1           0       -2.790228   -1.072801    0.833499
     11          1           0       -2.401996   -2.126593   -0.539729
     12          1           0       -0.798648   -0.428435   -1.428324
     13          1           0       -0.251505    1.644276   -0.091224
     14          1           0       -0.009657   -2.110787    0.252196
     15          1           0       -0.262420   -0.948170    1.532664
     16          1           0        4.330836   -0.212168   -0.613817
     17          1           0        4.063113    0.997403    0.499918
 ---------------------------------------------------------------------

 SCF Done:  E(RB3LYP) =  -363.978837552     A.U. after    1 cycles

 The electronic state is 1-A.
 Alpha  occ. eigenvalues --  -19.13221 -14.36043 -10.26003 -10.21159 -10.19959
 Alpha  occ. eigenvalues --  -10.19817 -10.17515 -10.16574  -1.03812  -0.92272
 Alpha  occ. eigenvalues --   -0.81638  -0.74079  -0.68308  -0.64875  -0.55317
 Alpha  occ. eigenvalues --   -0.54053  -0.52307  -0.48822  -0.47297  -0.44763
 Alpha  occ. eigenvalues --   -0.41817  -0.40328  -0.37570  -0.37165  -0.36503
 Alpha  occ. eigenvalues --   -0.35257  -0.33873  -0.26169  -0.24168  -0.21350
 Alpha virt. eigenvalues --   -0.01420   0.05590   0.06361   0.08281   0.11110
 Alpha virt. eigenvalues --    0.12936   0.14387   0.14671   0.15310   0.16979
 Alpha virt. eigenvalues --    0.18399   0.19889   0.22069   0.22730   0.24907

 Mulliken charges:
               1
     1  C   -0.396682
     2  C   -0.068910
     3  C    0.155885
     4  O   -0.250641
     5  C   -0.385982
     6  C    0.444681
     7  C   -0.230277
     8  N   -0.620106
     9  H    0.131981
    10  H    0.125048
    11  H    0.108728
    12  H    0.106452
    13  H    0.091941
    14  H    0.131011
    15  H    0.130357
    16  H    0.262951
    17  H    0.263563
 Sum of Mulliken charges =  -0.00000

 Dipole moment (field-independent basis, Debye):
    X=              3.3943    Y=             -1.9437    Z=              0.0175  Tot=              3.9114
 Quadrupole moment (field-independent basis, Debye-Ang):
   XX=            -39.9439   YY=            -50.0768   ZZ=            -46.8138
   XY=              5.7273   XZ=              2.5931   YZ=              0.8549

  Exact polarizability: 106.077   8.824  64.744  -4.646   0.578  50.902
 Approx polarizability: 148.162  13.043  95.137 -12.842   0.676  78.657

                      1                      2                      3
                      A                      A                      A
 Frequencies --     60.7193                79.5713                85.0437
 Red. masses --      3.8830                 2.3699                 1.7791
 Frc consts  --      0.0084                 0.0088                 0.0076
 IR Inten    --      0.6048                 2.7414                11.2829

                      4                      5                      6
                      A                      A                      A
 Frequencies --     99.1196               191.8464               230.5347
 Red. masses --      1.7596                 1.1067                 3.0647
 Frc consts  --      0.0102                 0.0240                 0.0960
 IR Inten    --     17.3525                 0.8056                12.7937

                      7                      8                      9
                      A                      A                      A
 Frequencies --    254.9477               284.5548               362.8299
 Red. masses --      3.3722                 2.9018                 2.9323
 Frc consts  --      0.1291                 0.1384                 0.2274
 IR Inten    --     12.7388                 2.3483                 2.5047

                     10                     11                     12
                      A                      A                      A
 Frequencies --    396.2334               420.9789               482.6579
 Red. masses --      2.7062                 4.3035                 5.3976
 Frc consts  --      0.2503                 0.4494                 0.7409
 IR Inten    --      6.1646                 0.2357                15.8214

                     13                     14                     15
                      A                      A                      A
 Frequencies --    638.0165               649.0933               786.2183
 Red. masses --      1.5556                 3.3923                 3.2543
 Frc consts  --      0.3731                 0.8421                 1.1852
 IR Inten    --    212.1240                18.6333                 7.7655

                     16                     17                     18
                      A                      A                      A
 Frequencies --    817.5387               868.9914               923.1591
 Red. masses --      3.1058                 1.5412                 1.5347
 Frc consts  --      1.2230                 0.6857                 0.7706
 IR Inten    --      9.8070                 7.6323                 9.9976

                     19                     20                     21
                      A                      A                      A
 Frequencies --    955.2761              1102.9622              1125.5452
 Red. masses --      1.6485                 1.7612                 1.9948
 Frc consts  --      0.8864                 1.2623                 1.4890
 IR Inten    --      9.0081                 1.3687                 3.8357

                     22                     23                     24
                      A                      A                      A
 Frequencies --   1135.0683              1197.3072              1216.3743
 Red. masses --      2.2721                 1.2672                 1.3059
 Frc consts  --      1.7247                 1.0703                 1.1384
 IR Inten    --      6.6606                 0.0246                 0.1182

                     25                     26                     27
                      A                      A                      A
 Frequencies --   1259.7666              1295.2557              1335.1373
 Red. masses --      2.3862                 1.3901                 1.4784
 Frc consts  --      2.2312                 1.3740                 1.5528
 IR Inten    --     38.9500                 0.9921                 5.3950

                     28                     29                     30
                      A                      A                      A
 Frequencies --   1374.1804              1405.4979              1424.6160
 Red. masses --      1.8639                 1.1954                 1.2355
 Frc consts  --      2.0737                 1.3913                 1.4773
 IR Inten    --      4.9231                 0.3778                14.1632

                     31                     32                     33
                      A                      A                      A
 Frequencies --   1468.3819              1489.8951              1495.3945
 Red. masses --      1.0850                 1.0423                 1.0553
 Frc consts  --      1.3783                 1.3632                 1.3904
 IR Inten    --      1.8501                 6.6181                 5.0554

                     34                     35                     36
                      A                      A                      A
 Frequencies --   1640.5790              1822.5085              2380.4931
 Red. masses --      1.1048                10.2362                11.5870
 Frc consts  --      1.7520                20.0322                38.6862
 IR Inten    --     16.7893               166.0295               119.4305

                     37                     38                     39
                      A                      A                      A
 Frequencies --   2905.0164              2998.0617              3012.0477
 Red. masses --      1.0834                 1.0790                 1.0622
 Frc consts  --      5.3868                 5.7141                 5.6777
 IR Inten    --     84.3181                 2.8022                31.9116

                     40                     41                     42
                      A                      A                      A
 Frequencies --   3043.3417              3044.6618              3109.5200
 Red. masses --      1.0466                 1.0888                 1.1017
 Frc consts  --      5.7111                 5.9468                 6.2762
 IR Inten    --     17.0320                16.4679                23.0749

                     43                     44                     45
                      A                      A                      A
 Frequencies --   3129.2605              3526.5660              3608.1862
 Red. masses --      1.1004                 1.0459                 1.0971
 Frc consts  --      6.3485                 7.6636                 8.4152
 IR Inten    --     14.9835                15.5128                23.1677

 - Thermochemistry -
 -------------------
 Temperature   298.150 Kelvin.  Pressure   1.00000 Atm.
 Atom     1 has atomic number  6 and mass  12.00000

 Molecular mass:   111.06841 amu.
 Principal axes and moments of inertia in atomic units:
                           1         2         3
     Eigenvalues --   440.806571938.388192279.65840
           X            0.99949   0.03165   0.00322
           Y           -0.03164   0.99950  -0.00120
           Z           -0.00326   0.00110   0.99999
 This molecule is an asymmetric top.
 Rotational symmetry number  1.
 Warning -- assumption of classical behavior for rotation
           may cause significant error
 Rotational temperatures (Kelvin)      0.19649     0.04468     0.03799
 Rotational constants (GHZ):           4.09418     0.93105     0.79167
 Zero-point vibrational energy     365656.3 (Joules/Mol)
                                   87.39395 (Kcal/Mol)
 Warning -- explicit consideration of  12 degrees of freedom as
           vibrations may cause significant error
 Vibrational temperatures:     87.36   114.49   122.36   142.61   276.02
          (Kelvin)            331.69   366.81   409.41   522.03   570.09
                              605.69   694.44   917.96   933.90  1131.19
                             1176.26  1250.28  1328.22  1374.43  1586.92
                             1619.41  1633.11  1722.66  1750.09  1812.52
                             1863.58  1920.96  1977.14  2022.20  2049.70
                             2112.67  2143.63  2151.54  2360.43  2622.18
                             3425.00  4179.67  4313.54  4333.66  4378.69
                             4380.59  4473.91  4502.31  5073.94  5191.38

 Zero-point correction=                           0.139271 (Hartree/Particle)
 Thermal correction to Energy=                    0.149148
 Thermal correction to Enthalpy=                  0.150092
 Thermal correction to Gibbs Free Energy=         0.103702
 Sum of electronic and zero-point Energies=           -363.839566
 Sum of electronic and thermal Energies=              -363.829689
 Sum of electronic and thermal Enthalpies=            -363.828745
 Sum of electronic and thermal Free Energies=         -363.875136

                     E (Thermal)             CV                S
                      KCal/Mol        Cal/Mol-Kelvin    Cal/Mol-Kelvin
 Total                   93.592             33.536             97.638
 Electronic               0.000              0.000              0.000
 Translational            0.889              2.981             40.031
 Rotational               0.889              2.981             29.056
 Vibrational             91.814             27.574             28.551
 Vibration     1          0.597              1.973              4.434
 Vibration     2          0.600              1.963              3.901
 Vibration     3          0.601              1.960              3.771
 Vibration     4          0.604              1.950              3.472
 Vibration     5          0.634              1.851              2.210
 Vibration     6          0.652              1.794              1.875
 Vibration     7          0.665              1.754              1.696
 Vibration     8          0.683              1.702              1.506
 Vibration     9          0.737              1.549              1.110
 Vibration    10          0.763              1.478              0.977
 Vibration    11          0.783              1.425              0.889
 Vibration    12          0.839              1.289              0.703

 Optimization completed.
    -- Stationary point found.
 Normal termination of Gaussian 16 at Sun Jul  3 16:35:23 2022.
