 Gaussian 16, Revision A.03,
 Gaussian 16:  ES64L-G16RevA.03 25-Dec-2016

 -----------------------------
 # opt freq b3lyp/6-31g(2df,p)
 -----------------------------

 -------------------
 Title Card Required
 -------------------
 Symbolic Z-matrix:
 Charge =  0 Multiplicity = 1

 SCF Done:  E(RB3LYP) =  -361.532832801     A.U. after   15 cycles
 SCF Done:  E(RB3LYP) =  -361.553976011     A.U. after   15 cycles
 SCF Done:  E(RB3LYP) =  -361.545787168     A.U. after   16 cycles
 SCF Done:  E(RB3LYP) =  -361.552304608     A.U. after   14 cycles
 SCF Done:  E(RB3LYP) =  -361.554739117     A.U. after   10 cycles
 SCF Done:  E(RB3LYP) =  -361.554876105     A.U. after   13 cycles
 SCF Done:  E(RB3LYP) =  -361.554883325     A.U. after   10 cycles
 SCF Done:  E(RB3LYP) =  -361.554882074     A.U. after    9 cycles
 SCF Done:  E(RB3LYP) =  -361.554873918     A.U. after   11 cycles
 SCF Done:  E(RB3LYP) =  -361.554883138     A.U. after   10 cycles
 SCF Done:  E(RB3LYP) =  -361.554883754     A.U. after    9 cycles
 Optimization completed.
    -- Stationary point found.
 Normal termination of Gaussian 16 at Sun Jul  3 12:59:25 2022.

 ----------------------------------------------------------------------
 #N Geom=AllCheck Guess=TCheck SCRF=Check GenChk RB3LYP/6-31G(2df,p) Fr
 eq
 ----------------------------------------------------------------------

 Structure from the checkpoint file:  "CCpCtCCtNpdCO.chk"
 -------------------
 Title Card Required
 -------------------
 Charge =  0 Multiplicity = 1

                         Standard orientation:
 ---------------------------------------------------------------------
 Center     Atomic      Atomic             Coordinates (Angstroms)
 Number     Number       Type             X           Y           Z
 ---------------------------------------------------------------------
      1          6           0        1.890796   -1.801616   -0.000005
      2          6           0        1.244474   -0.424945    0.000000
      3          6           0       -0.158254   -0.308821    0.000008
      4          6           0       -1.368312   -0.181717    0.000025
      5          6           0       -2.723034   -0.050660    0.000003
      6          7           0       -3.880614    0.067283   -0.000017
      7          6           0        1.983424    0.709881   -0.000005
      8          8           0        1.521604    1.965923   -0.000001
      9          1           0        1.125275   -2.579197    0.000006
     10          1           0        2.515521   -1.951485    0.885862
     11          1           0        2.515500   -1.951489   -0.885887
     12          1           0        3.068528    0.681810   -0.000012
     13          1           0        0.552075    1.949265    0.000005
 ---------------------------------------------------------------------

 SCF Done:  E(RB3LYP) =  -361.554883754     A.U. after    1 cycles

 The electronic state is 1-A.
 Alpha  occ. eigenvalues --  -19.20680 -14.34135 -10.27848 -10.23878 -10.23499
 Alpha  occ. eigenvalues --  -10.22725 -10.22642 -10.20803  -1.09752  -0.91113
 Alpha  occ. eigenvalues --   -0.84441  -0.78521  -0.71054  -0.68227  -0.62989
 Alpha  occ. eigenvalues --   -0.56422  -0.50043  -0.45041  -0.43417  -0.41785
 Alpha  occ. eigenvalues --   -0.41513  -0.38982  -0.38873  -0.38395  -0.37056
 Alpha  occ. eigenvalues --   -0.32076  -0.29271  -0.23622
 Alpha virt. eigenvalues --   -0.06309  -0.04547   0.03828   0.06934   0.09946
 Alpha virt. eigenvalues --    0.11597   0.12647   0.15999   0.16988   0.18357
 Alpha virt. eigenvalues --    0.20049   0.20158   0.22471   0.27066   0.32257

 Mulliken charges:
               1
     1  C   -0.491435
     2  C   -0.028164
     3  C   -0.004909
     4  C    0.096256
     5  C    0.184194
     6  N   -0.340958
     7  C    0.060094
     8  O   -0.364528
     9  H    0.146657
    10  H    0.142993
    11  H    0.142993
    12  H    0.145814
    13  H    0.310994
 Sum of Mulliken charges =  -0.00000

 Dipole moment (field-independent basis, Debye):
    X=              4.9135    Y=             -0.6027    Z=              0.0000  Tot=              4.9503
 Quadrupole moment (field-independent basis, Debye-Ang):
   XX=            -58.7596   YY=            -43.9497   ZZ=            -45.9804
   XY=             -2.5571   XZ=             -0.0002   YZ=              0.0000

  Exact polarizability: 141.784   2.483  63.838  -0.000  -0.000  37.094
 Approx polarizability: 272.855  12.939  98.370  -0.000  -0.000  55.536

 ******    1 imaginary frequencies (negative Signs) ******

                      1                      2                      3
                      A                      A                      A
 Frequencies --   -173.8726                71.5422               112.1680
 Red. masses --      1.0297                 6.6260                 6.5513
 Frc consts  --      0.0183                 0.0200                 0.0486
 IR Inten    --      0.0721                 2.1717                 1.5870

                      4                      5                      6
                      A                      A                      A
 Frequencies --    199.5723               263.2181               267.5088
 Red. masses --      8.8220                 2.7221                 3.5975
 Frc consts  --      0.2070                 0.1111                 0.1517
 IR Inten    --      0.1808                 4.6505                 3.8424

                      7                      8                      9
                      A                      A                      A
 Frequencies --    300.9583               463.0613               528.5450
 Red. masses --      3.6273                 6.1919                 2.9332
 Frc consts  --      0.1936                 0.7823                 0.4828
 IR Inten    --      0.0145                 7.6643                34.5049

                     10                     11                     12
                      A                      A                      A
 Frequencies --    566.3668               575.7105               599.9001
 Red. masses --      2.9547                 9.9158                 5.0758
 Frc consts  --      0.5584                 1.9364                 1.0763
 IR Inten    --     12.7143                 2.0821                 3.0006

                     13                     14                     15
                      A                      A                      A
 Frequencies --    641.6472               653.5231               938.2242
 Red. masses --      3.1027                 5.0762                 1.3028
 Frc consts  --      0.7526                 1.2774                 0.6757
 IR Inten    --     49.7679                 0.2787                12.3052

                     16                     17                     18
                      A                      A                      A
 Frequencies --    987.7050              1050.3424              1058.1251
 Red. masses --      2.3116                 2.2491                 1.3963
 Frc consts  --      1.3287                 1.4619                 0.9211
 IR Inten    --     21.4619                 4.7970                 2.4987

                     19                     20                     21
                      A                      A                      A
 Frequencies --   1208.3436              1243.6128              1381.3639
 Red. masses --      3.0651                 2.0619                 1.8472
 Frc consts  --      2.6368                 1.8788                 2.0768
 IR Inten    --    237.4956                10.4370                 4.7702

                     22                     23                     24
                      A                      A                      A
 Frequencies --   1404.0037              1413.6882              1491.6049
 Red. masses --      1.6983                 1.2847                 1.0424
 Frc consts  --      1.9724                 1.5127                 1.3665
 IR Inten    --      6.0116                 0.6383                 5.3730

                     25                     26                     27
                      A                      A                      A
 Frequencies --   1495.6179              1656.4104              2234.7078
 Red. masses --      1.0811                 4.9707                12.2926
 Frc consts  --      1.4249                 8.0353                36.1688
 IR Inten    --      0.6322               287.6614                28.9667

                     28                     29                     30
                      A                      A                      A
 Frequencies --   2359.9766              3043.3720              3102.7231
 Red. masses --     12.2851                 1.0373                 1.1022
 Frc consts  --     40.3131                 5.6607                 6.2518
 IR Inten    --    251.3955                24.5703                13.5030

                     31                     32                     33
                      A                      A                      A
 Frequencies --   3137.5088              3196.1354              3718.9281
 Red. masses --      1.0992                 1.0917                 1.0646
 Frc consts  --      6.3755                 6.5704                 8.6747
 IR Inten    --      6.1118                 4.0692                27.1614

 - Thermochemistry -
 -------------------
 Temperature   298.150 Kelvin.  Pressure   1.00000 Atm.
 Atom     1 has atomic number  6 and mass  12.00000

 Molecular mass:   107.03711 amu.
 Principal axes and moments of inertia in atomic units:
                           1         2         3
     Eigenvalues --   465.938011761.034212215.67460
           X            0.99963  -0.02705  -0.00000
           Y            0.02705   0.99963   0.00000
           Z            0.00000  -0.00000   1.00000
 This molecule is an asymmetric top.
 Rotational symmetry number  1.
 Warning -- assumption of classical behavior for rotation
           may cause significant error
 Rotational temperatures (Kelvin)      0.18589     0.04918     0.03909
 Rotational constants (GHZ):           3.87335     1.02482     0.81453
    1 imaginary frequencies ignored.
 Zero-point vibrational energy     247424.3 (Joules/Mol)
                                   59.13583 (Kcal/Mol)
 Warning -- explicit consideration of  11 degrees of freedom as
           vibrations may cause significant error
 Vibrational temperatures:    102.93   161.38   287.14   378.71   384.89
          (Kelvin)            433.01   666.24   760.46   814.88   828.32
                              863.12   923.19   940.27  1349.90  1421.09
                             1511.21  1522.41  1738.54  1789.28  1987.47
                             2020.05  2033.98  2146.09  2151.86  2383.21
                             3215.25  3395.48  4378.73  4464.13  4514.18
                             4598.53  5350.71

 Zero-point correction=                           0.094239 (Hartree/Particle)
 Thermal correction to Energy=                    0.101936
 Thermal correction to Enthalpy=                  0.102881
 Thermal correction to Gibbs Free Energy=         0.061482
 Sum of electronic and zero-point Energies=           -361.460645
 Sum of electronic and thermal Energies=              -361.452947
 Sum of electronic and thermal Enthalpies=            -361.452003
 Sum of electronic and thermal Free Energies=         -361.493402

                     E (Thermal)             CV                S
                      KCal/Mol        Cal/Mol-Kelvin    Cal/Mol-Kelvin
 Total                   63.966             26.842             87.131
 Electronic               0.000              0.000              0.000
 Translational            0.889              2.981             39.921
 Rotational               0.889              2.981             28.988
 Vibrational             62.189             20.881             18.222
 Vibration     1          0.598              1.968              4.110
 Vibration     2          0.607              1.939              3.231
 Vibration     3          0.638              1.840              2.137
 Vibration     4          0.670              1.740              1.640
 Vibration     5          0.673              1.733              1.612
 Vibration     6          0.693              1.672              1.412
 Vibration     7          0.821              1.332              0.757
 Vibration     8          0.884              1.187              0.590
 Vibration     9          0.922              1.104              0.511
 Vibration    10          0.932              1.084              0.493
 Vibration    11          0.958              1.032              0.450

 Optimization completed.
    -- Stationary point found.
 Normal termination of Gaussian 16 at Sun Jul  3 13:13:19 2022.
