 Gaussian 16, Revision A.03,
 Gaussian 16:  ES64L-G16RevA.03 25-Dec-2016

 -----------------------------
 # opt freq b3lyp/6-31g(2df,p)
 -----------------------------

 -------------------
 Title Card Required
 -------------------
 Symbolic Z-matrix:
 Charge =  0 Multiplicity = 1

 SCF Done:  E(RB3LYP) =  -421.791921401     A.U. after   13 cycles
 SCF Done:  E(RB3LYP) =  -421.803338214     A.U. after   12 cycles
 SCF Done:  E(RB3LYP) =  -421.807589857     A.U. after   11 cycles
 SCF Done:  E(RB3LYP) =  -421.809478341     A.U. after   12 cycles
 SCF Done:  E(RB3LYP) =  -421.810924203     A.U. after   11 cycles
 SCF Done:  E(RB3LYP) =  -421.812917409     A.U. after   12 cycles
 SCF Done:  E(RB3LYP) =  -421.813507537     A.U. after   11 cycles
 SCF Done:  E(RB3LYP) =  -421.815017526     A.U. after   13 cycles
 SCF Done:  E(RB3LYP) =  -421.816693854     A.U. after   11 cycles
 SCF Done:  E(RB3LYP) =  -421.818618571     A.U. after   12 cycles
 SCF Done:  E(RB3LYP) =  -421.819970228     A.U. after   10 cycles
 SCF Done:  E(RB3LYP) =  -421.820012311     A.U. after   11 cycles
 SCF Done:  E(RB3LYP) =  -421.820030898     A.U. after   10 cycles
 SCF Done:  E(RB3LYP) =  -421.820042229     A.U. after   10 cycles
 SCF Done:  E(RB3LYP) =  -421.820044036     A.U. after    9 cycles
 SCF Done:  E(RB3LYP) =  -421.820044389     A.U. after    7 cycles
 SCF Done:  E(RB3LYP) =  -421.820044443     A.U. after    7 cycles
 SCF Done:  E(RB3LYP) =  -421.820044451     A.U. after    7 cycles
 SCF Done:  E(RB3LYP) =  -421.820044460     A.U. after    7 cycles
 Optimization completed.
    -- Stationary point found.
 Normal termination of Gaussian 16 at Thu Aug  4 01:21:25 2022.

 ----------------------------------------------------------------------
 #N Geom=AllCheck Guess=TCheck SCRF=Check GenChk RB3LYP/6-31G(2df,p) Fr
 eq
 ----------------------------------------------------------------------

 Structure from the checkpoint file:  "CCpCpOCpCpNCdN.chk"
 -------------------
 Title Card Required
 -------------------
 Charge =  0 Multiplicity = 1

                         Standard orientation:
 ---------------------------------------------------------------------
 Center     Atomic      Atomic             Coordinates (Angstroms)
 Number     Number       Type             X           Y           Z
 ---------------------------------------------------------------------
      1          6           0        2.384623   -0.961868   -1.134298
      2          6           0        1.439900   -0.570984   -0.003247
      3          6           0        2.162771   -0.455482    1.340938
      4          8           0        0.855740    0.680981   -0.379481
      5          6           0       -0.391369    1.000216    0.207481
      6          6           0       -0.631569    2.475665   -0.090653
      7          7           0       -1.470626    0.178065   -0.293723
      8          6           0       -2.062344   -0.853156    0.394092
      9          7           0       -2.932012   -1.697413   -0.001034
     10          1           0        2.866059   -1.921012   -0.921957
     11          1           0        3.163909   -0.202908   -1.257432
     12          1           0        1.838263   -1.046675   -2.077296
     13          1           0        0.647564   -1.329332    0.072695
     14          1           0        2.961048    0.290882    1.278668
     15          1           0        2.606413   -1.416267    1.620846
     16          1           0        1.482407   -0.160882    2.145934
     17          1           0       -0.364461    0.836224    1.294237
     18          1           0       -0.672235    2.635893   -1.172918
     19          1           0        0.187711    3.077441    0.308791
     20          1           0       -1.574412    2.805799    0.351283
     21          1           0       -1.683725    0.267216   -1.277786
     22          1           0       -1.723114   -0.905972    1.432599
     23          1           0       -3.174960   -1.549166   -0.984395
 ---------------------------------------------------------------------

 SCF Done:  E(RB3LYP) =  -421.820044460     A.U. after    1 cycles

 The electronic state is 1-A.
 Alpha  occ. eigenvalues --  -19.14115 -14.34963 -14.28519 -10.27475 -10.24586
 Alpha  occ. eigenvalues --  -10.23580 -10.18492 -10.17855 -10.17584  -1.04226
 Alpha  occ. eigenvalues --   -0.94471  -0.85566  -0.78678  -0.73788  -0.69218
 Alpha  occ. eigenvalues --   -0.63021  -0.62503  -0.58710  -0.52216  -0.51611
 Alpha  occ. eigenvalues --   -0.48302  -0.46015  -0.43336  -0.41336  -0.41083
 Alpha  occ. eigenvalues --   -0.40600  -0.39032  -0.38447  -0.37784  -0.36039
 Alpha  occ. eigenvalues --   -0.35345  -0.34872  -0.31382  -0.27571  -0.25328
 Alpha  occ. eigenvalues --   -0.23018
 Alpha virt. eigenvalues --    0.04013   0.07116   0.08470   0.10934   0.12043
 Alpha virt. eigenvalues --    0.12599   0.14208   0.15010   0.15478   0.15953
 Alpha virt. eigenvalues --    0.16255   0.17033   0.17972   0.18898   0.19439

 Mulliken charges:
               1
     1  C   -0.386578
     2  C    0.138132
     3  C   -0.389374
     4  O   -0.259091
     5  C    0.116339
     6  C   -0.397814
     7  N   -0.254014
     8  C    0.134933
     9  N   -0.498155
    10  H    0.115027
    11  H    0.122685
    12  H    0.117728
    13  H    0.085583
    14  H    0.122687
    15  H    0.118271
    16  H    0.113066
    17  H    0.082551
    18  H    0.123661
    19  H    0.130481
    20  H    0.124646
    21  H    0.234276
    22  H    0.108718
    23  H    0.196244
 Sum of Mulliken charges =  -0.00000

 Dipole moment (field-independent basis, Debye):
    X=              1.7471    Y=              1.8717    Z=             -0.5245  Tot=              2.6136
 Quadrupole moment (field-independent basis, Debye-Ang):
   XX=            -63.8650   YY=            -60.7335   ZZ=            -52.8589
   XY=             -9.0013   XZ=              4.9433   YZ=              1.8067

  Exact polarizability:  94.155   7.199  86.637   3.634   0.326  76.806
 Approx polarizability: 122.685  17.176 122.875   4.451  -1.504 112.726

                      1                      2                      3
                      A                      A                      A
 Frequencies --     35.5898                39.6194                99.2339
 Red. masses --      2.7908                 5.4266                 3.1574
 Frc consts  --      0.0021                 0.0050                 0.0183
 IR Inten    --      0.7643                 1.0189                 2.0143

                      4                      5                      6
                      A                      A                      A
 Frequencies --    152.3621               175.4083               208.3342
 Red. masses --      1.6431                 2.7702                 1.0407
 Frc consts  --      0.0225                 0.0502                 0.0266
 IR Inten    --     11.0253                 0.9041                 0.1493

                      7                      8                      9
                      A                      A                      A
 Frequencies --    217.0644               245.2407               264.3852
 Red. masses --      1.1977                 1.1407                 2.2864
 Frc consts  --      0.0332                 0.0404                 0.0942
 IR Inten    --      2.0349                 0.5630                 6.9108

                     10                     11                     12
                      A                      A                      A
 Frequencies --    299.7670               373.6364               416.6975
 Red. masses --      2.4875                 2.8208                 2.3987
 Frc consts  --      0.1317                 0.2320                 0.2454
 IR Inten    --      0.2162                 2.4298                 4.2833

                     13                     14                     15
                      A                      A                      A
 Frequencies --    428.1883               487.3028               527.3631
 Red. masses --      3.1151                 1.4051                 2.6170
 Frc consts  --      0.3365                 0.1966                 0.4288
 IR Inten    --      8.2778                42.7142                14.2201

                     16                     17                     18
                      A                      A                      A
 Frequencies --    552.2529               594.5560               817.6314
 Red. masses --      2.8177                 3.1505                 2.2506
 Frc consts  --      0.5063                 0.6562                 0.8865
 IR Inten    --     13.3902                18.6510                 6.9141

                     19                     20                     21
                      A                      A                      A
 Frequencies --    829.1302               887.9760               924.3238
 Red. masses --      1.9246                 2.1393                 1.5858
 Frc consts  --      0.7795                 0.9938                 0.7983
 IR Inten    --     35.7591                 6.3303                12.5440

                     22                     23                     24
                      A                      A                      A
 Frequencies --    928.1857               944.9368              1010.1819
 Red. masses --      1.3302                 1.4134                 2.6442
 Frc consts  --      0.6752                 0.7436                 1.5898
 IR Inten    --      2.3257                 1.3144                96.1236

                     25                     26                     27
                      A                      A                      A
 Frequencies --   1085.6285              1098.7350              1112.1421
 Red. masses --      1.1258                 3.2198                 2.0441
 Frc consts  --      0.7817                 2.2902                 1.4896
 IR Inten    --     36.0251               140.1252               121.0507

                     28                     29                     30
                      A                      A                      A
 Frequencies --   1134.7625              1146.7210              1171.5522
 Red. masses --      1.6551                 1.9607                 2.4428
 Frc consts  --      1.2557                 1.5191                 1.9754
 IR Inten    --     94.5056                19.3237                18.0390

                     31                     32                     33
                      A                      A                      A
 Frequencies --   1185.3290              1205.1936              1296.7186
 Red. masses --      2.3544                 2.0464                 1.9875
 Frc consts  --      1.9490                 1.7513                 1.9690
 IR Inten    --     59.5806                14.1246               126.0475

                     34                     35                     36
                      A                      A                      A
 Frequencies --   1342.4510              1358.7409              1369.9591
 Red. masses --      1.2583                 1.2830                 1.3164
 Frc consts  --      1.3361                 1.3956                 1.4557
 IR Inten    --     41.1515                67.3560                 6.0758

                     37                     38                     39
                      A                      A                      A
 Frequencies --   1392.7927              1402.3911              1411.8678
 Red. masses --      1.2494                 1.3087                 1.3169
 Frc consts  --      1.4279                 1.5164                 1.5466
 IR Inten    --      4.2416                14.6132                17.1441

                     40                     41                     42
                      A                      A                      A
 Frequencies --   1416.6903              1433.2209              1474.2405
 Red. masses --      1.3043                 1.1964                 1.2951
 Frc consts  --      1.5424                 1.4479                 1.6584
 IR Inten    --      7.5637                 2.4296                24.9386

                     43                     44                     45
                      A                      A                      A
 Frequencies --   1481.1521              1483.4602              1484.6391
 Red. masses --      1.0550                 1.0559                 1.0504
 Frc consts  --      1.3637                 1.3690                 1.3641
 IR Inten    --      3.3595                 5.6439                 0.0746

                     46                     47                     48
                      A                      A                      A
 Frequencies --   1495.0226              1501.1052              1509.2334
 Red. masses --      1.0532                 1.1385                 1.0650
 Frc consts  --      1.3869                 1.5114                 1.4293
 IR Inten    --      3.3598                 5.1763                 1.6213

                     49                     50                     51
                      A                      A                      A
 Frequencies --   1724.2683              3003.4491              3010.0507
 Red. masses --      6.0048                 1.0818                 1.0831
 Frc consts  --     10.5186                 5.7495                 5.7816
 IR Inten    --    371.3236                19.8425                18.3409

                     52                     53                     54
                      A                      A                      A
 Frequencies --   3035.7616              3041.7363              3047.4970
 Red. masses --      1.0352                 1.0352                 1.0359
 Frc consts  --      5.6209                 5.6431                 5.6681
 IR Inten    --     20.4670                13.0751                13.0974

                     55                     56                     57
                      A                      A                      A
 Frequencies --   3097.3229              3105.2543              3109.6585
 Red. masses --      1.0869                 1.1007                 1.1023
 Frc consts  --      6.1436                 6.2533                 6.2804
 IR Inten    --     23.2427                28.3920                 4.5064

                     58                     59                     60
                      A                      A                      A
 Frequencies --   3116.7742              3121.3888              3121.6974
 Red. masses --      1.1014                 1.1013                 1.1008
 Frc consts  --      6.3041                 6.3219                 6.3201
 IR Inten    --     42.1894                13.1544                35.2768

                     61                     62                     63
                      A                      A                      A
 Frequencies --   3139.0082              3427.5084              3591.9666
 Red. masses --      1.1034                 1.0736                 1.0751
 Frc consts  --      6.4058                 7.4310                 8.1727
 IR Inten    --     19.5387                 7.2723                10.6026

 - Thermochemistry -
 -------------------
 Temperature   298.150 Kelvin.  Pressure   1.00000 Atm.
 Atom     1 has atomic number  6 and mass  12.00000

 Molecular mass:   130.11061 amu.
 Principal axes and moments of inertia in atomic units:
                           1         2         3
     Eigenvalues --   940.495721769.443992233.71420
           X            0.99867  -0.05080   0.00913
           Y            0.05069   0.99865   0.01175
           Z           -0.00972  -0.01127   0.99989
 This molecule is an asymmetric top.
 Rotational symmetry number  1.
 Warning -- assumption of classical behavior for rotation
           may cause significant error
 Rotational temperatures (Kelvin)      0.09209     0.04895     0.03878
 Rotational constants (GHZ):           1.91893     1.01995     0.80796
 Zero-point vibrational energy     533214.2 (Joules/Mol)
                                  127.44126 (Kcal/Mol)
 Warning -- explicit consideration of  17 degrees of freedom as
           vibrations may cause significant error
 Vibrational temperatures:     51.21    57.00   142.78   219.22   252.37
          (Kelvin)            299.75   312.31   352.85   380.39   431.30
                              537.58   599.53   616.07   701.12   758.76
                              794.57   855.43  1176.39  1192.93  1277.60
                             1329.90  1335.45  1359.55  1453.43  1561.98
                             1580.83  1600.12  1632.67  1649.88  1685.60
                             1705.42  1734.00  1865.69  1931.49  1954.93
                             1971.07  2003.92  2017.73  2031.36  2038.30
                             2062.09  2121.10  2131.05  2134.37  2136.06
                             2151.00  2159.76  2171.45  2480.84  4321.29
                             4330.79  4367.78  4376.38  4384.67  4456.36
                             4467.77  4474.11  4484.34  4490.98  4491.43
                             4516.33  4931.42  5168.04

 Zero-point correction=                           0.203091 (Hartree/Particle)
 Thermal correction to Energy=                    0.214446
 Thermal correction to Enthalpy=                  0.215391
 Thermal correction to Gibbs Free Energy=         0.165451
 Sum of electronic and zero-point Energies=           -421.616954
 Sum of electronic and thermal Energies=              -421.605598
 Sum of electronic and thermal Enthalpies=            -421.604654
 Sum of electronic and thermal Free Energies=         -421.654593

                     E (Thermal)             CV                S
                      KCal/Mol        Cal/Mol-Kelvin    Cal/Mol-Kelvin
 Total                  134.567             40.552            105.106
 Electronic               0.000              0.000              0.000
 Translational            0.889              2.981             40.503
 Rotational               0.889              2.981             29.698
 Vibrational            132.790             34.591             34.905
 Vibration     1          0.594              1.982              5.491
 Vibration     2          0.594              1.981              5.278
 Vibration     3          0.604              1.950              3.469
 Vibration     4          0.619              1.900              2.643
 Vibration     5          0.627              1.873              2.377
 Vibration     6          0.642              1.828              2.058
 Vibration     7          0.646              1.815              1.983
 Vibration     8          0.660              1.771              1.765
 Vibration     9          0.671              1.738              1.633
 Vibration    10          0.692              1.674              1.418
 Vibration    11          0.745              1.526              1.065
 Vibration    12          0.780              1.434              0.903
 Vibration    13          0.790              1.409              0.865
 Vibration    14          0.843              1.278              0.691
 Vibration    15          0.882              1.189              0.593
 Vibration    16          0.908              1.135              0.540
 Vibration    17          0.952              1.043              0.459

 Optimization completed.
    -- Stationary point found.
 Normal termination of Gaussian 16 at Thu Aug  4 01:57:20 2022.
