 Gaussian 16, Revision A.03,
 Gaussian 16:  ES64L-G16RevA.03 25-Dec-2016

 -----------------------------
 # opt freq b3lyp/6-31g(2df,p)
 -----------------------------

 -------------------
 Title Card Required
 -------------------
 Symbolic Z-matrix:
 Charge =  0 Multiplicity = 1

 SCF Done:  E(RB3LYP) =  -330.518494064     A.U. after   12 cycles
 SCF Done:  E(RB3LYP) =  -330.521013868     A.U. after   10 cycles
 SCF Done:  E(RB3LYP) =  -330.521394154     A.U. after   10 cycles
 SCF Done:  E(RB3LYP) =  -330.521595947     A.U. after    9 cycles
 SCF Done:  E(RB3LYP) =  -330.521778434     A.U. after   10 cycles
 SCF Done:  E(RB3LYP) =  -330.521805306     A.U. after   10 cycles
 SCF Done:  E(RB3LYP) =  -330.521866734     A.U. after    9 cycles
 SCF Done:  E(RB3LYP) =  -330.521886678     A.U. after    8 cycles
 SCF Done:  E(RB3LYP) =  -330.521901256     A.U. after   10 cycles
 SCF Done:  E(RB3LYP) =  -330.521907160     A.U. after    9 cycles
 SCF Done:  E(RB3LYP) =  -330.521907488     A.U. after    7 cycles
 SCF Done:  E(RB3LYP) =  -330.521907526     A.U. after    6 cycles
 SCF Done:  E(RB3LYP) =  -330.521907509     A.U. after    6 cycles
 Optimization completed.
    -- Stationary point found.
 Normal termination of Gaussian 16 at Sun Jul  3 12:31:18 2022.

 ----------------------------------------------------------------------
 #N Geom=AllCheck Guess=TCheck SCRF=Check GenChk RB3LYP/6-31G(2df,p) Fr
 eq
 ----------------------------------------------------------------------

 Structure from the checkpoint file:  "CCpCppCpC1pCpCN1.chk"
 -------------------
 Title Card Required
 -------------------
 Charge =  0 Multiplicity = 1

                         Standard orientation:
 ---------------------------------------------------------------------
 Center     Atomic      Atomic             Coordinates (Angstroms)
 Number     Number       Type             X           Y           Z
 ---------------------------------------------------------------------
      1          6           0        1.442145    0.855769   -1.094169
      2          6           0        0.790596   -0.033265   -0.014445
      3          6           0        1.207860   -1.490708   -0.295578
      4          6           0        1.336384    0.366360    1.374137
      5          6           0       -0.746135    0.164272   -0.027124
      6          6           0       -1.242279    1.602598   -0.011320
      7          6           0       -1.644433   -0.830607   -0.674521
      8          7           0       -1.595632   -0.721442    0.797811
      9          1           0        2.520664    0.670043   -1.137462
     10          1           0        1.300269    1.920020   -0.889009
     11          1           0        1.026030    0.642920   -2.084849
     12          1           0        2.288173   -1.596072   -0.155043
     13          1           0        0.981695   -1.788050   -1.323465
     14          1           0        0.729495   -2.208032    0.380438
     15          1           0        2.425494    0.255327    1.403541
     16          1           0        0.913989   -0.263817    2.163731
     17          1           0        1.105070    1.406257    1.620524
     18          1           0       -1.034451    2.112322   -0.956953
     19          1           0       -0.787633    2.185952    0.795397
     20          1           0       -2.322474    1.606862    0.150930
     21          1           0       -1.220024   -1.713300   -1.140337
     22          1           0       -2.575482   -0.494783   -1.124797
     23          1           0       -1.046210   -1.492077    1.170799
 ---------------------------------------------------------------------

 SCF Done:  E(RB3LYP) =  -330.521907509     A.U. after    1 cycles

 The electronic state is 1-A.
 Alpha  occ. eigenvalues --  -14.31434 -10.21332 -10.20082 -10.19886 -10.17713
 Alpha  occ. eigenvalues --  -10.17301 -10.17195 -10.16837  -0.94683  -0.81042
 Alpha  occ. eigenvalues --   -0.72241  -0.68628  -0.68190  -0.63544  -0.59965
 Alpha  occ. eigenvalues --   -0.53580  -0.49286  -0.44919  -0.43723  -0.43051
 Alpha  occ. eigenvalues --   -0.41923  -0.40796  -0.39162  -0.37754  -0.36940
 Alpha  occ. eigenvalues --   -0.36664  -0.34442  -0.33806  -0.32170  -0.30781
 Alpha  occ. eigenvalues --   -0.29723  -0.23536
 Alpha virt. eigenvalues --    0.06726   0.10189   0.11927   0.12434   0.12661
 Alpha virt. eigenvalues --    0.13583   0.13885   0.14950   0.16443   0.16681
 Alpha virt. eigenvalues --    0.18627   0.19337   0.20075   0.20290   0.20841

 Mulliken charges:
               1
     1  C   -0.411036
     2  C    0.187172
     3  C   -0.428611
     4  C   -0.400861
     5  C    0.353159
     6  C   -0.455785
     7  C   -0.289528
     8  N   -0.358359
     9  H    0.107963
    10  H    0.116798
    11  H    0.112776
    12  H    0.114294
    13  H    0.117436
    14  H    0.105410
    15  H    0.107830
    16  H    0.112471
    17  H    0.116251
    18  H    0.114597
    19  H    0.116075
    20  H    0.126560
    21  H    0.106537
    22  H    0.107325
    23  H    0.221528
 Sum of Mulliken charges =  -0.00000

 Dipole moment (field-independent basis, Debye):
    X=              1.4071    Y=             -0.3081    Z=             -0.8514  Tot=              1.6733
 Quadrupole moment (field-independent basis, Debye-Ang):
   XX=            -55.2377   YY=            -50.4759   ZZ=            -53.1263
   XY=             -0.7091   XZ=              2.9388   YZ=             -0.0039

  Exact polarizability:  85.113   0.688  81.396   2.532   0.772  75.114
 Approx polarizability: 116.526   3.000 115.743   2.309   0.369 114.137

                      1                      2                      3
                      A                      A                      A
 Frequencies --     70.3698               196.1874               206.4838
 Red. masses --      2.7260                 1.0530                 1.2777
 Frc consts  --      0.0080                 0.0239                 0.0321
 IR Inten    --      0.1014                 0.1537                 0.1017

                      4                      5                      6
                      A                      A                      A
 Frequencies --    256.4409               263.1352               279.6448
 Red. masses --      1.4230                 1.0981                 1.8658
 Frc consts  --      0.0551                 0.0448                 0.0860
 IR Inten    --      0.4355                 0.1779                 0.4698

                      7                      8                      9
                      A                      A                      A
 Frequencies --    305.1842               328.0237               367.6425
 Red. masses --      1.5972                 2.5250                 2.4279
 Frc consts  --      0.0876                 0.1601                 0.1933
 IR Inten    --      0.6485                 0.4346                 0.5964

                     10                     11                     12
                      A                      A                      A
 Frequencies --    376.3913               384.7346               434.9105
 Red. masses --      2.0981                 2.0632                 2.4633
 Frc consts  --      0.1751                 0.1799                 0.2745
 IR Inten    --      0.3664                 3.7870                 1.0877

                     13                     14                     15
                      A                      A                      A
 Frequencies --    467.0493               511.5937               622.0976
 Red. masses --      2.5065                 2.9022                 3.2288
 Frc consts  --      0.3221                 0.4475                 0.7362
 IR Inten    --      2.0162                 2.1598                 0.5570

                     16                     17                     18
                      A                      A                      A
 Frequencies --    799.3615               831.5264               896.1647
 Red. masses --      2.8487                 2.9906                 2.5038
 Frc consts  --      1.0725                 1.2183                 1.1848
 IR Inten    --      2.9021                36.4471                13.2765

                     19                     20                     21
                      A                      A                      A
 Frequencies --    916.5255               931.6669               937.5068
 Red. masses --      1.5054                 1.7280                 1.7390
 Frc consts  --      0.7451                 0.8837                 0.9005
 IR Inten    --      2.4761                 0.2365                 1.5165

                     22                     23                     24
                      A                      A                      A
 Frequencies --    958.9276               975.5404              1014.8144
 Red. masses --      1.2047                 1.1580                 1.5819
 Frc consts  --      0.6527                 0.6493                 0.9598
 IR Inten    --      0.0621                 8.3000                 1.8985

                     25                     26                     27
                      A                      A                      A
 Frequencies --   1036.3916              1054.6882              1074.1248
 Red. masses --      1.3400                 1.5759                 1.3232
 Frc consts  --      0.8480                 1.0328                 0.8995
 IR Inten    --      4.5892                 1.1317                10.8946

                     28                     29                     30
                      A                      A                      A
 Frequencies --   1108.7119              1137.2991              1220.5838
 Red. masses --      1.7249                 1.3024                 2.1817
 Frc consts  --      1.2493                 0.9925                 1.9151
 IR Inten    --      6.1498                 5.8353                21.6689

                     31                     32                     33
                      A                      A                      A
 Frequencies --   1229.8544              1238.1402              1270.7751
 Red. masses --      2.3189                 2.4279                 1.4665
 Frc consts  --      2.0665                 2.1929                 1.3953
 IR Inten    --     10.2720                14.4719                12.2920

                     34                     35                     36
                      A                      A                      A
 Frequencies --   1328.3863              1356.4514              1398.6602
 Red. masses --      2.3823                 2.9520                 1.2187
 Frc consts  --      2.4769                 3.2002                 1.4047
 IR Inten    --      4.5235                 4.1452                 6.2028

                     37                     38                     39
                      A                      A                      A
 Frequencies --   1402.1839              1414.6086              1434.3722
 Red. masses --      1.2634                 1.3187                 1.2295
 Frc consts  --      1.4635                 1.5548                 1.4904
 IR Inten    --      3.9885                14.1134                 2.3438

                     40                     41                     42
                      A                      A                      A
 Frequencies --   1478.2264              1482.8947              1485.9155
 Red. masses --      1.0494                 1.0492                 1.0523
 Frc consts  --      1.3510                 1.3593                 1.3689
 IR Inten    --      1.0584                 0.8468                 0.4448

                     43                     44                     45
                      A                      A                      A
 Frequencies --   1495.0500              1497.4457              1506.4212
 Red. masses --      1.0515                 1.0529                 1.1024
 Frc consts  --      1.3847                 1.3911                 1.4739
 IR Inten    --      3.2445                 3.4786                 6.3019

                     46                     47                     48
                      A                      A                      A
 Frequencies --   1508.4804              1518.7331              1523.7798
 Red. masses --      1.0532                 1.1169                 1.0973
 Frc consts  --      1.4120                 1.5178                 1.5012
 IR Inten    --      6.4101                 5.1317                 3.9974

                     49                     50                     51
                      A                      A                      A
 Frequencies --   3028.9246              3030.2622              3036.3985
 Red. masses --      1.0357                 1.0356                 1.0367
 Frc consts  --      5.5985                 5.6029                 5.6313
 IR Inten    --     24.2342                22.7247                15.2531

                     52                     53                     54
                      A                      A                      A
 Frequencies --   3042.7548              3091.4773              3094.1099
 Red. masses --      1.0368                 1.0997                 1.1017
 Frc consts  --      5.6557                 6.1923                 6.2141
 IR Inten    --     17.6966                 6.5478                 7.0682

                     55                     56                     57
                      A                      A                      A
 Frequencies --   3099.5566              3102.5937              3106.6585
 Red. masses --      1.0998                 1.1012                 1.0924
 Frc consts  --      6.2255                 6.2457                 6.2121
 IR Inten    --     52.9721                20.1827                22.0302

                     58                     59                     60
                      A                      A                      A
 Frequencies --   3112.0822              3112.9218              3113.7754
 Red. masses --      1.0821                 1.0836                 1.0971
 Frc consts  --      6.1748                 6.1868                 6.2672
 IR Inten    --     35.4727                20.0539                45.2727

                     61                     62                     63
                      A                      A                      A
 Frequencies --   3125.3167              3198.9776              3495.3338
 Red. masses --      1.1000                 1.1148                 1.0748
 Frc consts  --      6.3305                 6.7214                 7.7365
 IR Inten    --     22.6109                14.7848                 0.5698

 - Thermochemistry -
 -------------------
 Temperature   298.150 Kelvin.  Pressure   1.00000 Atm.
 Atom     1 has atomic number  6 and mass  12.00000

 Molecular mass:   113.12045 amu.
 Principal axes and moments of inertia in atomic units:
                           1         2         3
     Eigenvalues --   693.393301002.652381155.38166
           X            0.99922  -0.03384   0.02015
           Y            0.03353   0.99931   0.01585
           Z           -0.02067  -0.01516   0.99967
 This molecule is an asymmetric top.
 Rotational symmetry number  1.
 Warning -- assumption of classical behavior for rotation
           may cause significant error
 Rotational temperatures (Kelvin)      0.12491     0.08638     0.07497
 Rotational constants (GHZ):           2.60277     1.79997     1.56203
 Zero-point vibrational energy     552227.6 (Joules/Mol)
                                  131.98556 (Kcal/Mol)
 Warning -- explicit consideration of  14 degrees of freedom as
           vibrations may cause significant error
 Vibrational temperatures:    101.25   282.27   297.08   368.96   378.59
          (Kelvin)            402.35   439.09   471.95   528.96   541.54
                              553.55   625.74   671.98   736.07   895.06
                             1150.10  1196.38  1289.38  1318.68  1340.46
                             1348.86  1379.68  1403.59  1460.09  1491.14
                             1517.46  1545.43  1595.19  1636.32  1756.15
                             1769.49  1781.41  1828.36  1911.25  1951.63
                             2012.36  2017.43  2035.31  2063.74  2126.84
                             2133.55  2137.90  2151.04  2154.49  2167.40
                             2170.37  2185.12  2192.38  4357.95  4359.87
                             4368.70  4377.85  4447.95  4451.73  4459.57
                             4463.94  4469.79  4477.59  4478.80  4480.03
                             4496.63  4602.62  5029.01

 Zero-point correction=                           0.210332 (Hartree/Particle)
 Thermal correction to Energy=                    0.219908
 Thermal correction to Enthalpy=                  0.220852
 Thermal correction to Gibbs Free Energy=         0.177201
 Sum of electronic and zero-point Energies=           -330.311575
 Sum of electronic and thermal Energies=              -330.301999
 Sum of electronic and thermal Enthalpies=            -330.301055
 Sum of electronic and thermal Free Energies=         -330.344706

                     E (Thermal)             CV                S
                      KCal/Mol        Cal/Mol-Kelvin    Cal/Mol-Kelvin
 Total                  137.995             37.465             91.872
 Electronic               0.000              0.000              0.000
 Translational            0.889              2.981             40.085
 Rotational               0.889              2.981             28.176
 Vibrational            136.217             31.503             23.610
 Vibration     1          0.598              1.968              4.143
 Vibration     2          0.636              1.845              2.169
 Vibration     3          0.641              1.831              2.075
 Vibration     4          0.666              1.752              1.686
 Vibration     5          0.670              1.740              1.641
 Vibration     6          0.680              1.711              1.536
 Vibration     7          0.696              1.664              1.388
 Vibration     8          0.711              1.619              1.270
 Vibration     9          0.740              1.539              1.090
 Vibration    10          0.747              1.520              1.054
 Vibration    11          0.754              1.503              1.020
 Vibration    12          0.796              1.394              0.843
 Vibration    13          0.824              1.323              0.746
 Vibration    14          0.867              1.224              0.630

 Optimization completed.
    -- Stationary point found.
 Normal termination of Gaussian 16 at Sun Jul  3 13:03:42 2022.
