 Gaussian 16, Revision A.03,
 Gaussian 16:  ES64L-G16RevA.03 25-Dec-2016

 -----------------------------
 # opt freq b3lyp/6-31g(2df,p)
 -----------------------------

 -------------------
 Title Card Required
 -------------------
 Symbolic Z-matrix:
 Charge =  0 Multiplicity = 1

 SCF Done:  E(RB3LYP) =  -330.531711093     A.U. after   13 cycles
 SCF Done:  E(RB3LYP) =  -330.536526753     A.U. after   12 cycles
 SCF Done:  E(RB3LYP) =  -330.538257092     A.U. after   11 cycles
 SCF Done:  E(RB3LYP) =  -330.540002508     A.U. after   11 cycles
 SCF Done:  E(RB3LYP) =  -330.540686613     A.U. after   11 cycles
 SCF Done:  E(RB3LYP) =  -330.541018195     A.U. after   11 cycles
 SCF Done:  E(RB3LYP) =  -330.540948041     A.U. after    9 cycles
 SCF Done:  E(RB3LYP) =  -330.541747274     A.U. after   11 cycles
 SCF Done:  E(RB3LYP) =  -330.537972669     A.U. after   12 cycles
 SCF Done:  E(RB3LYP) =  -330.543382074     A.U. after   11 cycles
 SCF Done:  E(RB3LYP) =  -330.543766685     A.U. after   11 cycles
 SCF Done:  E(RB3LYP) =  -330.543996223     A.U. after   11 cycles
 SCF Done:  E(RB3LYP) =  -330.544096368     A.U. after   11 cycles
 SCF Done:  E(RB3LYP) =  -330.544118618     A.U. after   11 cycles
 SCF Done:  E(RB3LYP) =  -330.544139249     A.U. after   10 cycles
 SCF Done:  E(RB3LYP) =  -330.544141827     A.U. after    8 cycles
 SCF Done:  E(RB3LYP) =  -330.544142277     A.U. after    7 cycles
 SCF Done:  E(RB3LYP) =  -330.544142320     A.U. after    7 cycles
 Optimization completed.
    -- Stationary point found.
 Normal termination of Gaussian 16 at Sun Jul  3 16:57:25 2022.

 ----------------------------------------------------------------------
 #N Geom=AllCheck Guess=TCheck SCRF=Check GenChk RB3LYP/6-31G(2df,p) Fr
 eq
 ----------------------------------------------------------------------

 Structure from the checkpoint file:  "CCpCpCCpCpCdN.chk"
 -------------------
 Title Card Required
 -------------------
 Charge =  0 Multiplicity = 1

                         Standard orientation:
 ---------------------------------------------------------------------
 Center     Atomic      Atomic             Coordinates (Angstroms)
 Number     Number       Type             X           Y           Z
 ---------------------------------------------------------------------
      1          6           0       -2.693769   -1.124116    0.341091
      2          6           0       -1.560854   -0.328807   -0.322304
      3          6           0       -2.030964    1.090980   -0.667351
      4          6           0       -0.301657   -0.356921    0.566757
      5          6           0        0.966483    0.293301   -0.056239
      6          6           0        1.215448    1.720600    0.467765
      7          6           0        2.182463   -0.558745    0.230861
      8          7           0        2.988463   -1.095571   -0.589130
      9          1           0       -3.579968   -1.159835   -0.300974
     10          1           0       -2.991666   -0.663676    1.290804
     11          1           0       -2.389633   -2.154611    0.552165
     12          1           0       -1.304251   -0.834569   -1.264754
     13          1           0       -2.274097    1.656028    0.240698
     14          1           0       -2.933045    1.059584   -1.287357
     15          1           0       -1.273828    1.654249   -1.220695
     16          1           0       -0.087736   -1.406939    0.801707
     17          1           0       -0.525441    0.125558    1.528030
     18          1           0        0.844907    0.331470   -1.147511
     19          1           0        1.427680    1.703306    1.542828
     20          1           0        0.341550    2.358739    0.314013
     21          1           0        2.070785    2.183210   -0.034230
     22          1           0        2.380063   -0.724093    1.298684
     23          1           0        2.712544   -0.877172   -1.552986
 ---------------------------------------------------------------------

 SCF Done:  E(RB3LYP) =  -330.544142320     A.U. after    1 cycles

 The electronic state is 1-A.
 Alpha  occ. eigenvalues --  -14.30935 -10.22133 -10.19738 -10.19280 -10.18525
 Alpha  occ. eigenvalues --  -10.18292 -10.17653 -10.17481  -0.89645  -0.81890
 Alpha  occ. eigenvalues --   -0.77201  -0.68980  -0.68160  -0.62894  -0.57506
 Alpha  occ. eigenvalues --   -0.56384  -0.47830  -0.46504  -0.45394  -0.42751
 Alpha  occ. eigenvalues --   -0.41060  -0.40141  -0.39903  -0.38370  -0.38221
 Alpha  occ. eigenvalues --   -0.35494  -0.34693  -0.33428  -0.32438  -0.32290
 Alpha  occ. eigenvalues --   -0.29787  -0.25038
 Alpha virt. eigenvalues --    0.00719   0.07836   0.09228   0.10903   0.12164
 Alpha virt. eigenvalues --    0.13061   0.14114   0.14396   0.15154   0.15598
 Alpha virt. eigenvalues --    0.17079   0.17679   0.18199   0.18603   0.19871

 Mulliken charges:
               1
     1  C   -0.390253
     2  C    0.042689
     3  C   -0.380919
     4  C   -0.195616
     5  C   -0.033093
     6  C   -0.401101
     7  C    0.073771
     8  N   -0.409031
     9  H    0.111119
    10  H    0.112852
    11  H    0.112708
    12  H    0.074492
    13  H    0.112048
    14  H    0.111190
    15  H    0.115829
    16  H    0.100798
    17  H    0.093852
    18  H    0.070234
    19  H    0.120514
    20  H    0.123584
    21  H    0.121535
    22  H    0.101424
    23  H    0.211373
 Sum of Mulliken charges =  -0.00000

 Dipole moment (field-independent basis, Debye):
    X=             -2.1944    Y=              1.3142    Z=             -0.0241  Tot=              2.5580
 Quadrupole moment (field-independent basis, Debye-Ang):
   XX=            -62.3926   YY=            -54.6826   ZZ=            -49.5506
   XY=              5.1553   XZ=              0.6032   YZ=             -0.1924

  Exact polarizability:  94.706  -3.171  78.230  -3.002   1.364  77.410
 Approx polarizability: 119.642  -8.224 109.752  -7.818   5.107 121.927

                      1                      2                      3
                      A                      A                      A
 Frequencies --     46.7834                65.4727               101.7112
 Red. masses --      3.0807                 2.9996                 2.3054
 Frc consts  --      0.0040                 0.0076                 0.0141
 IR Inten    --      1.1966                 0.4783                 0.1370

                      4                      5                      6
                      A                      A                      A
 Frequencies --    175.8944               225.1099               234.9738
 Red. masses --      2.4919                 1.0448                 1.0643
 Frc consts  --      0.0454                 0.0312                 0.0346
 IR Inten    --      0.7618                 0.2301                 0.2216

                      7                      8                      9
                      A                      A                      A
 Frequencies --    258.4860               290.3587               300.8261
 Red. masses --      1.4574                 1.4552                 2.6808
 Frc consts  --      0.0574                 0.0723                 0.1429
 IR Inten    --      0.9007                 1.2198                 0.4469

                     10                     11                     12
                      A                      A                      A
 Frequencies --    354.3645               365.0172               414.6361
 Red. masses --      2.2069                 2.1620                 1.9155
 Frc consts  --      0.1633                 0.1697                 0.1940
 IR Inten    --      2.9279                 2.1499                 1.2639

                     13                     14                     15
                      A                      A                      A
 Frequencies --    447.3172               555.1317               799.5782
 Red. masses --      2.6623                 2.6722                 2.5289
 Frc consts  --      0.3139                 0.4852                 0.9526
 IR Inten    --      0.6161                 4.0121                 4.2418

                     16                     17                     18
                      A                      A                      A
 Frequencies --    842.5150               868.9191               876.7665
 Red. masses --      2.1660                 1.4178                 2.0397
 Frc consts  --      0.9059                 0.6307                 0.9238
 IR Inten    --      8.7174                 1.5982                 5.1732

                     19                     20                     21
                      A                      A                      A
 Frequencies --    920.5440               930.2939               965.9172
 Red. masses --      1.9836                 1.2206                 1.5413
 Frc consts  --      0.9904                 0.6224                 0.8473
 IR Inten    --      4.3311                 1.1216                 0.1823

                     22                     23                     24
                      A                      A                      A
 Frequencies --    984.2808              1037.7359              1062.4313
 Red. masses --      1.7340                 1.5975                 2.1227
 Frc consts  --      0.9898                 1.0136                 1.4117
 IR Inten    --      3.5323                 1.2427                 5.2185

                     25                     26                     27
                      A                      A                      A
 Frequencies --   1124.3984              1141.7535              1149.4696
 Red. masses --      1.8407                 1.8035                 1.1202
 Frc consts  --      1.3711                 1.3852                 0.8721
 IR Inten    --      8.5098                11.8074                37.4395

                     28                     29                     30
                      A                      A                      A
 Frequencies --   1184.0934              1194.1521              1244.5375
 Red. masses --      2.0184                 1.7723                 1.4680
 Frc consts  --      1.6674                 1.4891                 1.3396
 IR Inten    --      0.4069                 5.4657                22.9800

                     31                     32                     33
                      A                      A                      A
 Frequencies --   1267.0097              1309.8926              1336.5818
 Red. masses --      1.3113                 1.2220                 1.3776
 Frc consts  --      1.2403                 1.2354                 1.4500
 IR Inten    --      9.2358                34.2568                13.6705

                     34                     35                     36
                      A                      A                      A
 Frequencies --   1348.3855              1375.2589              1381.2558
 Red. masses --      1.3263                 1.3602                 1.3716
 Frc consts  --      1.4207                 1.5157                 1.5418
 IR Inten    --      8.2542                 1.9544                 4.3030

                     37                     38                     39
                      A                      A                      A
 Frequencies --   1401.3170              1405.7437              1422.2643
 Red. masses --      1.2789                 1.2166                 1.2312
 Frc consts  --      1.4797                 1.4165                 1.4674
 IR Inten    --      4.9178                 3.7198                 8.8926

                     40                     41                     42
                      A                      A                      A
 Frequencies --   1426.8040              1481.9138              1489.2968
 Red. masses --      1.2309                 1.0656                 1.0490
 Frc consts  --      1.4764                 1.3788                 1.3708
 IR Inten    --     14.1569                 0.1394                 0.7132

                     43                     44                     45
                      A                      A                      A
 Frequencies --   1494.9151              1498.2193              1499.4307
 Red. masses --      1.0579                 1.0500                 1.0511
 Frc consts  --      1.3930                 1.3887                 1.3923
 IR Inten    --      5.1006                 2.5920                 3.0411

                     46                     47                     48
                      A                      A                      A
 Frequencies --   1506.3125              1513.5427              1728.6052
 Red. masses --      1.0543                 1.0509                 8.4806
 Frc consts  --      1.4094                 1.4185                14.9303
 IR Inten    --      1.5746                10.1994                75.0997

                     49                     50                     51
                      A                      A                      A
 Frequencies --   2993.4670              3006.4700              3012.8321
 Red. masses --      1.0814                 1.0743                 1.0676
 Frc consts  --      5.7094                 5.7214                 5.7098
 IR Inten    --      7.5799                 1.5940                24.5503

                     52                     53                     54
                      A                      A                      A
 Frequencies --   3022.9956              3028.0622              3033.6167
 Red. masses --      1.0360                 1.0374                 1.0409
 Frc consts  --      5.5779                 5.6045                 5.6439
 IR Inten    --     28.2228                20.2282                14.9576

                     55                     56                     57
                      A                      A                      A
 Frequencies --   3044.3878              3049.8932              3087.6565
 Red. masses --      1.0817                 1.1022                 1.1003
 Frc consts  --      5.9068                 6.0404                 6.1807
 IR Inten    --     53.2559                26.4979                 4.5619

                     58                     59                     60
                      A                      A                      A
 Frequencies --   3093.4980              3099.3847              3100.5463
 Red. masses --      1.1000                 1.1015                 1.1004
 Frc consts  --      6.2022                 6.2343                 6.2325
 IR Inten    --     58.9082                13.4490                41.2331

                     61                     62                     63
                      A                      A                      A
 Frequencies --   3103.7512              3120.2551              3393.8864
 Red. masses --      1.1004                 1.1007                 1.0732
 Frc consts  --      6.2453                 6.3141                 7.2834
 IR Inten    --     55.3181                16.3981                 6.0017

 - Thermochemistry -
 -------------------
 Temperature   298.150 Kelvin.  Pressure   1.00000 Atm.
 Atom     1 has atomic number  6 and mass  12.00000

 Molecular mass:   113.12045 amu.
 Principal axes and moments of inertia in atomic units:
                           1         2         3
     Eigenvalues --   562.803321718.110952010.54674
           X            0.99975   0.02209   0.00356
           Y           -0.02204   0.99965  -0.01429
           Z           -0.00388   0.01421   0.99989
 This molecule is an asymmetric top.
 Rotational symmetry number  1.
 Warning -- assumption of classical behavior for rotation
           may cause significant error
 Rotational temperatures (Kelvin)      0.15390     0.05041     0.04308
 Rotational constants (GHZ):           3.20670     1.05042     0.89764
 Zero-point vibrational energy     551723.2 (Joules/Mol)
                                  131.86502 (Kcal/Mol)
 Warning -- explicit consideration of  14 degrees of freedom as
           vibrations may cause significant error
 Vibrational temperatures:     67.31    94.20   146.34   253.07   323.88
          (Kelvin)            338.07   371.90   417.76   432.82   509.85
                              525.18   596.57   643.59   798.71  1150.41
                             1212.19  1250.18  1261.47  1324.46  1338.49
                             1389.74  1416.16  1493.07  1528.60  1617.76
                             1642.73  1653.83  1703.65  1718.12  1790.61
                             1822.94  1884.64  1923.04  1940.03  1978.69
                             1987.32  2016.18  2022.55  2046.32  2052.85
                             2132.14  2142.77  2150.85  2155.60  2157.35
                             2167.25  2177.65  2487.08  4306.93  4325.64
                             4334.79  4349.42  4356.71  4364.70  4380.20
                             4388.12  4442.45  4450.85  4459.32  4460.99
                             4465.61  4489.35  4883.05

 Zero-point correction=                           0.210140 (Hartree/Particle)
 Thermal correction to Energy=                    0.220496
 Thermal correction to Enthalpy=                  0.221440
 Thermal correction to Gibbs Free Energy=         0.174468
 Sum of electronic and zero-point Energies=           -330.334002
 Sum of electronic and thermal Energies=              -330.323646
 Sum of electronic and thermal Enthalpies=            -330.322702
 Sum of electronic and thermal Free Energies=         -330.369675

                     E (Thermal)             CV                S
                      KCal/Mol        Cal/Mol-Kelvin    Cal/Mol-Kelvin
 Total                  138.363             37.293             98.862
 Electronic               0.000              0.000              0.000
 Translational            0.889              2.981             40.085
 Rotational               0.889              2.981             29.054
 Vibrational            136.586             31.331             29.722
 Vibration     1          0.595              1.979              4.949
 Vibration     2          0.597              1.971              4.285
 Vibration     3          0.604              1.948              3.421
 Vibration     4          0.628              1.872              2.372
 Vibration     5          0.650              1.803              1.918
 Vibration     6          0.655              1.787              1.841
 Vibration     7          0.667              1.748              1.672
 Vibration     8          0.686              1.692              1.472
 Vibration     9          0.693              1.672              1.412
 Vibration    10          0.730              1.566              1.147
 Vibration    11          0.738              1.544              1.101
 Vibration    12          0.778              1.438              0.910
 Vibration    13          0.806              1.367              0.804
 Vibration    14          0.911              1.128              0.534

                           ! Non-Optimized Parameters !
 Normal termination of Gaussian 16 at Sun Jul  3 17:29:10 2022.
