 Gaussian 16, Revision A.03,
 Gaussian 16:  ES64L-G16RevA.03 25-Dec-2016

 -----------------------------
 # opt freq b3lyp/6-31g(2df,p)
 -----------------------------

 -------------------
 Title Card Required
 -------------------
 Symbolic Z-matrix:
 Charge =  0 Multiplicity = 1

 SCF Done:  E(RB3LYP) =  -415.530248413     A.U. after   15 cycles
 SCF Done:  E(RB3LYP) =  -415.559935918     A.U. after   13 cycles
 SCF Done:  E(RB3LYP) =  -415.560902495     A.U. after   12 cycles
 SCF Done:  E(RB3LYP) =  -415.561091520     A.U. after   11 cycles
 SCF Done:  E(RB3LYP) =  -415.561219167     A.U. after   11 cycles
 SCF Done:  E(RB3LYP) =  -415.561329858     A.U. after   11 cycles
 SCF Done:  E(RB3LYP) =  -415.561424086     A.U. after   11 cycles
 SCF Done:  E(RB3LYP) =  -415.561511755     A.U. after   11 cycles
 SCF Done:  E(RB3LYP) =  -415.561566306     A.U. after   10 cycles
 SCF Done:  E(RB3LYP) =  -415.561579853     A.U. after   10 cycles
 SCF Done:  E(RB3LYP) =  -415.561580711     A.U. after    9 cycles
 SCF Done:  E(RB3LYP) =  -415.561585688     A.U. after    9 cycles
 SCF Done:  E(RB3LYP) =  -415.561585931     A.U. after    7 cycles
 SCF Done:  E(RB3LYP) =  -415.561586153     A.U. after    7 cycles
 SCF Done:  E(RB3LYP) =  -415.561586400     A.U. after    7 cycles
 SCF Done:  E(RB3LYP) =  -415.561586612     A.U. after    7 cycles
 SCF Done:  E(RB3LYP) =  -415.561586801     A.U. after    7 cycles
 SCF Done:  E(RB3LYP) =  -415.561586945     A.U. after    7 cycles
 SCF Done:  E(RB3LYP) =  -415.561586997     A.U. after    6 cycles
 Optimization completed.
    -- Stationary point found.
 Normal termination of Gaussian 16 at Sun Jul  3 20:49:49 2022.

 ----------------------------------------------------------------------
 #N Geom=AllCheck Guess=TCheck SCRF=Check GenChk RB3LYP/6-31G(2df,p) Fr
 eq
 ----------------------------------------------------------------------

 Structure from the checkpoint file:  "CCpdNpNCpCppNpCtN.chk"
 -------------------
 Title Card Required
 -------------------
 Charge =  0 Multiplicity = 1

                         Standard orientation:
 ---------------------------------------------------------------------
 Center     Atomic      Atomic             Coordinates (Angstroms)
 Number     Number       Type             X           Y           Z
 ---------------------------------------------------------------------
      1          6           0        2.689591   -1.204600    0.052922
      2          6           0        1.641124   -0.111639    0.033401
      3          7           0        1.866139    1.145968   -0.066081
      4          7           0        0.355316   -0.593948    0.159177
      5          6           0       -0.833928    0.250096   -0.021952
      6          6           0       -0.998242    1.211542    1.178537
      7          7           0       -0.788110    0.908921   -1.333665
      8          6           0       -1.994169   -0.675003   -0.032254
      9          7           0       -2.903440   -1.386685   -0.024211
     10          1           0        3.691962   -0.774109    0.041838
     11          1           0        2.585135   -1.854450   -0.823363
     12          1           0        2.584192   -1.831016    0.944301
     13          1           0        2.865447    1.329168   -0.099905
     14          1           0        0.228410   -1.560129   -0.097785
     15          1           0       -0.134748    1.875600    1.212265
     16          1           0       -1.067901    0.653999    2.116298
     17          1           0       -1.910238    1.801778    1.053481
     18          1           0        0.030096    1.516585   -1.317466
     19          1           0       -1.607950    1.500400   -1.440121
 ---------------------------------------------------------------------

 SCF Done:  E(RB3LYP) =  -415.561586997     A.U. after    1 cycles

 The electronic state is 1-A.
 Alpha  occ. eigenvalues --  -14.35977 -14.33443 -14.31822 -14.30208 -10.29782
 Alpha  occ. eigenvalues --  -10.26967 -10.22095 -10.20605 -10.18557  -0.98305
 Alpha  occ. eigenvalues --   -0.91412  -0.89156  -0.85808  -0.76164  -0.73315
 Alpha  occ. eigenvalues --   -0.66887  -0.58428  -0.56729  -0.48964  -0.47652
 Alpha  occ. eigenvalues --   -0.46182  -0.45542  -0.44258  -0.43386  -0.41884
 Alpha  occ. eigenvalues --   -0.40022  -0.39115  -0.35959  -0.34612  -0.33909
 Alpha  occ. eigenvalues --   -0.33110  -0.27192  -0.25462  -0.24983
 Alpha virt. eigenvalues --    0.01116   0.02440   0.04341   0.05837   0.09430
 Alpha virt. eigenvalues --    0.11476   0.11975   0.13716   0.15716   0.15952
 Alpha virt. eigenvalues --    0.16390   0.17555   0.18240   0.20884   0.21365

 Mulliken charges:
               1
     1  C   -0.479098
     2  C    0.376269
     3  N   -0.528604
     4  N   -0.313303
     5  C    0.109024
     6  C   -0.403010
     7  N   -0.525959
     8  C    0.288495
     9  N   -0.332378
    10  H    0.135949
    11  H    0.146451
    12  H    0.147523
    13  H    0.216294
    14  H    0.257193
    15  H    0.161376
    16  H    0.129270
    17  H    0.121287
    18  H    0.259712
    19  H    0.233510
 Sum of Mulliken charges =   0.00000

 Dipole moment (field-independent basis, Debye):
    X=              3.6151    Y=              0.5825    Z=              0.5682  Tot=              3.7055
 Quadrupole moment (field-independent basis, Debye-Ang):
   XX=            -56.6278   YY=            -53.0881   ZZ=            -56.0697
   XY=            -10.6557   XZ=             -0.5853   YZ=             -0.8090

  Exact polarizability:  95.159   5.994  79.090  -0.527  -1.473  58.774
 Approx polarizability: 128.868  21.063 127.092  -1.095  -4.811  86.975

                      1                      2                      3
                      A                      A                      A
 Frequencies --     70.4857               105.9126               112.5839
 Red. masses --      1.4709                 2.6626                 2.3311
 Frc consts  --      0.0043                 0.0176                 0.0174
 IR Inten    --      5.5982                 9.2362                 1.4967

                      4                      5                      6
                      A                      A                      A
 Frequencies --    130.5851               206.7208               243.1923
 Red. masses --      6.1935                 3.4596                 2.5880
 Frc consts  --      0.0622                 0.0871                 0.0902
 IR Inten    --      5.4327                 1.4065                 3.9048

                      7                      8                      9
                      A                      A                      A
 Frequencies --    263.4433               306.6077               328.5148
 Red. masses --      1.3309                 1.1593                 2.7759
 Frc consts  --      0.0544                 0.0642                 0.1765
 IR Inten    --      2.3340                54.0542                 1.1161

                     10                     11                     12
                      A                      A                      A
 Frequencies --    395.0146               407.8972               416.6418
 Red. masses --      1.8623                 2.2080                 3.2403
 Frc consts  --      0.1712                 0.2165                 0.3314
 IR Inten    --     23.9473                 6.2946                22.2620

                     13                     14                     15
                      A                      A                      A
 Frequencies --    472.1821               575.5138               581.3956
 Red. masses --      2.4822                 3.6299                 4.0274
 Frc consts  --      0.3261                 0.7084                 0.8021
 IR Inten    --     66.2238                13.6119                13.8655

                     16                     17                     18
                      A                      A                      A
 Frequencies --    605.3861               608.1179               771.9196
 Red. masses --      4.1783                 4.5308                 3.7002
 Frc consts  --      0.9022                 0.9872                 1.2990
 IR Inten    --      0.5441                 7.5665                 5.0800

                     19                     20                     21
                      A                      A                      A
 Frequencies --    826.5393               876.8553               940.1071
 Red. masses --      1.1571                 2.7653                 1.6446
 Frc consts  --      0.4657                 1.2527                 0.8564
 IR Inten    --     44.3259                25.7473                97.9048

                     22                     23                     24
                      A                      A                      A
 Frequencies --    959.6004               981.1933              1038.0679
 Red. masses --      2.8264                 1.5177                 1.6596
 Frc consts  --      1.5334                 0.8609                 1.0537
 IR Inten    --     15.8355                 7.9518                14.1427

                     25                     26                     27
                      A                      A                      A
 Frequencies --   1062.7525              1098.2541              1112.6847
 Red. masses --      1.6248                 1.6086                 3.4725
 Frc consts  --      1.0812                 1.1432                 2.5330
 IR Inten    --      8.0177                21.1816                31.8895

                     28                     29                     30
                      A                      A                      A
 Frequencies --   1163.1646              1229.4967              1337.1980
 Red. masses --      1.5677                 2.9072                 1.5042
 Frc consts  --      1.2496                 2.5893                 1.5847
 IR Inten    --    128.4969                39.3107                44.5612

                     31                     32                     33
                      A                      A                      A
 Frequencies --   1373.4355              1396.6628              1407.2913
 Red. masses --      1.7097                 1.2235                 1.4094
 Frc consts  --      1.9002                 1.4061                 1.6445
 IR Inten    --     34.6222                12.2616                30.9669

                     34                     35                     36
                      A                      A                      A
 Frequencies --   1474.3705              1478.6850              1484.4442
 Red. masses --      1.0827                 1.0673                 1.0652
 Frc consts  --      1.3867                 1.3750                 1.3829
 IR Inten    --     33.4639                22.7816                 8.5949

                     37                     38                     39
                      A                      A                      A
 Frequencies --   1500.7069              1545.3351              1635.7784
 Red. masses --      1.0555                 1.6323                 1.1521
 Frc consts  --      1.4005                 2.2967                 1.8163
 IR Inten    --      4.8682               147.4605                91.8703

                     40                     41                     42
                      A                      A                      A
 Frequencies --   1710.2586              2366.1583              3038.9243
 Red. masses --      5.1350                12.6954                 1.0380
 Frc consts  --      8.8494                41.8777                 5.6480
 IR Inten    --    123.9810                 0.7318                 7.4032

                     43                     44                     45
                      A                      A                      A
 Frequencies --   3050.3973              3101.5351              3123.4235
 Red. masses --      1.0353                 1.0990                 1.1028
 Frc consts  --      5.6759                 6.2290                 6.3390
 IR Inten    --     14.6625                 7.9737                17.2787

                     46                     47                     48
                      A                      A                      A
 Frequencies --   3141.2552              3163.1840              3462.7289
 Red. masses --      1.1010                 1.1013                 1.0501
 Frc consts  --      6.4011                 6.4925                 7.4189
 IR Inten    --     10.8737                 1.7988                22.4949

                     49                     50                     51
                      A                      A                      A
 Frequencies --   3517.9765              3554.6288              3629.9696
 Red. masses --      1.0752                 1.0910                 1.0771
 Frc consts  --      7.8400                 8.1220                 8.3623
 IR Inten    --      1.0136                12.0624                29.9225

 - Thermochemistry -
 -------------------
 Temperature   298.150 Kelvin.  Pressure   1.00000 Atm.
 Atom     1 has atomic number  6 and mass  12.00000

 Molecular mass:   126.09055 amu.
 Principal axes and moments of inertia in atomic units:
                           1         2         3
     Eigenvalues --   644.306311651.327191905.91419
           X            0.99848  -0.05468  -0.00618
           Y            0.05479   0.99833   0.01810
           Z            0.00518  -0.01841   0.99982
 This molecule is an asymmetric top.
 Rotational symmetry number  1.
 Warning -- assumption of classical behavior for rotation
           may cause significant error
 Rotational temperatures (Kelvin)      0.13443     0.05245     0.04544
 Rotational constants (GHZ):           2.80106     1.09290     0.94692
 Zero-point vibrational energy     415015.5 (Joules/Mol)
                                   99.19109 (Kcal/Mol)
 Warning -- explicit consideration of  17 degrees of freedom as
           vibrations may cause significant error
 Vibrational temperatures:    101.41   152.38   161.98   187.88   297.43
          (Kelvin)            349.90   379.04   441.14   472.66   568.34
                              586.87   599.45   679.36   828.04   836.50
                              871.02   874.95  1110.62  1189.21  1261.60
                             1352.60  1380.65  1411.72  1493.55  1529.06
                             1580.14  1600.91  1673.53  1768.97  1923.93
                             1976.07  2009.49  2024.78  2121.29  2127.50
                             2135.78  2159.18  2223.39  2353.52  2460.68
                             3404.37  4372.33  4388.84  4462.42  4493.91
                             4519.57  4551.12  4982.09  5061.58  5114.32
                             5222.72

 Zero-point correction=                           0.158071 (Hartree/Particle)
 Thermal correction to Energy=                    0.168485
 Thermal correction to Enthalpy=                  0.169429
 Thermal correction to Gibbs Free Energy=         0.122817
 Sum of electronic and zero-point Energies=           -415.403516
 Sum of electronic and thermal Energies=              -415.393102
 Sum of electronic and thermal Enthalpies=            -415.392158
 Sum of electronic and thermal Free Energies=         -415.438770

                     E (Thermal)             CV                S
                      KCal/Mol        Cal/Mol-Kelvin    Cal/Mol-Kelvin
 Total                  105.726             37.879             98.102
 Electronic               0.000              0.000              0.000
 Translational            0.889              2.981             40.409
 Rotational               0.889              2.981             29.096
 Vibrational            103.948             31.917             28.597
 Vibration     1          0.598              1.968              4.140
 Vibration     2          0.605              1.945              3.342
 Vibration     3          0.607              1.939              3.224
 Vibration     4          0.612              1.923              2.937
 Vibration     5          0.641              1.830              2.072
 Vibration     6          0.659              1.774              1.779
 Vibration     7          0.670              1.740              1.639
 Vibration     8          0.697              1.661              1.381
 Vibration     9          0.712              1.619              1.267
 Vibration    10          0.762              1.481              0.981
 Vibration    11          0.772              1.453              0.934
 Vibration    12          0.780              1.434              0.903
 Vibration    13          0.829              1.312              0.731
 Vibration    14          0.932              1.084              0.494
 Vibration    15          0.938              1.072              0.483
 Vibration    16          0.964              1.020              0.440
 Vibration    17          0.967              1.015              0.436

 Optimization completed.
    -- Stationary point found.
 Normal termination of Gaussian 16 at Sun Jul  3 21:23:49 2022.
