 Gaussian 16, Revision A.03,
 Gaussian 16:  ES64L-G16RevA.03 25-Dec-2016

 -----------------------------
 # opt freq b3lyp/6-31g(2df,p)
 -----------------------------

 -------------------
 Title Card Required
 -------------------
 Symbolic Z-matrix:
 Charge =  0 Multiplicity = 1

 SCF Done:  E(RB3LYP) =  -456.539372704     A.U. after   14 cycles
 SCF Done:  E(RB3LYP) =  -456.545871735     A.U. after   12 cycles
 SCF Done:  E(RB3LYP) =  -456.548288476     A.U. after   12 cycles
 SCF Done:  E(RB3LYP) =  -456.549768915     A.U. after   12 cycles
 SCF Done:  E(RB3LYP) =  -456.550312214     A.U. after   12 cycles
 SCF Done:  E(RB3LYP) =  -456.551456413     A.U. after   12 cycles
 SCF Done:  E(RB3LYP) =  -456.552182557     A.U. after   12 cycles
 SCF Done:  E(RB3LYP) =  -456.552357109     A.U. after   13 cycles
 SCF Done:  E(RB3LYP) =  -456.553049811     A.U. after   12 cycles
 SCF Done:  E(RB3LYP) =  -456.553187395     A.U. after   11 cycles
 SCF Done:  E(RB3LYP) =  -456.554244469     A.U. after   11 cycles
 SCF Done:  E(RB3LYP) =  -456.554275633     A.U. after   10 cycles
 SCF Done:  E(RB3LYP) =  -456.554307896     A.U. after   10 cycles
 SCF Done:  E(RB3LYP) =  -456.554321852     A.U. after   10 cycles
 SCF Done:  E(RB3LYP) =  -456.554328214     A.U. after    9 cycles
 SCF Done:  E(RB3LYP) =  -456.554332705     A.U. after    9 cycles
 SCF Done:  E(RB3LYP) =  -456.554333586     A.U. after    8 cycles
 SCF Done:  E(RB3LYP) =  -456.554334030     A.U. after    8 cycles
 SCF Done:  E(RB3LYP) =  -456.554334107     A.U. after    7 cycles
 Optimization completed.
    -- Stationary point found.
 Normal termination of Gaussian 16 at Sun Jul  3 22:04:39 2022.

 ----------------------------------------------------------------------
 #N Geom=AllCheck Guess=TCheck SCRF=Check GenChk RB3LYP/6-31G(2df,p) Fr
 eq
 ----------------------------------------------------------------------

 Structure from the checkpoint file:  "CCpdOpNpCdOpCpCpN.chk"
 -------------------
 Title Card Required
 -------------------
 Charge =  0 Multiplicity = 1

                         Standard orientation:
 ---------------------------------------------------------------------
 Center     Atomic      Atomic             Coordinates (Angstroms)
 Number     Number       Type             X           Y           Z
 ---------------------------------------------------------------------
      1          6           0        2.519029   -0.348415   -0.057332
      2          6           0        1.093796   -0.844790   -0.066550
      3          8           0        0.830403   -2.029104   -0.091775
      4          7           0        0.044833    0.106297   -0.055008
      5          6           0        0.206201    1.482395    0.085849
      6          8           0        1.252107    2.074602    0.214464
      7          6           0       -1.347381   -0.414793   -0.133985
      8          6           0       -2.052531   -0.337686    1.220061
      9          7           0       -2.077159    0.362840   -1.133376
     10          1           0        3.162326   -1.225180   -0.135298
     11          1           0        2.733892    0.205843    0.858470
     12          1           0        2.706952    0.346096   -0.878352
     13          1           0       -0.768249    1.990986    0.051753
     14          1           0       -1.219858   -1.466037   -0.401140
     15          1           0       -2.192425    0.699486    1.539728
     16          1           0       -1.468936   -0.866290    1.977268
     17          1           0       -3.037094   -0.813079    1.159857
     18          1           0       -3.070400    0.172801   -1.054136
     19          1           0       -1.794683    0.087165   -2.069228
 ---------------------------------------------------------------------

 SCF Done:  E(RB3LYP) =  -456.554334107     A.U. after    1 cycles

 The electronic state is 1-A.
 Alpha  occ. eigenvalues --  -19.12710 -19.12524 -14.37698 -14.33153 -10.29865
 Alpha  occ. eigenvalues --  -10.28961 -10.25992 -10.19322 -10.18448  -1.06134
 Alpha  occ. eigenvalues --   -1.04230  -0.95326  -0.88366  -0.75771  -0.73479
 Alpha  occ. eigenvalues --   -0.66751  -0.63309  -0.52210  -0.51875  -0.49793
 Alpha  occ. eigenvalues --   -0.49381  -0.47200  -0.44983  -0.43114  -0.42552
 Alpha  occ. eigenvalues --   -0.41262  -0.40045  -0.38827  -0.38413  -0.38201
 Alpha  occ. eigenvalues --   -0.36147  -0.29169  -0.27587  -0.25951  -0.24672
 Alpha virt. eigenvalues --   -0.02327   0.03928   0.06740   0.11183   0.12170
 Alpha virt. eigenvalues --    0.12484   0.14083   0.15007   0.16123   0.17470
 Alpha virt. eigenvalues --    0.17547   0.18648   0.19134   0.19602   0.22802

 Mulliken charges:
               1
     1  C   -0.466305
     2  C    0.414182
     3  O   -0.340719
     4  N   -0.142700
     5  C    0.170292
     6  O   -0.324365
     7  C    0.023791
     8  C   -0.389615
     9  N   -0.508912
    10  H    0.132556
    11  H    0.161051
    12  H    0.154328
    13  H    0.123454
    14  H    0.125284
    15  H    0.128672
    16  H    0.141870
    17  H    0.121925
    18  H    0.236857
    19  H    0.238353
 Sum of Mulliken charges =  -0.00000

 Dipole moment (field-independent basis, Debye):
    X=             -2.7499    Y=             -0.4390    Z=             -0.5507  Tot=              2.8386
 Quadrupole moment (field-independent basis, Debye-Ang):
   XX=            -46.9601   YY=            -65.4007   ZZ=            -49.6080
   XY=             -0.4665   XZ=              0.7079   YZ=              0.1381

  Exact polarizability:  87.517   0.744  77.385   0.645   0.610  57.038
 Approx polarizability: 114.758   6.686 130.396   2.708   2.796  83.098

                      1                      2                      3
                      A                      A                      A
 Frequencies --     39.8203                66.2557               128.6105
 Red. masses --      3.6568                 4.0802                 3.4950
 Frc consts  --      0.0034                 0.0106                 0.0341
 IR Inten    --      3.3266                 6.2610                 1.0306

                      4                      5                      6
                      A                      A                      A
 Frequencies --    205.4165               208.9210               240.7145
 Red. masses --      1.1265                 1.1034                 1.3033
 Frc consts  --      0.0280                 0.0284                 0.0445
 IR Inten    --      4.2247                15.4992                29.6672

                      7                      8                      9
                      A                      A                      A
 Frequencies --    256.0132               263.9434               283.3534
 Red. masses --      2.2517                 3.8174                 2.7149
 Frc consts  --      0.0870                 0.1567                 0.1284
 IR Inten    --      1.3969                 7.0163                 8.8822

                     10                     11                     12
                      A                      A                      A
 Frequencies --    344.9111               413.8801               449.5782
 Red. masses --      3.0698                 3.8229                 3.6936
 Frc consts  --      0.2152                 0.3858                 0.4399
 IR Inten    --      7.9728                 1.7501                 3.3731

                     13                     14                     15
                      A                      A                      A
 Frequencies --    486.4176               599.3962               620.2149
 Red. masses --      3.5440                 3.9691                 2.8451
 Frc consts  --      0.4940                 0.8402                 0.6448
 IR Inten    --      5.1006                45.4057                 9.3675

                     16                     17                     18
                      A                      A                      A
 Frequencies --    652.3993               779.1123               860.1245
 Red. masses --      3.0870                 4.0327                 1.5948
 Frc consts  --      0.7741                 1.4423                 0.6952
 IR Inten    --     17.8605                21.0201                60.5449

                     19                     20                     21
                      A                      A                      A
 Frequencies --    904.8629               976.0343              1000.4871
 Red. masses --      2.2369                 1.8130                 1.6460
 Frc consts  --      1.0791                 1.0176                 0.9707
 IR Inten    --     12.5991                31.6790                 4.6046

                     22                     23                     24
                      A                      A                      A
 Frequencies --   1042.2594              1062.7257              1067.8929
 Red. masses --      1.6713                 1.8085                 1.7314
 Frc consts  --      1.0697                 1.2034                 1.1633
 IR Inten    --      1.4576                 5.1360                 7.6736

                     25                     26                     27
                      A                      A                      A
 Frequencies --   1095.6004              1160.4357              1234.4709
 Red. masses --      2.7306                 2.2494                 3.1311
 Frc consts  --      1.9311                 1.7847                 2.8113
 IR Inten    --     32.3997                50.6126                96.2455

                     28                     29                     30
                      A                      A                      A
 Frequencies --   1281.1740              1294.0769              1397.4717
 Red. masses --      2.1641                 2.1776                 1.2804
 Frc consts  --      2.0928                 2.1485                 1.4733
 IR Inten    --    243.5020               156.7612                12.1990

                     31                     32                     33
                      A                      A                      A
 Frequencies --   1400.7604              1415.3139              1443.6701
 Red. masses --      1.2777                 1.3584                 1.0851
 Frc consts  --      1.4771                 1.6032                 1.3325
 IR Inten    --     32.0194                36.1631                44.4935

                     34                     35                     36
                      A                      A                      A
 Frequencies --   1445.3800              1458.7662              1471.7845
 Red. masses --      1.3514                 1.2406                 1.0488
 Frc consts  --      1.6635                 1.5555                 1.3386
 IR Inten    --     34.4883                 3.0721                 7.8706

                     37                     38                     39
                      A                      A                      A
 Frequencies --   1491.0869              1497.1651              1653.4247
 Red. masses --      1.0566                 1.0669                 1.0967
 Frc consts  --      1.3842                 1.4090                 1.7665
 IR Inten    --      6.1932                 0.7430                33.4292

                     40                     41                     42
                      A                      A                      A
 Frequencies --   1779.9100              1804.7922              3033.9133
 Red. masses --     10.5754                 8.6585                 1.0828
 Frc consts  --     19.7398                16.6168                 5.8721
 IR Inten    --    222.7259               266.0965                22.3676

                     43                     44                     45
                      A                      A                      A
 Frequencies --   3041.1695              3067.1230              3082.0121
 Red. masses --      1.0404                 1.0341                 1.0862
 Frc consts  --      5.6693                 5.7314                 6.0791
 IR Inten    --     24.6031                 2.4122                 1.0236

                     46                     47                     48
                      A                      A                      A
 Frequencies --   3111.7028              3132.4144              3139.2341
 Red. masses --      1.0997                 1.1017                 1.0982
 Frc consts  --      6.2737                 6.3688                 6.3763
 IR Inten    --     26.0467                11.9933                 1.7690

                     49                     50                     51
                      A                      A                      A
 Frequencies --   3164.6832              3501.4643              3586.3097
 Red. masses --      1.1062                 1.0500                 1.0924
 Frc consts  --      6.5277                 7.5846                 8.2783
 IR Inten    --     10.5038                 1.0094                 1.8875

 - Thermochemistry -
 -------------------
 Temperature   298.150 Kelvin.  Pressure   1.00000 Atm.
 Atom     1 has atomic number  6 and mass  12.00000

 Molecular mass:   130.07423 amu.
 Principal axes and moments of inertia in atomic units:
                           1         2         3
     Eigenvalues --   850.800661313.580921793.47132
           X            0.99993  -0.00445  -0.01091
           Y            0.00435   0.99995  -0.00892
           Z            0.01095   0.00887   0.99990
 This molecule is an asymmetric top.
 Rotational symmetry number  1.
 Warning -- assumption of classical behavior for rotation
           may cause significant error
 Rotational temperatures (Kelvin)      0.10180     0.06594     0.04829
 Rotational constants (GHZ):           2.12123     1.37391     1.00628
 Zero-point vibrational energy     413541.0 (Joules/Mol)
                                   98.83867 (Kcal/Mol)
 Warning -- explicit consideration of  15 degrees of freedom as
           vibrations may cause significant error
 Vibrational temperatures:     57.29    95.33   185.04   295.55   300.59
          (Kelvin)            346.33   368.35   379.76   407.68   496.25
                              595.48   646.84   699.85   862.40   892.35
                              938.66  1120.97  1237.53  1301.90  1404.30
                             1439.48  1499.58  1529.03  1536.46  1576.32
                             1669.61  1776.13  1843.32  1861.89  2010.65
                             2015.38  2036.32  2077.12  2079.58  2098.84
                             2117.57  2145.34  2154.09  2378.91  2560.89
                             2596.69  4365.12  4375.56  4412.91  4434.33
                             4477.05  4506.85  4516.66  4553.27  5037.83
                             5159.90

 Zero-point correction=                           0.157509 (Hartree/Particle)
 Thermal correction to Energy=                    0.167781
 Thermal correction to Enthalpy=                  0.168725
 Thermal correction to Gibbs Free Energy=         0.121697
 Sum of electronic and zero-point Energies=           -456.396825
 Sum of electronic and thermal Energies=              -456.386553
 Sum of electronic and thermal Enthalpies=            -456.385609
 Sum of electronic and thermal Free Energies=         -456.432637

                     E (Thermal)             CV                S
                      KCal/Mol        Cal/Mol-Kelvin    Cal/Mol-Kelvin
 Total                  105.284             36.477             98.979
 Electronic               0.000              0.000              0.000
 Translational            0.889              2.981             40.502
 Rotational               0.889              2.981             29.084
 Vibrational            103.507             30.516             29.393
 Vibration     1          0.594              1.981              5.268
 Vibration     2          0.598              1.970              4.262
 Vibration     3          0.611              1.925              2.967
 Vibration     4          0.640              1.832              2.084
 Vibration     5          0.642              1.827              2.053
 Vibration     6          0.658              1.778              1.798
 Vibration     7          0.666              1.753              1.689
 Vibration     8          0.670              1.739              1.636
 Vibration     9          0.682              1.705              1.513
 Vibration    10          0.723              1.586              1.189
 Vibration    11          0.777              1.440              0.913
 Vibration    12          0.808              1.362              0.797
 Vibration    13          0.842              1.280              0.693
 Vibration    14          0.957              1.033              0.451
 Vibration    15          0.980              0.989              0.416

 Optimization completed.
    -- Stationary point found.
 Normal termination of Gaussian 16 at Sun Jul  3 22:34:49 2022.
