 Gaussian 16, Revision A.03,
 Gaussian 16:  ES64L-G16RevA.03 25-Dec-2016

 -----------------------------
 # opt freq b3lyp/6-31g(2df,p)
 -----------------------------

 -------------------
 Title Card Required
 -------------------
 Symbolic Z-matrix:
 Charge =  0 Multiplicity = 1

 SCF Done:  E(RB3LYP) =  -401.881582456     A.U. after   13 cycles
 SCF Done:  E(RB3LYP) =  -401.888037280     A.U. after   11 cycles
 SCF Done:  E(RB3LYP) =  -401.892007757     A.U. after   12 cycles
 SCF Done:  E(RB3LYP) =  -401.896748159     A.U. after   12 cycles
 SCF Done:  E(RB3LYP) =  -401.898354896     A.U. after   11 cycles
 SCF Done:  E(RB3LYP) =  -401.898977029     A.U. after   10 cycles
 SCF Done:  E(RB3LYP) =  -401.899219299     A.U. after    9 cycles
 SCF Done:  E(RB3LYP) =  -401.899348368     A.U. after   11 cycles
 SCF Done:  E(RB3LYP) =  -401.899558453     A.U. after    9 cycles
 SCF Done:  E(RB3LYP) =  -401.899849865     A.U. after   10 cycles
 SCF Done:  E(RB3LYP) =  -401.899885906     A.U. after    9 cycles
 SCF Done:  E(RB3LYP) =  -401.899898565     A.U. after    9 cycles
 SCF Done:  E(RB3LYP) =  -401.899900575     A.U. after    7 cycles
 SCF Done:  E(RB3LYP) =  -401.899907645     A.U. after    8 cycles
 SCF Done:  E(RB3LYP) =  -401.899911368     A.U. after    9 cycles
 SCF Done:  E(RB3LYP) =  -401.899912153     A.U. after    8 cycles
 SCF Done:  E(RB3LYP) =  -401.899912311     A.U. after    7 cycles
 SCF Done:  E(RB3LYP) =  -401.899912371     A.U. after    6 cycles
 Optimization completed.
    -- Stationary point found.
 Normal termination of Gaussian 16 at Sun Jul  3 10:39:10 2022.

 ----------------------------------------------------------------------
 #N Geom=AllCheck Guess=TCheck SCRF=Check GenChk RB3LYP/6-31G(2df,p) Fr
 eq
 ----------------------------------------------------------------------

 Structure from the checkpoint file:  "CCpdCNNpCpCppCpN.chk"
 -------------------
 Title Card Required
 -------------------
 Charge =  0 Multiplicity = 1

                         Standard orientation:
 ---------------------------------------------------------------------
 Center     Atomic      Atomic             Coordinates (Angstroms)
 Number     Number       Type             X           Y           Z
 ---------------------------------------------------------------------
      1          6           0        0.047034    1.922077   -0.110688
      2          6           0        0.002084    0.414883    0.016188
      3          6           0        1.134191   -0.285248    0.185757
      4          7           0        2.426092    0.229050    0.332831
      5          7           0        3.506239   -0.502037   -0.239580
      6          6           0       -1.375631   -0.272603   -0.002537
      7          6           0       -2.272494    0.327104    1.100070
      8          6           0       -2.045843   -0.078900   -1.379373
      9          7           0       -1.348732   -1.724880    0.231367
     10          1           0        0.934056    2.257581   -0.663147
     11          1           0        0.073067    2.422507    0.866257
     12          1           0       -0.821296    2.315918   -0.644607
     13          1           0        1.110227   -1.365597    0.290065
     14          1           0        2.520867    1.205622    0.089993
     15          1           0        3.199881   -0.982451   -1.085400
     16          1           0        3.788370   -1.215750    0.426166
     17          1           0       -2.405175    1.404736    0.972702
     18          1           0       -1.829135    0.159911    2.087942
     19          1           0       -3.255699   -0.151120    1.079634
     20          1           0       -2.182920    0.976706   -1.626412
     21          1           0       -3.025837   -0.563978   -1.383767
     22          1           0       -1.434017   -0.528842   -2.168932
     23          1           0       -0.895261   -1.927496    1.118373
     24          1           0       -0.798357   -2.186554   -0.487703
 ---------------------------------------------------------------------

 SCF Done:  E(RB3LYP) =  -401.899912371     A.U. after    1 cycles

 The electronic state is 1-A.
 Alpha  occ. eigenvalues --  -14.35112 -14.34266 -14.30110 -10.21600 -10.19581
 Alpha  occ. eigenvalues --  -10.17801 -10.16840 -10.16628 -10.16501  -0.96839
 Alpha  occ. eigenvalues --   -0.88630  -0.80670  -0.75975  -0.72037  -0.68013
 Alpha  occ. eigenvalues --   -0.67006  -0.58641  -0.53378  -0.50577  -0.48989
 Alpha  occ. eigenvalues --   -0.47615  -0.47124  -0.44294  -0.42602  -0.41482
 Alpha  occ. eigenvalues --   -0.38492  -0.37939  -0.37262  -0.36927  -0.34089
 Alpha  occ. eigenvalues --   -0.33571  -0.33096  -0.30525  -0.26232  -0.23403
 Alpha  occ. eigenvalues --   -0.19204
 Alpha virt. eigenvalues --    0.03694   0.07588   0.08971   0.09508   0.12790
 Alpha virt. eigenvalues --    0.13378   0.14129   0.14494   0.15493   0.16011
 Alpha virt. eigenvalues --    0.16662   0.17733   0.19136   0.21219   0.21440

 Mulliken charges:
               1
     1  C   -0.506287
     2  C    0.235513
     3  C   -0.081137
     4  N   -0.294431
     5  N   -0.466870
     6  C    0.165894
     7  C   -0.387379
     8  C   -0.387403
     9  N   -0.529141
    10  H    0.109346
    11  H    0.128854
    12  H    0.122989
    13  H    0.064223
    14  H    0.241017
    15  H    0.227696
    16  H    0.245030
    17  H    0.109826
    18  H    0.107162
    19  H    0.119258
    20  H    0.110681
    21  H    0.120384
    22  H    0.103646
    23  H    0.221257
    24  H    0.219872
 Sum of Mulliken charges =  -0.00000

 Dipole moment (field-independent basis, Debye):
    X=              0.6528    Y=             -0.3488    Z=             -0.4870  Tot=              0.8860
 Quadrupole moment (field-independent basis, Debye-Ang):
   XX=            -63.4879   YY=            -53.6193   ZZ=            -57.0027
   XY=             -6.4465   XZ=             -0.3983   YZ=             -0.0351

  Exact polarizability: 114.924  -9.039  87.575   0.671  -0.070  72.437
 Approx polarizability: 156.024 -16.614 129.034   3.859  -1.249 107.414

                      1                      2                      3
                      A                      A                      A
 Frequencies --     54.7373               101.1970               121.3564
 Red. masses --      2.7280                 2.2596                 1.4902
 Frc consts  --      0.0048                 0.0136                 0.0129
 IR Inten    --      0.8130                 2.4378                 0.0864

                      4                      5                      6
                      A                      A                      A
 Frequencies --    140.1802               204.6287               228.4428
 Red. masses --      2.7028                 1.3835                 1.3945
 Frc consts  --      0.0313                 0.0341                 0.0429
 IR Inten    --      2.5998                 2.1004                 8.6949

                      7                      8                      9
                      A                      A                      A
 Frequencies --    256.3347               274.3023               294.9458
 Red. masses --      1.0747                 1.9205                 2.0288
 Frc consts  --      0.0416                 0.0851                 0.1040
 IR Inten    --      0.5411                 2.9100                 2.9952

                     10                     11                     12
                      A                      A                      A
 Frequencies --    327.7859               352.7541               360.5491
 Red. masses --      2.7468                 1.1504                 1.7679
 Frc consts  --      0.1739                 0.0843                 0.1354
 IR Inten    --      3.3153                20.6609                22.7440

                     13                     14                     15
                      A                      A                      A
 Frequencies --    380.7556               409.8728               460.7885
 Red. masses --      2.7674                 2.4834                 2.5142
 Frc consts  --      0.2364                 0.2458                 0.3145
 IR Inten    --      3.6043                11.3900                11.5546

                     16                     17                     18
                      A                      A                      A
 Frequencies --    514.3343               550.4992               557.6435
 Red. masses --      3.2823                 2.4559                 2.7098
 Frc consts  --      0.5116                 0.4385                 0.4965
 IR Inten    --     13.2196                 4.4867                 5.1569

                     19                     20                     21
                      A                      A                      A
 Frequencies --    679.8348               752.3330               849.6994
 Red. masses --      1.5514                 3.3412                 1.6256
 Frc consts  --      0.4224                 1.1142                 0.6915
 IR Inten    --    156.2254                31.4483               127.3916

                     22                     23                     24
                      A                      A                      A
 Frequencies --    879.5069               911.5624               929.6739
 Red. masses --      2.1091                 1.4777                 1.5616
 Frc consts  --      0.9612                 0.7234                 0.7952
 IR Inten    --     50.5813                25.7821                40.5509

                     25                     26                     27
                      A                      A                      A
 Frequencies --    932.1371               990.8951              1002.4044
 Red. masses --      1.5592                 1.8368                 1.2804
 Frc consts  --      0.7982                 1.0626                 0.7580
 IR Inten    --     18.6966                 7.4230                 0.4900

                     28                     29                     30
                      A                      A                      A
 Frequencies --   1009.4988              1043.1161              1071.2107
 Red. masses --      1.6635                 1.4145                 1.6031
 Frc consts  --      0.9988                 0.9068                 1.0838
 IR Inten    --     11.7072                 1.8868                 2.8010

                     31                     32                     33
                      A                      A                      A
 Frequencies --   1108.5508              1183.4517              1211.2543
 Red. masses --      1.8605                 2.4445                 3.5213
 Frc consts  --      1.3470                 2.0172                 3.0439
 IR Inten    --      2.8493                92.9594                53.1010

                     34                     35                     36
                      A                      A                      A
 Frequencies --   1250.1251              1264.1590              1319.0863
 Red. masses --      3.0289                 2.9813                 1.2598
 Frc consts  --      2.7889                 2.8071                 1.2915
 IR Inten    --      2.5115                29.4436                16.2831

                     37                     38                     39
                      A                      A                      A
 Frequencies --   1321.6310              1358.4778              1390.1511
 Red. masses --      1.7262                 1.3004                 1.2607
 Frc consts  --      1.7764                 1.4139                 1.4354
 IR Inten    --      2.5057                 3.4768                 7.7172

                     40                     41                     42
                      A                      A                      A
 Frequencies --   1407.0920              1418.1950              1471.6970
 Red. masses --      1.3055                 1.2283                 1.1441
 Frc consts  --      1.5229                 1.4555                 1.4600
 IR Inten    --      4.9182                 2.0200                 1.6268

                     43                     44                     45
                      A                      A                      A
 Frequencies --   1480.1343              1482.9805              1494.6900
 Red. masses --      1.0653                 1.0460                 1.0738
 Frc consts  --      1.3751                 1.3553                 1.4134
 IR Inten    --      0.1010                 0.0185                 2.5640

                     46                     47                     48
                      A                      A                      A
 Frequencies --   1496.3286              1498.2561              1510.4800
 Red. masses --      1.0551                 1.0518                 1.0652
 Frc consts  --      1.3918                 1.3911                 1.4320
 IR Inten    --      2.4566                 1.1166                 9.7550

                     49                     50                     51
                      A                      A                      A
 Frequencies --   1656.3388              1683.7395              1717.9577
 Red. masses --      1.0989                 1.0808                 5.2281
 Frc consts  --      1.7763                 1.8052                 9.0912
 IR Inten    --     11.9639                29.2877                64.2639

                     52                     53                     54
                      A                      A                      A
 Frequencies --   3009.1772              3032.9454              3037.8409
 Red. masses --      1.0410                 1.0359                 1.0373
 Frc consts  --      5.5538                 5.6144                 5.6398
 IR Inten    --     31.5171                32.4555                 8.5153

                     55                     56                     57
                      A                      A                      A
 Frequencies --   3052.3228              3101.5049              3102.6177
 Red. masses --      1.0992                 1.0971                 1.0998
 Frc consts  --      6.0337                 6.2181                 6.2374
 IR Inten    --     31.3175                 7.7391                12.6171

                     58                     59                     60
                      A                      A                      A
 Frequencies --   3108.8409              3119.3779              3125.5709
 Red. masses --      1.0965                 1.1019                 1.1004
 Frc consts  --      6.2442                 6.3172                 6.3339
 IR Inten    --     63.9121                 2.2499                43.7167

                     61                     62                     63
                      A                      A                      A
 Frequencies --   3171.0237              3430.4899              3475.9318
 Red. masses --      1.0869                 1.0506                 1.0482
 Frc consts  --      6.4391                 7.2842                 7.4619
 IR Inten    --      8.5230                19.4076                 1.6403

                     64                     65                     66
                      A                      A                      A
 Frequencies --   3532.1295              3559.5788              3573.2989
 Red. masses --      1.0911                 1.0923                 1.0751
 Frc consts  --      8.0199                 8.1545                 8.0879
 IR Inten    --      2.0367                 0.2157                 5.9725

 - Thermochemistry -
 -------------------
 Temperature   298.150 Kelvin.  Pressure   1.00000 Atm.
 Atom     1 has atomic number  6 and mass  12.00000

 Molecular mass:   129.12660 amu.
 Principal axes and moments of inertia in atomic units:
                           1         2         3
     Eigenvalues --   683.255622011.142002255.49937
           X            0.99990  -0.01412  -0.00167
           Y            0.01412   0.99990   0.00217
           Z            0.00164  -0.00219   1.00000
 This molecule is an asymmetric top.
 Rotational symmetry number  1.
 Warning -- assumption of classical behavior for rotation
           may cause significant error
 Rotational temperatures (Kelvin)      0.12677     0.04307     0.03840
 Rotational constants (GHZ):           2.64139     0.89737     0.80015
 Zero-point vibrational energy     567032.4 (Joules/Mol)
                                  135.52399 (Kcal/Mol)
 Warning -- explicit consideration of  18 degrees of freedom as
           vibrations may cause significant error
 Vibrational temperatures:     78.75   145.60   174.60   201.69   294.42
          (Kelvin)            328.68   368.81   394.66   424.36   471.61
                              507.53   518.75   547.82   589.72   662.97
                              740.01   792.05   802.32   978.13  1082.44
                             1222.53  1265.41  1311.53  1337.59  1341.14
                             1425.68  1442.24  1452.44  1500.81  1541.23
                             1594.96  1702.72  1742.72  1798.65  1818.84
                             1897.87  1901.53  1954.55  2000.12  2024.49
                             2040.47  2117.44  2129.58  2133.68  2150.53
                             2152.88  2155.66  2173.24  2383.10  2422.53
                             2471.76  4329.53  4363.73  4370.78  4391.61
                             4462.37  4463.97  4472.93  4488.09  4497.00
                             4562.40  4935.71  5001.09  5081.95  5121.44
                             5141.18

 Zero-point correction=                           0.215971 (Hartree/Particle)
 Thermal correction to Energy=                    0.227544
 Thermal correction to Enthalpy=                  0.228488
 Thermal correction to Gibbs Free Energy=         0.179671
 Sum of electronic and zero-point Energies=           -401.683941
 Sum of electronic and thermal Energies=              -401.672369
 Sum of electronic and thermal Enthalpies=            -401.671424
 Sum of electronic and thermal Free Energies=         -401.720241

                     E (Thermal)             CV                S
                      KCal/Mol        Cal/Mol-Kelvin    Cal/Mol-Kelvin
 Total                  142.786             43.306            102.744
 Electronic               0.000              0.000              0.000
 Translational            0.889              2.981             40.480
 Rotational               0.889              2.981             29.518
 Vibrational            141.008             37.344             32.746
 Vibration     1          0.596              1.976              4.638
 Vibration     2          0.604              1.948              3.431
 Vibration     3          0.609              1.931              3.079
 Vibration     4          0.615              1.913              2.801
 Vibration     5          0.640              1.833              2.091
 Vibration     6          0.651              1.798              1.891
 Vibration     7          0.666              1.752              1.687
 Vibration     8          0.677              1.721              1.569
 Vibration     9          0.689              1.683              1.445
 Vibration    10          0.711              1.620              1.271
 Vibration    11          0.729              1.570              1.154
 Vibration    12          0.735              1.554              1.120
 Vibration    13          0.750              1.511              1.036
 Vibration    14          0.774              1.449              0.927
 Vibration    15          0.819              1.337              0.764
 Vibration    16          0.869              1.218              0.623
 Vibration    17          0.906              1.139              0.543
 Vibration    18          0.913              1.123              0.529

 Optimization completed.
    -- Stationary point found.
 Normal termination of Gaussian 16 at Sun Jul  3 11:21:11 2022.
