 Gaussian 16, Revision A.03,
 Gaussian 16:  ES64L-G16RevA.03 25-Dec-2016

 -----------------------------
 # opt freq b3lyp/6-31g(2df,p)
 -----------------------------

 -------------------
 Title Card Required
 -------------------
 Symbolic Z-matrix:
 Charge =  0 Multiplicity = 1

 SCF Done:  E(RB3LYP) =  -382.490185567     A.U. after   13 cycles
 SCF Done:  E(RB3LYP) =  -382.496423481     A.U. after   11 cycles
 SCF Done:  E(RB3LYP) =  -382.498127078     A.U. after   11 cycles
 SCF Done:  E(RB3LYP) =  -382.499000412     A.U. after   11 cycles
 SCF Done:  E(RB3LYP) =  -382.499471281     A.U. after   11 cycles
 SCF Done:  E(RB3LYP) =  -382.499839561     A.U. after   11 cycles
 SCF Done:  E(RB3LYP) =  -382.500076038     A.U. after   10 cycles
 SCF Done:  E(RB3LYP) =  -382.500157697     A.U. after   10 cycles
 SCF Done:  E(RB3LYP) =  -382.500175874     A.U. after   10 cycles
 SCF Done:  E(RB3LYP) =  -382.500186187     A.U. after    9 cycles
 SCF Done:  E(RB3LYP) =  -382.500730921     A.U. after   11 cycles
 SCF Done:  E(RB3LYP) =  -382.500624734     A.U. after   11 cycles
 SCF Done:  E(RB3LYP) =  -382.500744775     A.U. after   11 cycles
 SCF Done:  E(RB3LYP) =  -382.500698607     A.U. after   10 cycles
 SCF Done:  E(RB3LYP) =  -382.500750375     A.U. after   11 cycles
 SCF Done:  E(RB3LYP) =  -382.500744469     A.U. after    9 cycles
 SCF Done:  E(RB3LYP) =  -382.500752804     A.U. after    9 cycles
 SCF Done:  E(RB3LYP) =  -382.500749416     A.U. after    9 cycles
 SCF Done:  E(RB3LYP) =  -382.500752855     A.U. after    9 cycles
 Optimization completed.
    -- Stationary point found.
 Normal termination of Gaussian 16 at Sun Jul  3 17:29:24 2022.

 ----------------------------------------------------------------------
 #N Geom=AllCheck Guess=TCheck SCRF=Check GenChk RB3LYP/6-31G(2df,p) Fr
 eq
 ----------------------------------------------------------------------

 Structure from the checkpoint file:  "CCpdNpNpCpCpCpO.chk"
 -------------------
 Title Card Required
 -------------------
 Charge =  0 Multiplicity = 1

                         Standard orientation:
 ---------------------------------------------------------------------
 Center     Atomic      Atomic             Coordinates (Angstroms)
 Number     Number       Type             X           Y           Z
 ---------------------------------------------------------------------
      1          6           0        2.558158    0.422886    0.041123
      2          6           0        1.268969   -0.359797   -0.125626
      3          7           0        1.215307   -1.634956   -0.289901
      4          7           0        0.101106    0.371520   -0.113945
      5          6           0        0.029215    1.715475    0.426472
      6          6           0       -1.163156   -0.359433   -0.313179
      7          6           0       -1.691584   -0.978796    0.979147
      8          8           0       -2.117938    0.485229   -0.925755
      9          1           0        3.408865   -0.253895   -0.054149
     10          1           0        2.616645    0.904908    1.022621
     11          1           0        2.655597    1.208109   -0.715813
     12          1           0        2.154320   -2.019712   -0.353625
     13          1           0        0.876915    2.317293    0.095348
     14          1           0        0.001689    1.744525    1.527197
     15          1           0       -0.873933    2.190734    0.041554
     16          1           0       -0.925959   -1.153194   -1.022968
     17          1           0       -1.895633   -0.207208    1.732664
     18          1           0       -0.950172   -1.673008    1.379637
     19          1           0       -2.617513   -1.528356    0.783476
     20          1           0       -2.731820    0.790018   -0.250605
 ---------------------------------------------------------------------

 SCF Done:  E(RB3LYP) =  -382.500752855     A.U. after    1 cycles

 The electronic state is 1-A.
 Alpha  occ. eigenvalues --  -19.14049 -14.33730 -14.27454 -10.25346 -10.24356
 Alpha  occ. eigenvalues --  -10.21154 -10.18948 -10.17369  -1.03119  -0.94542
 Alpha  occ. eigenvalues --   -0.85053  -0.75017  -0.71842  -0.69155  -0.62848
 Alpha  occ. eigenvalues --   -0.54890  -0.50727  -0.47477  -0.46593  -0.44718
 Alpha  occ. eigenvalues --   -0.43364  -0.42244  -0.41384  -0.40392  -0.39318
 Alpha  occ. eigenvalues --   -0.37573  -0.36656  -0.33652  -0.30604  -0.29013
 Alpha  occ. eigenvalues --   -0.24167  -0.21001
 Alpha virt. eigenvalues --    0.04220   0.06975   0.09321   0.11334   0.12898
 Alpha virt. eigenvalues --    0.13529   0.14823   0.15911   0.16274   0.17957
 Alpha virt. eigenvalues --    0.19002   0.19748   0.20321   0.21049   0.23038

 Mulliken charges:
               1
     1  C   -0.480669
     2  C    0.362465
     3  N   -0.537947
     4  N   -0.061950
     5  C   -0.350947
     6  C    0.159545
     7  C   -0.430081
     8  O   -0.430632
     9  H    0.125181
    10  H    0.136324
    11  H    0.140624
    12  H    0.204466
    13  H    0.130891
    14  H    0.109636
    15  H    0.134141
    16  H    0.127042
    17  H    0.102741
    18  H    0.153994
    19  H    0.121586
    20  H    0.283589
 Sum of Mulliken charges =  -0.00000

 Dipole moment (field-independent basis, Debye):
    X=              0.5226    Y=              2.0876    Z=              1.8924  Tot=              2.8657
 Quadrupole moment (field-independent basis, Debye-Ang):
   XX=            -42.2873   YY=            -51.0149   ZZ=            -52.2650
   XY=             -0.0444   XZ=             -3.2980   YZ=              0.8968

  Exact polarizability:  84.918  -3.610  79.044  -2.146   3.794  56.192
 Approx polarizability: 108.377  -9.601 121.740  -0.853   6.693  84.753

                      1                      2                      3
                      A                      A                      A
 Frequencies --     75.6499                95.6376               116.2290
 Red. masses --      3.0423                 3.5529                 1.0994
 Frc consts  --      0.0103                 0.0191                 0.0088
 IR Inten    --      0.8344                 5.3645                 7.6479

                      4                      5                      6
                      A                      A                      A
 Frequencies --    153.8937               212.6837               240.1577
 Red. masses --      2.9825                 1.0581                 1.8909
 Frc consts  --      0.0416                 0.0282                 0.0643
 IR Inten    --      5.4281                 0.6697                 5.0874

                      7                      8                      9
                      A                      A                      A
 Frequencies --    269.9599               275.9806               347.5861
 Red. masses --      1.3964                 1.4282                 2.4847
 Frc consts  --      0.0600                 0.0641                 0.1769
 IR Inten    --     29.8869                43.4799                 8.7681

                     10                     11                     12
                      A                      A                      A
 Frequencies --    388.7601               429.0430               471.5612
 Red. masses --      2.0632                 3.8648                 2.6805
 Frc consts  --      0.1837                 0.4192                 0.3512
 IR Inten    --      2.5750                 3.3872                 6.0735

                     13                     14                     15
                      A                      A                      A
 Frequencies --    554.5852               582.3234               592.5093
 Red. masses --      3.5452                 2.9384                 2.8875
 Frc consts  --      0.6424                 0.5871                 0.5973
 IR Inten    --      9.3091                11.4753                11.8749

                     16                     17                     18
                      A                      A                      A
 Frequencies --    753.9077               808.4240               876.7179
 Red. masses --      2.9196                 1.1453                 3.1701
 Frc consts  --      0.9777                 0.4410                 1.4356
 IR Inten    --      4.3194                32.5432                 7.5888

                     19                     20                     21
                      A                      A                      A
 Frequencies --    938.4473              1018.8629              1049.6015
 Red. masses --      2.2291                 1.6428                 1.8261
 Frc consts  --      1.1566                 1.0048                 1.1853
 IR Inten    --     25.1100                44.7622                10.7178

                     22                     23                     24
                      A                      A                      A
 Frequencies --   1056.8068              1062.4788              1104.9276
 Red. masses --      1.6294                 1.5847                 1.5605
 Frc consts  --      1.0722                 1.0540                 1.1225
 IR Inten    --     29.8607                82.7762                83.0212

                     25                     26                     27
                      A                      A                      A
 Frequencies --   1144.1242              1147.7342              1238.2082
 Red. masses --      2.0160                 1.4725                 1.5903
 Frc consts  --      1.5548                 1.1428                 1.4366
 IR Inten    --     60.3867                42.2797                76.7374

                     28                     29                     30
                      A                      A                      A
 Frequencies --   1263.5671              1319.0415              1389.1706
 Red. masses --      3.7253                 1.4455                 1.2142
 Frc consts  --      3.5044                 1.4818                 1.3805
 IR Inten    --     74.2947                 5.4749                 4.9333

                     31                     32                     33
                      A                      A                      A
 Frequencies --   1395.8622              1408.4059              1424.7330
 Red. masses --      1.2282                 1.2559                 1.4012
 Frc consts  --      1.4099                 1.4677                 1.6758
 IR Inten    --      2.3945                57.4932                28.7469

                     34                     35                     36
                      A                      A                      A
 Frequencies --   1442.6948              1470.2879              1478.4074
 Red. masses --      1.5524                 1.3602                 1.0597
 Frc consts  --      1.9037                 1.7324                 1.3646
 IR Inten    --     59.9339                53.4221                14.1426

                     37                     38                     39
                      A                      A                      A
 Frequencies --   1486.0052              1492.4481              1500.6397
 Red. masses --      1.1056                 1.2225                 1.0466
 Frc consts  --      1.4384                 1.6044                 1.3886
 IR Inten    --     11.0914                14.8428                 5.3041

                     40                     41                     42
                      A                      A                      A
 Frequencies --   1509.8584              1519.3309              1673.0202
 Red. masses --      1.0796                 1.1170                 6.5622
 Frc consts  --      1.4501                 1.5192                10.8219
 IR Inten    --      8.2499                25.0637               209.5303

                     43                     44                     45
                      A                      A                      A
 Frequencies --   2976.7907              3024.2252              3038.2480
 Red. masses --      1.0597                 1.0412                 1.0378
 Frc consts  --      5.5328                 5.6106                 5.6442
 IR Inten    --     64.6877                22.4488                 9.8684

                     46                     47                     48
                      A                      A                      A
 Frequencies --   3091.9056              3098.6744              3102.6902
 Red. masses --      1.0922                 1.0987                 1.0748
 Frc consts  --      6.1517                 6.2155                 6.0963
 IR Inten    --     13.1672                15.5751                21.6126

                     49                     50                     51
                      A                      A                      A
 Frequencies --   3113.8257              3133.3890              3137.7330
 Red. masses --      1.0906                 1.1003                 1.0995
 Frc consts  --      6.2300                 6.3646                 6.3782
 IR Inten    --     17.7859                20.1197                 7.1851

                     52                     53                     54
                      A                      A                      A
 Frequencies --   3142.9445              3510.2479              3820.9411
 Red. masses --      1.1006                 1.0750                 1.0665
 Frc consts  --      6.4058                 7.8043                 9.1743
 IR Inten    --      6.0406                 0.5596                23.2045

 - Thermochemistry -
 -------------------
 Temperature   298.150 Kelvin.  Pressure   1.00000 Atm.
 Atom     1 has atomic number  6 and mass  12.00000

 Molecular mass:   116.09496 amu.
 Principal axes and moments of inertia in atomic units:
                           1         2         3
     Eigenvalues --   580.599551191.457751481.91071
           X            0.99930   0.03168  -0.01970
           Y           -0.03148   0.99945   0.01040
           Z            0.02002  -0.00978   0.99975
 This molecule is an asymmetric top.
 Rotational symmetry number  1.
 Warning -- assumption of classical behavior for rotation
           may cause significant error
 Rotational temperatures (Kelvin)      0.14918     0.07270     0.05845
 Rotational constants (GHZ):           3.10841     1.51473     1.21785
 Zero-point vibrational energy     460394.1 (Joules/Mol)
                                  110.03684 (Kcal/Mol)
 Warning -- explicit consideration of  15 degrees of freedom as
           vibrations may cause significant error
 Vibrational temperatures:    108.84   137.60   167.23   221.42   306.00
          (Kelvin)            345.53   388.41   397.07   500.10   559.34
                              617.30   678.47   797.92   837.83   852.49
                             1084.70  1163.14  1261.40  1350.22  1465.92
                             1510.14  1520.51  1528.67  1589.74  1646.14
                             1651.33  1781.51  1817.99  1897.81  1998.71
                             2008.33  2026.38  2049.87  2075.72  2115.42
                             2127.10  2138.03  2147.30  2159.09  2172.35
                             2185.98  2407.10  4282.94  4351.19  4371.36
                             4448.56  4458.30  4464.08  4480.10  4508.25
                             4514.50  4522.00  5050.46  5497.48

 Zero-point correction=                           0.175355 (Hartree/Particle)
 Thermal correction to Energy=                    0.185313
 Thermal correction to Enthalpy=                  0.186257
 Thermal correction to Gibbs Free Energy=         0.140832
 Sum of electronic and zero-point Energies=           -382.325398
 Sum of electronic and thermal Energies=              -382.315440
 Sum of electronic and thermal Enthalpies=            -382.314496
 Sum of electronic and thermal Free Energies=         -382.359921

                     E (Thermal)             CV                S
                      KCal/Mol        Cal/Mol-Kelvin    Cal/Mol-Kelvin
 Total                  116.286             35.802             95.606
 Electronic               0.000              0.000              0.000
 Translational            0.889              2.981             40.163
 Rotational               0.889              2.981             28.418
 Vibrational            114.508             29.841             27.025
 Vibration     1          0.599              1.965              4.001
 Vibration     2          0.603              1.952              3.541
 Vibration     3          0.608              1.936              3.162
 Vibration     4          0.619              1.898              2.624
 Vibration     5          0.644              1.822              2.021
 Vibration     6          0.657              1.779              1.802
 Vibration     7          0.674              1.728              1.596
 Vibration     8          0.678              1.718              1.558
 Vibration     9          0.725              1.580              1.177
 Vibration    10          0.757              1.494              1.005
 Vibration    11          0.790              1.407              0.862
 Vibration    12          0.829              1.313              0.733
 Vibration    13          0.910              1.130              0.535
 Vibration    14          0.939              1.070              0.481
 Vibration    15          0.950              1.048              0.463

 Optimization completed.
    -- Stationary point found.
 Normal termination of Gaussian 16 at Sun Jul  3 17:55:05 2022.
