 Gaussian 16, Revision A.03,
 Gaussian 16:  ES64L-G16RevA.03 25-Dec-2016

 -----------------------------
 # opt freq b3lyp/6-31g(2df,p)
 -----------------------------

 -------------------
 Title Card Required
 -------------------
 Symbolic Z-matrix:
 Charge =  0 Multiplicity = 1

 SCF Done:  E(RB3LYP) =  -417.216825217     A.U. after   14 cycles
 SCF Done:  E(RB3LYP) =  -417.214619666     A.U. after   13 cycles
 SCF Done:  E(RB3LYP) =  -417.220117387     A.U. after   12 cycles
 SCF Done:  E(RB3LYP) =  -417.223382685     A.U. after   13 cycles
 SCF Done:  E(RB3LYP) =  -417.224702542     A.U. after   13 cycles
 SCF Done:  E(RB3LYP) =  -417.225665245     A.U. after   12 cycles
 SCF Done:  E(RB3LYP) =  -417.227255441     A.U. after   13 cycles
 SCF Done:  E(RB3LYP) =  -417.228256738     A.U. after   13 cycles
 SCF Done:  E(RB3LYP) =  -417.228831549     A.U. after   12 cycles
 SCF Done:  E(RB3LYP) =  -417.229540975     A.U. after   13 cycles
 SCF Done:  E(RB3LYP) =  -417.241913072     A.U. after    9 cycles
 SCF Done:  E(RB3LYP) =  -417.241928733     A.U. after    9 cycles
 SCF Done:  E(RB3LYP) =  -417.241941535     A.U. after    9 cycles
 SCF Done:  E(RB3LYP) =  -417.241950723     A.U. after    9 cycles
 SCF Done:  E(RB3LYP) =  -417.241953367     A.U. after    9 cycles
 SCF Done:  E(RB3LYP) =  -417.241954018     A.U. after    7 cycles
 SCF Done:  E(RB3LYP) =  -417.241954204     A.U. after    7 cycles
 SCF Done:  E(RB3LYP) =  -417.241954300     A.U. after    7 cycles
 SCF Done:  E(RB3LYP) =  -417.241954371     A.U. after    7 cycles
 Optimization completed.
    -- Stationary point found.
 Normal termination of Gaussian 16 at Thu Aug  4 08:44:55 2022.

 ----------------------------------------------------------------------
 #N Geom=AllCheck Guess=TCheck SCRF=Check GenChk RB3LYP/6-31G(2df,p) Fr
 eq
 ----------------------------------------------------------------------

 Structure from the checkpoint file:  "CCpdOpCpNpCpNpdO.chk"
 -------------------
 Title Card Required
 -------------------
 Charge =  0 Multiplicity = 1

                         Standard orientation:
 ---------------------------------------------------------------------
 Center     Atomic      Atomic             Coordinates (Angstroms)
 Number     Number       Type             X           Y           Z
 ---------------------------------------------------------------------
      1          6           0       -1.896233    1.272492    0.159569
      2          6           0       -1.281745   -0.076673   -0.100979
      3          8           0       -1.792811   -0.914871   -0.809819
      4          6           0        0.062519   -0.401149    0.597601
      5          7           0        0.391951   -1.817842    0.472474
      6          6           0        1.177952    0.523308    0.021081
      7          7           0        2.193235   -0.161190   -0.542689
      8          8           0        1.107918    1.738332    0.089846
      9          1           0       -2.748066    1.430156   -0.503114
     10          1           0       -1.138404    2.051859    0.045407
     11          1           0       -2.236601    1.312674    1.201925
     12          1           0       -0.026149   -0.094990    1.646209
     13          1           0       -0.273713   -2.221390   -0.186530
     14          1           0        0.266201   -2.295175    1.356882
     15          1           0        2.180439   -1.168160   -0.467456
     16          1           0        2.984178    0.342699   -0.905659
 ---------------------------------------------------------------------

 SCF Done:  E(RB3LYP) =  -417.241954371     A.U. after    1 cycles

 The electronic state is 1-A.
 Alpha  occ. eigenvalues --  -19.14164 -19.10397 -14.34623 -14.32641 -10.28310
 Alpha  occ. eigenvalues --  -10.27933 -10.23308 -10.18347  -1.05349  -1.03222
 Alpha  occ. eigenvalues --   -0.91500  -0.88585  -0.76024  -0.69999  -0.59597
 Alpha  occ. eigenvalues --   -0.55013  -0.53688  -0.50660  -0.47933  -0.46463
 Alpha  occ. eigenvalues --   -0.44362  -0.42938  -0.41252  -0.40029  -0.39297
 Alpha  occ. eigenvalues --   -0.37369  -0.35897  -0.28493  -0.26803  -0.26194
 Alpha  occ. eigenvalues --   -0.23731
 Alpha virt. eigenvalues --   -0.02278   0.03621   0.07453   0.10630   0.11623
 Alpha virt. eigenvalues --    0.13870   0.15108   0.16027   0.18184   0.19204
 Alpha virt. eigenvalues --    0.21751   0.22087   0.25061   0.29110   0.31667

 Mulliken charges:
               1
     1  C   -0.484815
     2  C    0.387250
     3  O   -0.306705
     4  C   -0.186790
     5  N   -0.530467
     6  C    0.390262
     7  N   -0.500322
     8  O   -0.373553
     9  H    0.136168
    10  H    0.188562
    11  H    0.138194
    12  H    0.115732
    13  H    0.251363
    14  H    0.239440
    15  H    0.273847
    16  H    0.261835
 Sum of Mulliken charges =  -0.00000

 Dipole moment (field-independent basis, Debye):
    X=              0.9012    Y=             -1.7131    Z=              1.5253  Tot=              2.4644
 Quadrupole moment (field-independent basis, Debye-Ang):
   XX=            -43.6371   YY=            -49.9691   ZZ=            -44.6391
   XY=             -5.3451   XZ=             -5.2120   YZ=             -3.0597

  Exact polarizability:  69.635  -3.473  68.078  -2.204   2.632  49.103
 Approx polarizability:  92.905  -0.859 107.519  -0.120  10.608  78.659

                      1                      2                      3
                      A                      A                      A
 Frequencies --     42.8290                83.7283               156.4966
 Red. masses --      4.6094                 4.8263                 1.1303
 Frc consts  --      0.0050                 0.0199                 0.0163
 IR Inten    --      2.9684                 3.8016                 0.3552

                      4                      5                      6
                      A                      A                      A
 Frequencies --    217.6498               230.5076               290.9092
 Red. masses --      3.8793                 1.1775                 2.9258
 Frc consts  --      0.1083                 0.0369                 0.1459
 IR Inten    --      6.4167                 2.4348                25.3195

                      7                      8                      9
                      A                      A                      A
 Frequencies --    337.5478               388.2546               404.3968
 Red. masses --      3.3420                 3.0722                 1.3292
 Frc consts  --      0.2244                 0.2729                 0.1281
 IR Inten    --     12.2766                25.3940               155.5119

                     10                     11                     12
                      A                      A                      A
 Frequencies --    473.3548               529.9457               562.6264
 Red. masses --      4.0941                 3.6321                 2.7006
 Frc consts  --      0.5405                 0.6010                 0.5037
 IR Inten    --     11.2073                 7.3894                14.7269

                     13                     14                     15
                      A                      A                      A
 Frequencies --    621.2048               669.4846               733.6461
 Red. masses --      4.6601                 2.9234                 1.1948
 Frc consts  --      1.0595                 0.7720                 0.3789
 IR Inten    --     20.1847                 3.1063                 2.7234

                     16                     17                     18
                      A                      A                      A
 Frequencies --    819.2946               859.0085               964.4995
 Red. masses --      2.7097                 2.2919                 2.7616
 Frc consts  --      1.0717                 0.9964                 1.5136
 IR Inten    --      1.2735                58.3216                77.8827

                     19                     20                     21
                      A                      A                      A
 Frequencies --    979.8217              1038.1516              1108.3676
 Red. masses --      1.6670                 1.6688                 1.9496
 Frc consts  --      0.9429                 1.0597                 1.4111
 IR Inten    --     46.4309                 5.8398                 6.7280

                     22                     23                     24
                      A                      A                      A
 Frequencies --   1123.4490              1176.9165              1222.3661
 Red. masses --      1.8375                 1.6246                 2.0295
 Frc consts  --      1.3665                 1.3258                 1.7866
 IR Inten    --      4.2881                 8.9810               121.2888

                     25                     26                     27
                      A                      A                      A
 Frequencies --   1242.6470              1348.9752              1382.6104
 Red. masses --      1.6604                 2.3507                 1.2655
 Frc consts  --      1.5106                 2.5203                 1.4253
 IR Inten    --      1.7065                65.9678                62.7167

                     28                     29                     30
                      A                      A                      A
 Frequencies --   1395.1721              1465.2709              1471.6002
 Red. masses --      1.5009                 1.0502                 1.0557
 Frc consts  --      1.7213                 1.3284                 1.3471
 IR Inten    --      2.1656                10.7937                14.3741

                     31                     32                     33
                      A                      A                      A
 Frequencies --   1565.3145              1651.4342              1789.7365
 Red. masses --      1.3586                 1.1025                 9.9640
 Frc consts  --      1.9613                 1.7715                18.8045
 IR Inten    --    188.5378                65.6363               329.1938

                     34                     35                     36
                      A                      A                      A
 Frequencies --   1805.0261              3035.1698              3052.0563
 Red. masses --      9.5167                 1.0413                 1.0824
 Frc consts  --     18.2685                 5.6519                 5.9407
 IR Inten    --    102.5576                 7.0029                10.3925

                     37                     38                     39
                      A                      A                      A
 Frequencies --   3107.7028              3159.1203              3461.4318
 Red. masses --      1.0907                 1.1054                 1.0552
 Frc consts  --      6.2061                 6.4999                 7.4489
 IR Inten    --     12.7944                 4.2534                27.0709

                     40                     41                     42
                      A                      A                      A
 Frequencies --   3559.6032              3582.3028              3721.4753
 Red. masses --      1.0456                 1.0858                 1.1029
 Frc consts  --      7.8061                 8.2098                 8.9994
 IR Inten    --     64.4951                13.3496                90.5350

 - Thermochemistry -
 -------------------
 Temperature   298.150 Kelvin.  Pressure   1.00000 Atm.
 Atom     1 has atomic number  6 and mass  12.00000

 Molecular mass:   116.05858 amu.
 Principal axes and moments of inertia in atomic units:
                           1         2         3
     Eigenvalues --   648.33090 996.568591431.98123
           X            0.99370  -0.11009  -0.02088
           Y            0.10986   0.99388  -0.01169
           Z            0.02204   0.00932   0.99971
 This molecule is an asymmetric top.
 Rotational symmetry number  1.
 Warning -- assumption of classical behavior for rotation
           may cause significant error
 Rotational temperatures (Kelvin)      0.13360     0.08691     0.06049
 Rotational constants (GHZ):           2.78367     1.81096     1.26031
 Zero-point vibrational energy     339925.5 (Joules/Mol)
                                   81.24415 (Kcal/Mol)
 Warning -- explicit consideration of  12 degrees of freedom as
           vibrations may cause significant error
 Vibrational temperatures:     61.62   120.47   225.16   313.15   331.65
          (Kelvin)            418.55   485.66   558.61   581.84   681.05
                              762.47   809.49   893.78   963.24  1055.55
                             1178.78  1235.92  1387.70  1409.74  1493.67
                             1594.69  1616.39  1693.32  1758.71  1787.89
                             1940.87  1989.27  2007.34  2108.20  2117.30
                             2252.14  2376.05  2575.03  2597.03  4366.93
                             4391.23  4471.29  4545.27  4980.23  5121.47
                             5154.13  5354.37

 Zero-point correction=                           0.129471 (Hartree/Particle)
 Thermal correction to Energy=                    0.138426
 Thermal correction to Enthalpy=                  0.139370
 Thermal correction to Gibbs Free Energy=         0.095493
 Sum of electronic and zero-point Energies=           -417.112484
 Sum of electronic and thermal Energies=              -417.103529
 Sum of electronic and thermal Enthalpies=            -417.102585
 Sum of electronic and thermal Free Energies=         -417.146461

                     E (Thermal)             CV                S
                      KCal/Mol        Cal/Mol-Kelvin    Cal/Mol-Kelvin
 Total                   86.863             32.024             92.346
 Electronic               0.000              0.000              0.000
 Translational            0.889              2.981             40.162
 Rotational               0.889              2.981             28.316
 Vibrational             85.086             26.062             23.867
 Vibration     1          0.595              1.980              5.124
 Vibration     2          0.601              1.960              3.802
 Vibration     3          0.620              1.895              2.592
 Vibration     4          0.646              1.814              1.979
 Vibration     5          0.652              1.794              1.875
 Vibration     6          0.687              1.691              1.469
 Vibration     7          0.718              1.600              1.224
 Vibration     8          0.756              1.495              1.007
 Vibration     9          0.770              1.461              0.947
 Vibration    10          0.830              1.309              0.728
 Vibration    11          0.885              1.184              0.587
 Vibration    12          0.918              1.112              0.519

                           ! Non-Optimized Parameters !
 Normal termination of Gaussian 16 at Thu Aug  4 09:09:21 2022.
