 Gaussian 16, Revision A.03,
 Gaussian 16:  ES64L-G16RevA.03 25-Dec-2016

 -----------------------------
 # opt freq b3lyp/6-31g(2df,p)
 -----------------------------

 -------------------
 Title Card Required
 -------------------
 Symbolic Z-matrix:
 Charge =  0 Multiplicity = 1

 SCF Done:  E(RB3LYP) =  -366.441641230     A.U. after   13 cycles
 SCF Done:  E(RB3LYP) =  -366.445504010     A.U. after   12 cycles
 SCF Done:  E(RB3LYP) =  -366.446903781     A.U. after   11 cycles
 SCF Done:  E(RB3LYP) =  -366.447665643     A.U. after   11 cycles
 SCF Done:  E(RB3LYP) =  -366.447970262     A.U. after   10 cycles
 SCF Done:  E(RB3LYP) =  -366.448101713     A.U. after   10 cycles
 SCF Done:  E(RB3LYP) =  -366.448132977     A.U. after    9 cycles
 SCF Done:  E(RB3LYP) =  -366.448138108     A.U. after    8 cycles
 SCF Done:  E(RB3LYP) =  -366.448144384     A.U. after    9 cycles
 SCF Done:  E(RB3LYP) =  -366.448147158     A.U. after    8 cycles
 SCF Done:  E(RB3LYP) =  -366.448160723     A.U. after   10 cycles
 SCF Done:  E(RB3LYP) =  -366.448169963     A.U. after    8 cycles
 SCF Done:  E(RB3LYP) =  -366.448179933     A.U. after   10 cycles
 SCF Done:  E(RB3LYP) =  -366.448185248     A.U. after    8 cycles
 SCF Done:  E(RB3LYP) =  -366.448184070     A.U. after    9 cycles
 SCF Done:  E(RB3LYP) =  -366.448188156     A.U. after    9 cycles
 SCF Done:  E(RB3LYP) =  -366.448188302     A.U. after    7 cycles
 SCF Done:  E(RB3LYP) =  -366.448188489     A.U. after    7 cycles
 SCF Done:  E(RB3LYP) =  -366.448188499     A.U. after    6 cycles
 Optimization completed.
    -- Stationary point found.
 Normal termination of Gaussian 16 at Sun Jul  3 18:32:35 2022.

 ----------------------------------------------------------------------
 #N Geom=AllCheck Guess=TCheck SCRF=Check GenChk RB3LYP/6-31G(2df,p) Fr
 eq
 ----------------------------------------------------------------------

 Structure from the checkpoint file:  "CCpdCNpCCpCpO.chk"
 -------------------
 Title Card Required
 -------------------
 Charge =  0 Multiplicity = 1

                         Standard orientation:
 ---------------------------------------------------------------------
 Center     Atomic      Atomic             Coordinates (Angstroms)
 Number     Number       Type             X           Y           Z
 ---------------------------------------------------------------------
      1          6           0        1.857279    1.587736    0.413642
      2          6           0        0.933577    0.463380    0.013496
      3          6           0        1.381632   -0.763622   -0.291633
      4          7           0        2.712913   -1.189690   -0.375914
      5          6           0       -0.522443    0.863874   -0.106871
      6          6           0       -1.583522   -0.235297   -0.271759
      7          6           0       -1.776721   -1.083759    0.986316
      8          8           0       -2.823196    0.340656   -0.684201
      9          1           0        2.836387    1.238916    0.758461
     10          1           0        1.422682    2.177067    1.230319
     11          1           0        2.038215    2.286172   -0.415085
     12          1           0        0.685325   -1.541567   -0.588048
     13          1           0        3.384575   -0.578487    0.067648
     14          1           0        2.853758   -2.145075   -0.077162
     15          1           0       -0.644148    1.550190   -0.958341
     16          1           0       -0.794829    1.459888    0.780532
     17          1           0       -1.307081   -0.883308   -1.111263
     18          1           0       -2.109456   -0.451943    1.820136
     19          1           0       -0.845679   -1.567106    1.293429
     20          1           0       -2.537689   -1.850270    0.816454
     21          1           0       -3.125691    0.914232    0.028784
 ---------------------------------------------------------------------

 SCF Done:  E(RB3LYP) =  -366.448188499     A.U. after    1 cycles

 The electronic state is 1-A.
 Alpha  occ. eigenvalues --  -19.12437 -14.32786 -10.22409 -10.19918 -10.17632
 Alpha  occ. eigenvalues --  -10.17463 -10.16894 -10.16885  -1.00674  -0.89887
 Alpha  occ. eigenvalues --   -0.79329  -0.74021  -0.68097  -0.66458  -0.59762
 Alpha  occ. eigenvalues --   -0.54211  -0.50514  -0.48039  -0.45646  -0.44066
 Alpha  occ. eigenvalues --   -0.42379  -0.41460  -0.40074  -0.38164  -0.36909
 Alpha  occ. eigenvalues --   -0.35986  -0.34589  -0.34305  -0.31992  -0.30455
 Alpha  occ. eigenvalues --   -0.25784  -0.19139
 Alpha virt. eigenvalues --    0.04838   0.07669   0.08263   0.10248   0.11379
 Alpha virt. eigenvalues --    0.13386   0.14790   0.16108   0.16839   0.17820
 Alpha virt. eigenvalues --    0.18546   0.19369   0.20227   0.21842   0.23402

 Mulliken charges:
               1
     1  C   -0.482013
     2  C    0.247575
     3  C   -0.060873
     4  N   -0.530502
     5  C   -0.275802
     6  C    0.124478
     7  C   -0.389486
     8  O   -0.437391
     9  H    0.102708
    10  H    0.117450
    11  H    0.126444
    12  H    0.091199
    13  H    0.238752
    14  H    0.242208
    15  H    0.108436
    16  H    0.077528
    17  H    0.088837
    18  H    0.101255
    19  H    0.117664
    20  H    0.119442
    21  H    0.272091
 Sum of Mulliken charges =   0.00000

 Dipole moment (field-independent basis, Debye):
    X=              1.4553    Y=             -0.2838    Z=              2.0905  Tot=              2.5629
 Quadrupole moment (field-independent basis, Debye-Ang):
   XX=            -49.3728   YY=            -46.1158   ZZ=            -53.6928
   XY=             -3.2289   XZ=             -1.2457   YZ=              0.3805

  Exact polarizability:  90.493  -7.030  85.822  -1.038   4.055  59.264
 Approx polarizability: 116.236 -17.469 130.733  -2.085  10.769  90.633

                      1                      2                      3
                      A                      A                      A
 Frequencies --     51.6582                77.8881                98.4364
 Red. masses --      2.2636                 1.1611                 3.1086
 Frc consts  --      0.0036                 0.0042                 0.0177
 IR Inten    --      0.0895                 0.5818                 0.4930

                      4                      5                      6
                      A                      A                      A
 Frequencies --    150.0855               227.2053               242.6947
 Red. masses --      3.1048                 1.1583                 1.6575
 Frc consts  --      0.0412                 0.0352                 0.0575
 IR Inten    --      0.6511                 0.7389                11.1863

                      7                      8                      9
                      A                      A                      A
 Frequencies --    274.7642               306.5445               314.4623
 Red. masses --      1.1837                 2.1943                 1.7018
 Frc consts  --      0.0527                 0.1215                 0.0992
 IR Inten    --     64.2568                16.6468                24.3341

                     10                     11                     12
                      A                      A                      A
 Frequencies --    328.8371               375.8750               450.4480
 Red. masses --      2.0150                 4.2232                 2.8168
 Frc consts  --      0.1284                 0.3515                 0.3367
 IR Inten    --     14.2986                14.7273                 6.6875

                     13                     14                     15
                      A                      A                      A
 Frequencies --    458.6899               484.5086               623.4037
 Red. masses --      2.1305                 2.0663                 2.8619
 Frc consts  --      0.2641                 0.2858                 0.6553
 IR Inten    --     11.5874                18.2995                 2.8961

                     16                     17                     18
                      A                      A                      A
 Frequencies --    682.2805               817.3714               838.6204
 Red. masses --      1.4495                 2.8715                 2.4150
 Frc consts  --      0.3976                 1.1303                 1.0007
 IR Inten    --    295.6874                 1.5052                 0.8152

                     19                     20                     21
                      A                      A                      A
 Frequencies --    875.3243               927.6603               954.4879
 Red. masses --      1.4588                 1.3949                 1.8844
 Frc consts  --      0.6585                 0.7073                 1.0115
 IR Inten    --      9.2083                10.2722                 5.8008

                     22                     23                     24
                      A                      A                      A
 Frequencies --   1006.8571              1042.2679              1068.2797
 Red. masses --      1.5515                 1.3257                 1.9702
 Frc consts  --      0.9267                 0.8485                 1.3247
 IR Inten    --      3.1220                 2.5212                68.3476

                     25                     26                     27
                      A                      A                      A
 Frequencies --   1104.5921              1117.2770              1143.4427
 Red. masses --      1.7356                 2.0176                 1.8035
 Frc consts  --      1.2476                 1.4839                 1.3893
 IR Inten    --      7.3777                47.0569                40.6957

                     28                     29                     30
                      A                      A                      A
 Frequencies --   1199.6970              1229.0835              1263.1360
 Red. masses --      3.4800                 1.3042                 1.5645
 Frc consts  --      2.9510                 1.1608                 1.4707
 IR Inten    --     50.0801                 4.8308                 6.3998

                     31                     32                     33
                      A                      A                      A
 Frequencies --   1294.3635              1348.9629              1376.3641
 Red. masses --      1.6525                 1.4456                 1.4228
 Frc consts  --      1.6312                 1.5499                 1.5880
 IR Inten    --      5.5181                14.7147                 3.9178

                     34                     35                     36
                      A                      A                      A
 Frequencies --   1400.6219              1408.6550              1419.5348
 Red. masses --      1.2833                 1.2511                 1.3642
 Frc consts  --      1.4832                 1.4627                 1.6196
 IR Inten    --     12.9707                12.3191                 3.8602

                     37                     38                     39
                      A                      A                      A
 Frequencies --   1437.3719              1477.7089              1480.7521
 Red. masses --      1.2214                 1.0693                 1.0505
 Frc consts  --      1.4868                 1.3758                 1.3571
 IR Inten    --     33.9749                 2.3695                 4.9699

                     40                     41                     42
                      A                      A                      A
 Frequencies --   1493.2725              1495.3009              1499.0056
 Red. masses --      1.0554                 1.0651                 1.0686
 Frc consts  --      1.3866                 1.4031                 1.4147
 IR Inten    --      6.9268                 2.1273                 0.2747

                     43                     44                     45
                      A                      A                      A
 Frequencies --   1648.8219              1749.1375              2964.4465
 Red. masses --      1.1354                 5.2546                 1.0664
 Frc consts  --      1.8187                 9.4719                 5.5216
 IR Inten    --     28.9255                66.3108                41.4233

                     46                     47                     48
                      A                      A                      A
 Frequencies --   3002.1567              3007.5940              3023.9997
 Red. masses --      1.0883                 1.0417                 1.0443
 Frc consts  --      5.7791                 5.5520                 5.6266
 IR Inten    --     21.8598                48.0502                13.1614

                     49                     50                     51
                      A                      A                      A
 Frequencies --   3047.3618              3054.7673              3083.3472
 Red. masses --      1.0819                 1.0961                 1.0987
 Frc consts  --      5.9197                 6.0261                 6.1542
 IR Inten    --     31.6507                26.8973                37.3803

                     52                     53                     54
                      A                      A                      A
 Frequencies --   3097.7990              3126.2875              3179.8243
 Red. masses --      1.0932                 1.1021                 1.0882
 Frc consts  --      6.1810                 6.3464                 6.4828
 IR Inten    --     32.1892                25.6552                13.7756

                     55                     56                     57
                      A                      A                      A
 Frequencies --   3544.5806              3641.8301              3795.1250
 Red. masses --      1.0471                 1.0964                 1.0658
 Frc consts  --      7.7515                 8.5675                 9.0445
 IR Inten    --      4.3938                 5.8560                11.0761

 - Thermochemistry -
 -------------------
 Temperature   298.150 Kelvin.  Pressure   1.00000 Atm.
 Atom     1 has atomic number  6 and mass  12.00000

 Molecular mass:   115.09971 amu.
 Principal axes and moments of inertia in atomic units:
                           1         2         3
     Eigenvalues --   545.092171684.599131970.96842
           X            0.99984   0.01636  -0.00724
           Y           -0.01636   0.99987  -0.00022
           Z            0.00724   0.00034   0.99997
 This molecule is an asymmetric top.
 Rotational symmetry number  1.
 Warning -- assumption of classical behavior for rotation
           may cause significant error
 Rotational temperatures (Kelvin)      0.15890     0.05142     0.04394
 Rotational constants (GHZ):           3.31089     1.07132     0.91566
 Zero-point vibrational energy     489481.2 (Joules/Mol)
                                  116.98882 (Kcal/Mol)
 Warning -- explicit consideration of  14 degrees of freedom as
           vibrations may cause significant error
 Vibrational temperatures:     74.32   112.06   141.63   215.94   326.90
          (Kelvin)            349.18   395.32   441.05   452.44   473.12
                              540.80   648.09   659.95   697.10   896.94
                              981.65  1176.02  1206.59  1259.40  1334.70
                             1373.30  1448.64  1499.59  1537.02  1589.26
                             1607.51  1645.16  1726.10  1768.38  1817.37
                             1862.30  1940.86  1980.28  2015.18  2026.74
                             2042.39  2068.06  2126.09  2130.47  2148.49
                             2151.40  2156.73  2372.29  2516.62  4265.18
                             4319.43  4327.26  4350.86  4384.47  4395.13
                             4436.25  4457.04  4498.03  4575.06  5099.86
                             5239.78  5460.34

 Zero-point correction=                           0.186434 (Hartree/Particle)
 Thermal correction to Energy=                    0.196870
 Thermal correction to Enthalpy=                  0.197815
 Thermal correction to Gibbs Free Energy=         0.150891
 Sum of electronic and zero-point Energies=           -366.261755
 Sum of electronic and thermal Energies=              -366.251318
 Sum of electronic and thermal Enthalpies=            -366.250374
 Sum of electronic and thermal Free Energies=         -366.297298

                     E (Thermal)             CV                S
                      KCal/Mol        Cal/Mol-Kelvin    Cal/Mol-Kelvin
 Total                  123.538             37.582             98.760
 Electronic               0.000              0.000              0.000
 Translational            0.889              2.981             40.137
 Rotational               0.889              2.981             28.983
 Vibrational            121.761             31.620             29.639
 Vibration     1          0.596              1.977              4.753
 Vibration     2          0.599              1.964              3.943
 Vibration     3          0.604              1.950              3.485
 Vibration     4          0.618              1.903              2.671
 Vibration     5          0.651              1.800              1.901
 Vibration     6          0.659              1.775              1.783
 Vibration     7          0.677              1.720              1.566
 Vibration     8          0.697              1.661              1.381
 Vibration     9          0.702              1.646              1.339
 Vibration    10          0.712              1.618              1.266
 Vibration    11          0.747              1.522              1.056
 Vibration    12          0.809              1.360              0.794
 Vibration    13          0.817              1.342              0.770
 Vibration    14          0.841              1.284              0.698

 Optimization completed.
    -- Stationary point found.
 Normal termination of Gaussian 16 at Sun Jul  3 19:11:46 2022.
