 Gaussian 16, Revision A.03,
 Gaussian 16:  ES64L-G16RevA.03 25-Dec-2016

 -----------------------------
 # opt freq b3lyp/6-31g(2df,p)
 -----------------------------

 -------------------
 Title Card Required
 -------------------
 Symbolic Z-matrix:
 Charge =  0 Multiplicity = 1

 SCF Done:  E(RB3LYP) =  -345.356674914     A.U. after   14 cycles
 SCF Done:  E(RB3LYP) =  -345.361045582     A.U. after   12 cycles
 SCF Done:  E(RB3LYP) =  -345.361927145     A.U. after   12 cycles
 SCF Done:  E(RB3LYP) =  -345.362247966     A.U. after   11 cycles
 SCF Done:  E(RB3LYP) =  -345.362647647     A.U. after   11 cycles
 SCF Done:  E(RB3LYP) =  -345.363094135     A.U. after   14 cycles
 SCF Done:  E(RB3LYP) =  -345.363796577     A.U. after   11 cycles
 SCF Done:  E(RB3LYP) =  -345.364308397     A.U. after   11 cycles
 SCF Done:  E(RB3LYP) =  -345.364448665     A.U. after   12 cycles
 SCF Done:  E(RB3LYP) =  -345.364461713     A.U. after   10 cycles
 SCF Done:  E(RB3LYP) =  -345.364407350     A.U. after   11 cycles
 SCF Done:  E(RB3LYP) =  -345.364485298     A.U. after   11 cycles
 SCF Done:  E(RB3LYP) =  -345.363526082     A.U. after   11 cycles
 SCF Done:  E(RB3LYP) =  -345.364358098     A.U. after   11 cycles
 SCF Done:  E(RB3LYP) =  -345.364486729     A.U. after    6 cycles
 SCF Done:  E(RB3LYP) =  -345.364453763     A.U. after   10 cycles
 SCF Done:  E(RB3LYP) =  -345.364492269     A.U. after   10 cycles
 SCF Done:  E(RB3LYP) =  -345.364492084     A.U. after    9 cycles
 SCF Done:  E(RB3LYP) =  -345.364492644     A.U. after    8 cycles
 Optimization completed.
    -- Stationary point found.
 Normal termination of Gaussian 16 at Sun Jul  3 22:32:41 2022.

 ----------------------------------------------------------------------
 #N Geom=AllCheck Guess=TCheck SCRF=Check GenChk RB3LYP/6-31G(2df,p) Fr
 eq
 ----------------------------------------------------------------------

 Structure from the checkpoint file:  "CCpdNpCpCpCCdN.chk"
 -------------------
 Title Card Required
 -------------------
 Charge =  0 Multiplicity = 1

                         Standard orientation:
 ---------------------------------------------------------------------
 Center     Atomic      Atomic             Coordinates (Angstroms)
 Number     Number       Type             X           Y           Z
 ---------------------------------------------------------------------
      1          6           0       -2.740260    0.446292   -0.587096
      2          6           0       -1.561841   -0.303055   -0.003112
      3          7           0       -1.640565   -1.391875    0.650522
      4          6           0       -0.192458    0.324752   -0.234274
      5          6           0        0.021771    1.505157    0.736765
      6          6           0        0.946296   -0.708981   -0.114470
      7          6           0        2.266765   -0.160809   -0.587157
      8          7           0        3.355815   -0.055286    0.057350
      9          1           0       -3.688314   -0.008621   -0.288562
     10          1           0       -2.684155    0.444444   -1.682436
     11          1           0       -2.744488    1.496111   -0.275672
     12          1           0       -2.614550   -1.688586    0.749352
     13          1           0       -0.185857    0.730101   -1.256656
     14          1           0       -0.012471    1.154040    1.773286
     15          1           0       -0.741307    2.279240    0.615610
     16          1           0        0.997739    1.968792    0.567594
     17          1           0        0.687789   -1.583625   -0.724447
     18          1           0        1.024638   -1.062422    0.918277
     19          1           0        2.277384    0.189235   -1.628220
     20          1           0        3.235205   -0.408709    1.012838
 ---------------------------------------------------------------------

 SCF Done:  E(RB3LYP) =  -345.364492644     A.U. after    1 cycles

 The electronic state is 1-A.
 Alpha  occ. eigenvalues --  -14.31141 -14.30943 -10.23634 -10.22292 -10.20358
 Alpha  occ. eigenvalues --  -10.19662 -10.18620 -10.18488  -0.90979  -0.89425
 Alpha  occ. eigenvalues --   -0.79892  -0.73693  -0.70259  -0.63605  -0.57994
 Alpha  occ. eigenvalues --   -0.53994  -0.48013  -0.46466  -0.45780  -0.44353
 Alpha  occ. eigenvalues --   -0.42919  -0.42371  -0.40300  -0.38049  -0.36252
 Alpha  occ. eigenvalues --   -0.35584  -0.34341  -0.30449  -0.29819  -0.25996
 Alpha  occ. eigenvalues --   -0.25231
 Alpha virt. eigenvalues --   -0.00159   0.00984   0.07225   0.09998   0.11158
 Alpha virt. eigenvalues --    0.12625   0.13382   0.14599   0.15691   0.15831
 Alpha virt. eigenvalues --    0.16803   0.17478   0.18199   0.21270   0.21486

 Mulliken charges:
               1
     1  C   -0.468251
     2  C    0.301683
     3  N   -0.455188
     4  C   -0.027278
     5  C   -0.400500
     6  C   -0.241342
     7  C    0.059637
     8  N   -0.393834
     9  H    0.123768
    10  H    0.139404
    11  H    0.138731
    12  H    0.212325
    13  H    0.080234
    14  H    0.130688
    15  H    0.115867
    16  H    0.134944
    17  H    0.119711
    18  H    0.116612
    19  H    0.098442
    20  H    0.214347
 Sum of Mulliken charges =  -0.00000

 Dipole moment (field-independent basis, Debye):
    X=             -3.4859    Y=              0.8933    Z=             -0.6213  Tot=              3.6518
 Quadrupole moment (field-independent basis, Debye-Ang):
   XX=            -56.8446   YY=            -51.5424   ZZ=            -48.1291
   XY=             -2.2414   XZ=              2.8597   YZ=              0.6231

  Exact polarizability:  94.361   3.330  71.235   4.096  -6.081  67.555
 Approx polarizability: 121.119   6.266 109.611   8.211 -13.719 107.416

                      1                      2                      3
                      A                      A                      A
 Frequencies --     35.0784                65.4866                76.0601
 Red. masses --      2.5561                 2.7816                 3.3792
 Frc consts  --      0.0019                 0.0070                 0.0115
 IR Inten    --      2.9975                 1.0610                 1.3311

                      4                      5                      6
                      A                      A                      A
 Frequencies --    132.8087               188.2596               218.8810
 Red. masses --      1.1155                 2.7849                 1.1573
 Frc consts  --      0.0116                 0.0582                 0.0327
 IR Inten    --      0.0913                 4.0421                 0.0489

                      7                      8                      9
                      A                      A                      A
 Frequencies --    254.5308               314.2769               331.6237
 Red. masses --      2.2176                 2.6979                 3.4544
 Frc consts  --      0.0846                 0.1570                 0.2238
 IR Inten    --      0.9637                 1.5688                 4.6161

                     10                     11                     12
                      A                      A                      A
 Frequencies --    419.2746               502.5946               566.2058
 Red. masses --      2.1437                 2.3099                 3.0339
 Frc consts  --      0.2220                 0.3438                 0.5731
 IR Inten    --      3.0850                11.0499                 7.9202

                     13                     14                     15
                      A                      A                      A
 Frequencies --    593.5885               724.4109               811.0962
 Red. masses --      2.5497                 1.8357                 2.3875
 Frc consts  --      0.5293                 0.5676                 0.9254
 IR Inten    --      3.8140                 6.2311                 5.3061

                     16                     17                     18
                      A                      A                      A
 Frequencies --    873.9587               907.5886               916.8799
 Red. masses --      1.3253                 2.0446                 1.4784
 Frc consts  --      0.5964                 0.9923                 0.7323
 IR Inten    --     29.6207                 2.5705                 2.1978

                     19                     20                     21
                      A                      A                      A
 Frequencies --    974.4405              1001.4573              1055.4026
 Red. masses --      1.7972                 2.1268                 1.9880
 Frc consts  --      1.0054                 1.2567                 1.3047
 IR Inten    --      8.1212                 1.6019                26.4443

                     22                     23                     24
                      A                      A                      A
 Frequencies --   1074.9446              1091.7321              1103.8498
 Red. masses --      1.5587                 1.5372                 1.8871
 Frc consts  --      1.0611                 1.0794                 1.3547
 IR Inten    --     22.1675                11.9589                26.6479

                     25                     26                     27
                      A                      A                      A
 Frequencies --   1139.4404              1154.7386              1214.2327
 Red. masses --      1.6413                 1.1113                 1.4685
 Frc consts  --      1.2555                 0.8731                 1.2757
 IR Inten    --      6.8498                43.9180                11.4472

                     28                     29                     30
                      A                      A                      A
 Frequencies --   1269.2168              1292.7268              1323.4402
 Red. masses --      1.2479                 1.3345                 1.3987
 Frc consts  --      1.1844                 1.3139                 1.4434
 IR Inten    --     10.5163                84.5523                 7.3394

                     31                     32                     33
                      A                      A                      A
 Frequencies --   1347.2871              1393.4186              1406.1709
 Red. masses --      1.4162                 1.3140                 1.3866
 Frc consts  --      1.5146                 1.5032                 1.6154
 IR Inten    --     21.6219                 2.0152                16.8100

                     34                     35                     36
                      A                      A                      A
 Frequencies --   1413.4941              1427.4961              1463.4356
 Red. masses --      1.4090                 1.2387                 1.0929
 Frc consts  --      1.6586                 1.4872                 1.3790
 IR Inten    --     10.5682                34.9541                 5.9022

                     37                     38                     39
                      A                      A                      A
 Frequencies --   1473.8803              1481.1850              1499.3043
 Red. masses --      1.0515                 1.0709                 1.0429
 Frc consts  --      1.3459                 1.3842                 1.3813
 IR Inten    --      6.9585                16.9133                 8.4547

                     40                     41                     42
                      A                      A                      A
 Frequencies --   1503.1929              1726.5790              1729.0224
 Red. masses --      1.0682                 8.1564                 8.3937
 Frc consts  --      1.4221                14.3258                14.7844
 IR Inten    --      3.0328                70.9516                57.7226

                     43                     44                     45
                      A                      A                      A
 Frequencies --   3000.1194              3029.9672              3034.1407
 Red. masses --      1.0812                 1.0374                 1.0645
 Frc consts  --      5.7336                 5.6116                 5.7739
 IR Inten    --     14.4431                 8.6516                17.4262

                     46                     47                     48
                      A                      A                      A
 Frequencies --   3039.2558              3041.1844              3090.3440
 Red. masses --      1.0389                 1.0787                 1.0976
 Frc consts  --      5.6542                 5.8783                 6.1759
 IR Inten    --     19.7221                23.9364                 3.6551

                     49                     50                     51
                      A                      A                      A
 Frequencies --   3091.5965              3111.0966              3115.1864
 Red. masses --      1.0989                 1.1015                 1.1017
 Frc consts  --      6.1885                 6.2815                 6.2994
 IR Inten    --     25.1794                25.6267                24.3271

                     52                     53                     54
                      A                      A                      A
 Frequencies --   3119.7424              3398.8271              3430.8363
 Red. masses --      1.1023                 1.0733                 1.0744
 Frc consts  --      6.3213                 7.3050                 7.4511
 IR Inten    --     17.1055                 4.7094                 6.3931

 - Thermochemistry -
 -------------------
 Temperature   298.150 Kelvin.  Pressure   1.00000 Atm.
 Atom     1 has atomic number  6 and mass  12.00000

 Molecular mass:   112.10005 amu.
 Principal axes and moments of inertia in atomic units:
                           1         2         3
     Eigenvalues --   432.729631705.326301883.48417
           X            0.99987  -0.01114   0.01141
           Y            0.01100   0.99986   0.01246
           Z           -0.01155  -0.01233   0.99986
 This molecule is an asymmetric top.
 Rotational symmetry number  1.
 Rotational temperatures (Kelvin)      0.20016     0.05079     0.04599
 Rotational constants (GHZ):           4.17060     1.05830     0.95819
 Zero-point vibrational energy     460532.3 (Joules/Mol)
                                  110.06986 (Kcal/Mol)
 Warning -- explicit consideration of  13 degrees of freedom as
           vibrations may cause significant error
 Vibrational temperatures:     50.47    94.22   109.43   191.08   270.86
          (Kelvin)            314.92   366.21   452.17   477.13   603.24
                              723.12   814.64   854.04  1042.27  1166.99
                             1257.43  1305.82  1319.19  1402.00  1440.87
                             1518.49  1546.61  1570.76  1588.19  1639.40
                             1661.41  1747.01  1826.12  1859.95  1904.14
                             1938.45  2004.82  2023.17  2033.70  2053.85
                             2105.56  2120.58  2131.09  2157.16  2162.76
                             2484.16  2487.68  4316.50  4359.45  4365.45
                             4372.81  4375.59  4446.32  4448.12  4476.17
                             4482.06  4488.61  4890.15  4936.21

 Zero-point correction=                           0.175407 (Hartree/Particle)
 Thermal correction to Energy=                    0.185282
 Thermal correction to Enthalpy=                  0.186227
 Thermal correction to Gibbs Free Energy=         0.139543
 Sum of electronic and zero-point Energies=           -345.189085
 Sum of electronic and thermal Energies=              -345.179210
 Sum of electronic and thermal Enthalpies=            -345.178266
 Sum of electronic and thermal Free Energies=         -345.224950

                     E (Thermal)             CV                S
                      KCal/Mol        Cal/Mol-Kelvin    Cal/Mol-Kelvin
 Total                  116.266             34.325             98.254
 Electronic               0.000              0.000              0.000
 Translational            0.889              2.981             40.058
 Rotational               0.889              2.981             28.721
 Vibrational            114.489             28.363             29.475
 Vibration     1          0.594              1.982              5.519
 Vibration     2          0.597              1.971              4.285
 Vibration     3          0.599              1.965              3.990
 Vibration     4          0.613              1.921              2.905
 Vibration     5          0.633              1.856              2.245
 Vibration     6          0.647              1.812              1.968
 Vibration     7          0.665              1.755              1.699
 Vibration     8          0.702              1.646              1.340
 Vibration     9          0.714              1.612              1.252
 Vibration    10          0.782              1.428              0.894
 Vibration    11          0.858              1.244              0.652
 Vibration    12          0.922              1.104              0.512
 Vibration    13          0.951              1.045              0.461

 Optimization completed.
    -- Stationary point found.
 Normal termination of Gaussian 16 at Sun Jul  3 22:56:46 2022.
