 Gaussian 16, Revision A.03,
 Gaussian 16:  ES64L-G16RevA.03 25-Dec-2016

 -----------------------------
 # opt freq b3lyp/6-31g(2df,p)
 -----------------------------

 -------------------
 Title Card Required
 -------------------
 Symbolic Z-matrix:
 Charge =  0 Multiplicity = 1

 SCF Done:  E(RB3LYP) =  -476.363108225     A.U. after   14 cycles
 SCF Done:  E(RB3LYP) =  -476.367310564     A.U. after   13 cycles
 SCF Done:  E(RB3LYP) =  -476.366638330     A.U. after   13 cycles
 SCF Done:  E(RB3LYP) =  -476.367555323     A.U. after   12 cycles
 SCF Done:  E(RB3LYP) =  -476.368219817     A.U. after   13 cycles
 SCF Done:  E(RB3LYP) =  -476.368652355     A.U. after   13 cycles
 SCF Done:  E(RB3LYP) =  -476.368744147     A.U. after   12 cycles
 SCF Done:  E(RB3LYP) =  -476.368848641     A.U. after   12 cycles
 SCF Done:  E(RB3LYP) =  -476.369484346     A.U. after   14 cycles
 SCF Done:  E(RB3LYP) =  -476.310243270     A.U. after   14 cycles
 SCF Done:  E(RB3LYP) =  -476.383490998     A.U. after   13 cycles
 SCF Done:  E(RB3LYP) =  -476.383940360     A.U. after   11 cycles
 SCF Done:  E(RB3LYP) =  -476.384083740     A.U. after   12 cycles
 SCF Done:  E(RB3LYP) =  -476.384167815     A.U. after   12 cycles
 SCF Done:  E(RB3LYP) =  -476.384203645     A.U. after   11 cycles
 SCF Done:  E(RB3LYP) =  -476.384206223     A.U. after    9 cycles
 SCF Done:  E(RB3LYP) =  -476.384207397     A.U. after    9 cycles
 SCF Done:  E(RB3LYP) =  -476.384207588     A.U. after    7 cycles
 SCF Done:  E(RB3LYP) =  -476.384207633     A.U. after    7 cycles
 Optimization completed.
    -- Stationary point found.
 Normal termination of Gaussian 16 at Sun Jul  3 19:30:39 2022.

 ----------------------------------------------------------------------
 #N Geom=AllCheck Guess=TCheck SCRF=Check GenChk RB3LYP/6-31G(2df,p) Fr
 eq
 ----------------------------------------------------------------------

 Structure from the checkpoint file:  "CCpdOpCpOpCpNpCdO.chk"
 -------------------
 Title Card Required
 -------------------
 Charge =  0 Multiplicity = 1

                         Standard orientation:
 ---------------------------------------------------------------------
 Center     Atomic      Atomic             Coordinates (Angstroms)
 Number     Number       Type             X           Y           Z
 ---------------------------------------------------------------------
      1          6           0       -2.713680   -0.859829    0.055275
      2          6           0       -1.621466    0.182888    0.020975
      3          8           0       -1.849064    1.350586   -0.213748
      4          6           0       -0.196280   -0.319513    0.314353
      5          8           0       -0.115844   -1.649713   -0.148251
      6          6           0        0.889092    0.596530   -0.304684
      7          7           0        0.960480    1.961121    0.208393
      8          6           0        2.286493    0.001142   -0.188101
      9          8           0        2.551298   -1.138363    0.121883
     10          1           0       -3.684059   -0.374001   -0.049725
     11          1           0       -2.667530   -1.435965    0.984967
     12          1           0       -2.554276   -1.577749   -0.754502
     13          1           0       -0.080878   -0.272168    1.416131
     14          1           0        0.794174   -1.935931    0.026241
     15          1           0        0.695233    0.664299   -1.386850
     16          1           0        1.062064    1.946220    1.220519
     17          1           0        0.069455    2.409707    0.017148
     18          1           0        3.086384    0.740352   -0.398664
 ---------------------------------------------------------------------

 SCF Done:  E(RB3LYP) =  -476.384207633     A.U. after    1 cycles

 The electronic state is 1-A.
 Alpha  occ. eigenvalues --  -19.16725 -19.14491 -19.14192 -14.32370 -10.28963
 Alpha  occ. eigenvalues --  -10.28223 -10.25142 -10.23531 -10.18944  -1.07369
 Alpha  occ. eigenvalues --   -1.05606  -1.02685  -0.90306  -0.76438  -0.73554
 Alpha  occ. eigenvalues --   -0.68308  -0.59123  -0.55050  -0.52583  -0.50149
 Alpha  occ. eigenvalues --   -0.48700  -0.46745  -0.45917  -0.44992  -0.43200
 Alpha  occ. eigenvalues --   -0.42330  -0.41256  -0.39178  -0.38071  -0.37395
 Alpha  occ. eigenvalues --   -0.35760  -0.29944  -0.27760  -0.26347  -0.24026
 Alpha virt. eigenvalues --   -0.04556  -0.02592   0.08748   0.09665   0.11448
 Alpha virt. eigenvalues --    0.12583   0.13508   0.15009   0.16468   0.16933
 Alpha virt. eigenvalues --    0.18376   0.19609   0.22755   0.23171   0.25024

 Mulliken charges:
               1
     1  C   -0.466141
     2  C    0.371208
     3  O   -0.308365
     4  C    0.006489
     5  O   -0.440064
     6  C   -0.099114
     7  N   -0.526974
     8  C    0.170407
     9  O   -0.272699
    10  H    0.135649
    11  H    0.144357
    12  H    0.166148
    13  H    0.085891
    14  H    0.302424
    15  H    0.127095
    16  H    0.226883
    17  H    0.259529
    18  H    0.117276
 Sum of Mulliken charges =   0.00000

 Dipole moment (field-independent basis, Debye):
    X=             -0.2558    Y=             -0.0712    Z=              0.9335  Tot=              0.9705
 Quadrupole moment (field-independent basis, Debye-Ang):
   XX=            -54.9607   YY=            -58.9748   ZZ=            -49.1905
   XY=              4.9139   XZ=             -1.3165   YZ=              1.5432

  Exact polarizability:  80.500   1.767  74.870   0.535  -1.504  52.190
 Approx polarizability:  99.411  -4.916 121.633   3.635  -5.329  83.595

                      1                      2                      3
                      A                      A                      A
 Frequencies --     38.2978                73.7159               118.1508
 Red. masses --      4.4039                 7.1070                 2.7404
 Frc consts  --      0.0038                 0.0228                 0.0225
 IR Inten    --      4.8847                 1.1550                 3.8012

                      4                      5                      6
                      A                      A                      A
 Frequencies --    146.0980               198.2920               268.1182
 Red. masses --      1.0805                 4.4930                 7.8085
 Frc consts  --      0.0136                 0.1041                 0.3307
 IR Inten    --      0.2449                14.1395                 1.0251

                      7                      8                      9
                      A                      A                      A
 Frequencies --    290.4528               319.9827               345.0193
 Red. masses --      3.5703                 3.7403                 1.3073
 Frc consts  --      0.1775                 0.2256                 0.0917
 IR Inten    --     12.0223                 5.6113                27.8088

                     10                     11                     12
                      A                      A                      A
 Frequencies --    384.8518               440.0366               469.3128
 Red. masses --      2.4749                 3.2006                 2.7316
 Frc consts  --      0.2160                 0.3651                 0.3545
 IR Inten    --     13.7107                17.9198                 3.4576

                     13                     14                     15
                      A                      A                      A
 Frequencies --    547.4321               606.4880               623.5978
 Red. masses --      6.5066                 2.7504                 1.2183
 Frc consts  --      1.1489                 0.5961                 0.2791
 IR Inten    --     26.2572                14.0099                90.9817

                     16                     17                     18
                      A                      A                      A
 Frequencies --    657.4981               773.5425               857.7526
 Red. masses --      3.6906                 2.2371                 2.7921
 Frc consts  --      0.9400                 0.7887                 1.2103
 IR Inten    --     10.9172                10.6073                 6.0031

                     19                     20                     21
                      A                      A                      A
 Frequencies --    895.0614               964.8593               990.1729
 Red. masses --      1.5449                 1.6219                 1.6668
 Frc consts  --      0.7292                 0.8896                 0.9629
 IR Inten    --    244.6730                 1.2641                19.2325

                     22                     23                     24
                      A                      A                      A
 Frequencies --   1033.1476              1100.5817              1130.7999
 Red. masses --      1.7629                 5.1160                 2.8486
 Frc consts  --      1.1087                 3.6511                 2.1461
 IR Inten    --     13.1139                39.7471                 3.1198

                     25                     26                     27
                      A                      A                      A
 Frequencies --   1145.3424              1184.9708              1210.0453
 Red. masses --      2.5441                 1.6207                 2.2659
 Frc consts  --      1.9663                 1.3408                 1.9548
 IR Inten    --     23.3317                21.9072                75.7803

                     28                     29                     30
                      A                      A                      A
 Frequencies --   1248.6423              1289.3083              1340.3167
 Red. masses --      1.3417                 1.3805                 1.2303
 Frc consts  --      1.2325                 1.3521                 1.3022
 IR Inten    --     56.0016                21.4781                 3.3788

                     31                     32                     33
                      A                      A                      A
 Frequencies --   1380.2338              1380.9945              1402.7407
 Red. masses --      1.2895                 1.3271                 1.2687
 Frc consts  --      1.4473                 1.4912                 1.4708
 IR Inten    --     44.9109                 3.7095                 5.0411

                     34                     35                     36
                      A                      A                      A
 Frequencies --   1444.7984              1457.7219              1464.8573
 Red. masses --      1.3580                 1.1615                 1.0549
 Frc consts  --      1.6702                 1.4542                 1.3337
 IR Inten    --     61.2409                 3.2947                 9.1460

                     37                     38                     39
                      A                      A                      A
 Frequencies --   1678.1888              1797.7914              1804.8306
 Red. masses --      1.0868                10.8952                10.2234
 Frc consts  --      1.8034                20.7474                19.6208
 IR Inten    --     20.4018               231.5644                26.6789

                     40                     41                     42
                      A                      A                      A
 Frequencies --   2902.4006              2935.6402              3001.6421
 Red. masses --      1.0787                 1.0860                 1.0809
 Frc consts  --      5.3538                 5.5141                 5.7378
 IR Inten    --     39.3359                83.2749                15.3863

                     43                     44                     45
                      A                      A                      A
 Frequencies --   3050.3041              3115.2701              3160.0005
 Red. masses --      1.0352                 1.0966                 1.1050
 Frc consts  --      5.6747                 6.2703                 6.5012
 IR Inten    --      1.2445                 3.0944                 9.5953

                     46                     47                     48
                      A                      A                      A
 Frequencies --   3484.7451              3568.3472              3689.8204
 Red. masses --      1.0510                 1.0897                 1.0655
 Frc consts  --      7.5200                 8.1749                 8.5468
 IR Inten    --      7.9020                30.8792               179.1686

 - Thermochemistry -
 -------------------
 Temperature   298.150 Kelvin.  Pressure   1.00000 Atm.
 Atom     1 has atomic number  6 and mass  12.00000

 Molecular mass:   131.05824 amu.
 Principal axes and moments of inertia in atomic units:
                           1         2         3
     Eigenvalues --   687.259921486.706332089.30111
           X            0.99841   0.05625  -0.00378
           Y           -0.05624   0.99841   0.00299
           Z            0.00394  -0.00277   0.99999
 This molecule is an asymmetric top.
 Rotational symmetry number  1.
 Warning -- assumption of classical behavior for rotation
           may cause significant error
 Rotational temperatures (Kelvin)      0.12603     0.05826     0.04146
 Rotational constants (GHZ):           2.62600     1.21392     0.86380
 Zero-point vibrational energy     379289.3 (Joules/Mol)
                                   90.65231 (Kcal/Mol)
 Warning -- explicit consideration of  14 degrees of freedom as
           vibrations may cause significant error
 Vibrational temperatures:     55.10   106.06   169.99   210.20   285.30
          (Kelvin)            385.76   417.90   460.38   496.41   553.72
                              633.11   675.24   787.63   872.60   897.22
                              945.99  1112.96  1234.11  1287.79  1388.22
                             1424.64  1486.47  1583.49  1626.97  1647.89
                             1704.91  1740.99  1796.52  1855.03  1928.42
                             1985.85  1986.94  2018.23  2078.74  2097.34
                             2107.60  2414.54  2586.62  2596.75  4175.91
                             4223.73  4318.69  4388.71  4482.18  4546.54
                             5013.77  5134.06  5308.83

 Zero-point correction=                           0.144464 (Hartree/Particle)
 Thermal correction to Energy=                    0.154484
 Thermal correction to Enthalpy=                  0.155428
 Thermal correction to Gibbs Free Energy=         0.108738
 Sum of electronic and zero-point Energies=           -476.239744
 Sum of electronic and thermal Energies=              -476.229724
 Sum of electronic and thermal Enthalpies=            -476.228780
 Sum of electronic and thermal Free Energies=         -476.275470

                     E (Thermal)             CV                S
                      KCal/Mol        Cal/Mol-Kelvin    Cal/Mol-Kelvin
 Total                   96.940             35.742             98.268
 Electronic               0.000              0.000              0.000
 Translational            0.889              2.981             40.524
 Rotational               0.889              2.981             29.147
 Vibrational             95.162             29.780             28.597
 Vibration     1          0.594              1.982              5.345
 Vibration     2          0.599              1.966              4.052
 Vibration     3          0.608              1.934              3.130
 Vibration     4          0.617              1.907              2.722
 Vibration     5          0.637              1.842              2.149
 Vibration     6          0.673              1.732              1.608
 Vibration     7          0.686              1.691              1.471
 Vibration     8          0.706              1.635              1.310
 Vibration     9          0.723              1.585              1.189
 Vibration    10          0.754              1.503              1.020
 Vibration    11          0.800              1.383              0.826
 Vibration    12          0.826              1.318              0.739
 Vibration    13          0.903              1.145              0.550
 Vibration    14          0.965              1.018              0.439

                           ! Non-Optimized Parameters !
 Normal termination of Gaussian 16 at Sun Jul  3 19:58:52 2022.
