 Gaussian 16, Revision A.03,
 Gaussian 16:  ES64L-G16RevA.03 25-Dec-2016

 -----------------------------
 # opt freq b3lyp/6-31g(2df,p)
 -----------------------------

 -------------------
 Title Card Required
 -------------------
 Symbolic Z-matrix:
 Charge =  0 Multiplicity = 1

 SCF Done:  E(RB3LYP) =  -365.232954544     A.U. after   13 cycles
 SCF Done:  E(RB3LYP) =  -365.236554940     A.U. after   11 cycles
 SCF Done:  E(RB3LYP) =  -365.242788564     A.U. after   12 cycles
 SCF Done:  E(RB3LYP) =  -365.244053502     A.U. after   12 cycles
 SCF Done:  E(RB3LYP) =  -365.244101981     A.U. after   13 cycles
 SCF Done:  E(RB3LYP) =  -365.245856222     A.U. after   12 cycles
 SCF Done:  E(RB3LYP) =  -365.247457520     A.U. after   12 cycles
 SCF Done:  E(RB3LYP) =  -365.249046997     A.U. after   12 cycles
 SCF Done:  E(RB3LYP) =  -365.250804390     A.U. after   13 cycles
 SCF Done:  E(RB3LYP) =  -365.252262739     A.U. after   13 cycles
 SCF Done:  E(RB3LYP) =  -365.256097637     A.U. after   12 cycles
 SCF Done:  E(RB3LYP) =  -365.255004146     A.U. after   13 cycles
 SCF Done:  E(RB3LYP) =  -365.255650892     A.U. after   11 cycles
 SCF Done:  E(RB3LYP) =  -365.256271945     A.U. after    9 cycles
 SCF Done:  E(RB3LYP) =  -365.256266047     A.U. after   13 cycles
 SCF Done:  E(RB3LYP) =  -365.256350553     A.U. after   12 cycles
 SCF Done:  E(RB3LYP) =  -365.256354247     A.U. after    9 cycles
 SCF Done:  E(RB3LYP) =  -365.256354421     A.U. after    8 cycles
 SCF Done:  E(RB3LYP) =  -365.256354454     A.U. after    7 cycles
 Optimization completed.
    -- Stationary point found.
 Normal termination of Gaussian 16 at Sun Jul  3 20:54:48 2022.

 ----------------------------------------------------------------------
 #N Geom=AllCheck Guess=TCheck SCRF=Check GenChk RB3LYP/6-31G(2df,p) Fr
 eq
 ----------------------------------------------------------------------

 Structure from the checkpoint file:  "CCpdNpCpCpCpCpdO.chk"
 -------------------
 Title Card Required
 -------------------
 Charge =  0 Multiplicity = 1

                         Standard orientation:
 ---------------------------------------------------------------------
 Center     Atomic      Atomic             Coordinates (Angstroms)
 Number     Number       Type             X           Y           Z
 ---------------------------------------------------------------------
      1          6           0        2.021784   -1.156173    0.174269
      2          6           0        1.226690    0.086331   -0.144342
      3          7           0        1.473666    0.918942   -1.074330
      4          6           0       -0.013950    0.303172    0.726798
      5          6           0       -0.359173    1.782199    0.922391
      6          6           0       -1.132686   -0.534935    0.068061
      7          6           0       -1.963488    0.132385   -1.008177
      8          8           0       -1.288859   -1.693646    0.379770
      9          1           0        2.787065   -1.350226   -0.581897
     10          1           0        1.354875   -2.021407    0.250973
     11          1           0        2.511551   -1.049467    1.149814
     12          1           0        2.309320    0.643894   -1.596061
     13          1           0        0.163348   -0.178636    1.693418
     14          1           0       -0.459029    2.295796   -0.034530
     15          1           0        0.441204    2.280570    1.476630
     16          1           0       -1.286579    1.896270    1.492282
     17          1           0       -1.311745    0.630727   -1.732767
     18          1           0       -2.602988    0.905421   -0.568601
     19          1           0       -2.586875   -0.614237   -1.501111
 ---------------------------------------------------------------------

 SCF Done:  E(RB3LYP) =  -365.256354454     A.U. after    1 cycles

 The electronic state is 1-A.
 Alpha  occ. eigenvalues --  -19.13023 -14.31443 -10.27266 -10.24094 -10.19952
 Alpha  occ. eigenvalues --  -10.19124 -10.18503 -10.18000  -1.04130  -0.91108
 Alpha  occ. eigenvalues --   -0.79172  -0.73895  -0.72476  -0.65377  -0.56787
 Alpha  occ. eigenvalues --   -0.52092  -0.47432  -0.46504  -0.45673  -0.43578
 Alpha  occ. eigenvalues --   -0.42889  -0.42017  -0.41020  -0.39327  -0.37692
 Alpha  occ. eigenvalues --   -0.36526  -0.35269  -0.34340  -0.30906  -0.26415
 Alpha  occ. eigenvalues --   -0.24108
 Alpha virt. eigenvalues --   -0.02854   0.02282   0.08029   0.10561   0.12771
 Alpha virt. eigenvalues --    0.13675   0.14633   0.15368   0.16033   0.16620
 Alpha virt. eigenvalues --    0.17724   0.18298   0.19514   0.21580   0.22344

 Mulliken charges:
               1
     1  C   -0.472083
     2  C    0.298113
     3  N   -0.457109
     4  C   -0.109818
     5  C   -0.413386
     6  C    0.378735
     7  C   -0.481973
     8  O   -0.306362
     9  H    0.119285
    10  H    0.163744
    11  H    0.139069
    12  H    0.216496
    13  H    0.098119
    14  H    0.148188
    15  H    0.122175
    16  H    0.112335
    17  H    0.162869
    18  H    0.143800
    19  H    0.137802
 Sum of Mulliken charges =  -0.00000

 Dipole moment (field-independent basis, Debye):
    X=              1.0869    Y=              0.7526    Z=              0.1353  Tot=              1.3289
 Quadrupole moment (field-independent basis, Debye-Ang):
   XX=            -44.7412   YY=            -55.2888   ZZ=            -47.8511
   XY=             -5.8486   XZ=              0.9787   YZ=              2.9470

  Exact polarizability:  77.961  -0.850  74.123  -1.921  -4.750  66.975
 Approx polarizability: 103.016   5.352 116.394  -6.610 -16.583 104.103

                      1                      2                      3
                      A                      A                      A
 Frequencies --     56.9649                66.5203               152.5305
 Red. masses --      4.5123                 4.0129                 3.1618
 Frc consts  --      0.0086                 0.0105                 0.0433
 IR Inten    --      5.4206                 7.5419                 0.7551

                      4                      5                      6
                      A                      A                      A
 Frequencies --    184.0233               192.0395               216.4214
 Red. masses --      1.0512                 1.0716                 1.0530
 Frc consts  --      0.0210                 0.0233                 0.0291
 IR Inten    --      0.1407                 0.1287                 0.1366

                      7                      8                      9
                      A                      A                      A
 Frequencies --    258.8901               273.8879               352.0412
 Red. masses --      2.6542                 2.7028                 2.9352
 Frc consts  --      0.1048                 0.1195                 0.2143
 IR Inten    --      3.5916                 2.9547                 0.9772

                     10                     11                     12
                      A                      A                      A
 Frequencies --    449.0579               478.0594               537.0844
 Red. masses --      3.0809                 4.4930                 2.6092
 Frc consts  --      0.3660                 0.6050                 0.4434
 IR Inten    --      6.2420                 4.1997                 4.5615

                     13                     14                     15
                      A                      A                      A
 Frequencies --    585.0174               619.3594               737.1085
 Red. masses --      3.1032                 2.4973                 2.6265
 Frc consts  --      0.6257                 0.5644                 0.8408
 IR Inten    --     13.1775                 2.1329                13.3745

                     16                     17                     18
                      A                      A                      A
 Frequencies --    799.5923               888.4976               940.3711
 Red. masses --      2.5179                 1.2473                 1.6339
 Frc consts  --      0.9485                 0.5802                 0.8513
 IR Inten    --     13.0145                46.0538                11.4496

                     19                     20                     21
                      A                      A                      A
 Frequencies --    972.8398              1005.4018              1061.6005
 Red. masses --      2.1249                 1.6397                 1.6342
 Frc consts  --      1.1849                 0.9765                 1.0851
 IR Inten    --     11.2573                 1.8462                16.2433

                     22                     23                     24
                      A                      A                      A
 Frequencies --   1075.2435              1086.1069              1109.7583
 Red. masses --      1.4876                 1.6748                 1.5642
 Frc consts  --      1.0133                 1.1640                 1.1350
 IR Inten    --     43.7314                 5.3077                18.3781

                     25                     26                     27
                      A                      A                      A
 Frequencies --   1130.8150              1219.6458              1268.0514
 Red. masses --      2.6863                 3.1002                 1.3406
 Frc consts  --      2.0239                 2.7171                 1.2700
 IR Inten    --      6.7680                77.7169                17.7423

                     28                     29                     30
                      A                      A                      A
 Frequencies --   1323.0638              1380.5560              1382.2049
 Red. masses --      1.3838                 1.3446                 1.4698
 Frc consts  --      1.4272                 1.5099                 1.6544
 IR Inten    --     33.6377                40.4100                 3.5736

                     31                     32                     33
                      A                      A                      A
 Frequencies --   1404.4493              1410.3193              1463.0960
 Red. masses --      1.3646                 1.2623                 1.0503
 Frc consts  --      1.5858                 1.4792                 1.3247
 IR Inten    --     21.5041                23.0011                15.0692

                     34                     35                     36
                      A                      A                      A
 Frequencies --   1471.8940              1473.0795              1484.2345
 Red. masses --      1.0510                 1.0528                 1.0649
 Frc consts  --      1.3415                 1.3460                 1.3822
 IR Inten    --      9.3255                 3.3101                15.6543

                     37                     38                     39
                      A                      A                      A
 Frequencies --   1493.2651              1502.6144              1721.0187
 Red. masses --      1.0462                 1.0461                 7.9575
 Frc consts  --      1.3745                 1.3917                13.8867
 IR Inten    --      9.4310                 5.7945                83.0925

                     40                     41                     42
                      A                      A                      A
 Frequencies --   1799.4966              3028.6337              3042.7928
 Red. masses --     10.7259                 1.0366                 1.0361
 Frc consts  --     20.4638                 5.6020                 5.6519
 IR Inten    --    141.6269                 8.1930                 1.3695

                     43                     44                     45
                      A                      A                      A
 Frequencies --   3046.5068              3062.2141              3092.9700
 Red. masses --      1.0385                 1.0828                 1.0970
 Frc consts  --      5.6788                 5.9822                 6.1830
 IR Inten    --     23.3401                10.8615                 7.3470

                     46                     47                     48
                      A                      A                      A
 Frequencies --   3107.3087              3110.2331              3122.6090
 Red. masses --      1.0983                 1.1007                 1.1037
 Frc consts  --      6.2479                 6.2733                 6.3407
 IR Inten    --      5.0430                19.2086                13.4396

                     49                     50                     51
                      A                      A                      A
 Frequencies --   3146.9076              3154.9799              3434.8879
 Red. masses --      1.0990                 1.1033                 1.0744
 Frc consts  --      6.4123                 6.4706                 7.4684
 IR Inten    --     11.5004                 7.3115                 3.0242

 - Thermochemistry -
 -------------------
 Temperature   298.150 Kelvin.  Pressure   1.00000 Atm.
 Atom     1 has atomic number  6 and mass  12.00000

 Molecular mass:   113.08406 amu.
 Principal axes and moments of inertia in atomic units:
                           1         2         3
     Eigenvalues --   726.182371045.261401307.85347
           X            0.99077  -0.13313   0.02544
           Y            0.13211   0.99050   0.03802
           Z           -0.03026  -0.03431   0.99895
 This molecule is an asymmetric top.
 Rotational symmetry number  1.
 Warning -- assumption of classical behavior for rotation
           may cause significant error
 Rotational temperatures (Kelvin)      0.11927     0.08286     0.06623
 Rotational constants (GHZ):           2.48525     1.72659     1.37993
 Zero-point vibrational energy     426924.9 (Joules/Mol)
                                  102.03749 (Kcal/Mol)
 Warning -- explicit consideration of  14 degrees of freedom as
           vibrations may cause significant error
 Vibrational temperatures:     81.96    95.71   219.46   264.77   276.30
          (Kelvin)            311.38   372.49   394.06   506.51   646.09
                              687.82   772.74   841.71   891.12  1060.53
                             1150.44  1278.35  1352.98  1399.70  1446.55
                             1527.41  1547.04  1562.67  1596.69  1626.99
                             1754.80  1824.44  1903.59  1986.31  1988.68
                             2020.69  2029.13  2105.07  2117.73  2119.43
                             2135.48  2148.48  2161.93  2476.16  2589.07
                             4357.53  4377.90  4383.24  4405.84  4450.09
                             4470.72  4474.93  4492.74  4527.70  4539.31
                             4942.04

 Zero-point correction=                           0.162607 (Hartree/Particle)
 Thermal correction to Energy=                    0.172293
 Thermal correction to Enthalpy=                  0.173237
 Thermal correction to Gibbs Free Energy=         0.127960
 Sum of electronic and zero-point Energies=           -365.093747
 Sum of electronic and thermal Energies=              -365.084061
 Sum of electronic and thermal Enthalpies=            -365.083117
 Sum of electronic and thermal Free Energies=         -365.128395

                     E (Thermal)             CV                S
                      KCal/Mol        Cal/Mol-Kelvin    Cal/Mol-Kelvin
 Total                  108.116             34.315             95.294
 Electronic               0.000              0.000              0.000
 Translational            0.889              2.981             40.085
 Rotational               0.889              2.981             28.386
 Vibrational            106.338             28.353             26.824
 Vibration     1          0.596              1.975              4.560
 Vibration     2          0.598              1.970              4.254
 Vibration     3          0.619              1.900              2.640
 Vibration     4          0.631              1.862              2.287
 Vibration     5          0.634              1.851              2.208
 Vibration     6          0.645              1.816              1.989
 Vibration     7          0.668              1.748              1.669
 Vibration     8          0.676              1.722              1.572
 Vibration     9          0.729              1.571              1.157
 Vibration    10          0.808              1.363              0.799
 Vibration    11          0.835              1.299              0.715
 Vibration    12          0.892              1.168              0.572
 Vibration    13          0.942              1.064              0.476
 Vibration    14          0.979              0.991              0.418

 Optimization completed.
    -- Stationary point found.
 Normal termination of Gaussian 16 at Sun Jul  3 21:17:35 2022.
