 Gaussian 16, Revision A.03,
 Gaussian 16:  ES64L-G16RevA.03 25-Dec-2016

 -----------------------------
 # opt freq b3lyp/6-31g(2df,p)
 -----------------------------

 -------------------
 Title Card Required
 -------------------
 Symbolic Z-matrix:
 Charge =  0 Multiplicity = 1

 SCF Done:  E(RB3LYP) =  -441.683237723     A.U. after   13 cycles
 SCF Done:  E(RB3LYP) =  -441.687804456     A.U. after   13 cycles
 SCF Done:  E(RB3LYP) =  -441.688173099     A.U. after   13 cycles
 SCF Done:  E(RB3LYP) =  -441.688564568     A.U. after   12 cycles
 SCF Done:  E(RB3LYP) =  -441.688888332     A.U. after   10 cycles
 SCF Done:  E(RB3LYP) =  -441.688931993     A.U. after   10 cycles
 SCF Done:  E(RB3LYP) =  -441.688943410     A.U. after   10 cycles
 SCF Done:  E(RB3LYP) =  -441.688949966     A.U. after   10 cycles
 SCF Done:  E(RB3LYP) =  -441.688952467     A.U. after    9 cycles
 SCF Done:  E(RB3LYP) =  -441.688957511     A.U. after   10 cycles
 SCF Done:  E(RB3LYP) =  -441.688960558     A.U. after    9 cycles
 SCF Done:  E(RB3LYP) =  -441.688962876     A.U. after    8 cycles
 SCF Done:  E(RB3LYP) =  -441.688964189     A.U. after    8 cycles
 SCF Done:  E(RB3LYP) =  -441.688964838     A.U. after    7 cycles
 SCF Done:  E(RB3LYP) =  -441.688964970     A.U. after    7 cycles
 SCF Done:  E(RB3LYP) =  -441.688965014     A.U. after    7 cycles
 Optimization completed.
    -- Stationary point found.
 Normal termination of Gaussian 16 at Thu Aug  4 00:17:28 2022.

 ----------------------------------------------------------------------
 #N Geom=AllCheck Guess=TCheck SCRF=Check GenChk RB3LYP/6-31G(2df,p) Fr
 eq
 ----------------------------------------------------------------------

 Structure from the checkpoint file:  "CCpdOpCCpNpCCO.chk"
 -------------------
 Title Card Required
 -------------------
 Charge =  0 Multiplicity = 1

                         Standard orientation:
 ---------------------------------------------------------------------
 Center     Atomic      Atomic             Coordinates (Angstroms)
 Number     Number       Type             X           Y           Z
 ---------------------------------------------------------------------
      1          6           0       -3.539270   -0.951990    0.057036
      2          6           0       -2.326648   -0.057958   -0.131541
      3          8           0       -2.433631    1.066915   -0.570614
      4          6           0       -0.979964   -0.660772    0.251518
      5          6           0        0.240066    0.215179   -0.094599
      6          7           0        0.275560    1.506259    0.601957
      7          6           0        1.548131   -0.547075    0.158671
      8          6           0        2.786163    0.175898   -0.377631
      9          8           0        3.981112   -0.566038   -0.167807
     10          1           0       -4.451352   -0.391087   -0.150068
     11          1           0       -3.570411   -1.355931    1.074798
     12          1           0       -3.478340   -1.810460   -0.621914
     13          1           0       -0.905620   -1.646952   -0.228883
     14          1           0       -1.002211   -0.872026    1.331881
     15          1           0        0.178440    0.449137   -1.165662
     16          1           0        0.239405    1.354343    1.607688
     17          1           0       -0.560792    2.025574    0.353062
     18          1           0        1.499254   -1.542239   -0.298716
     19          1           0        1.665138   -0.709036    1.241991
     20          1           0        2.846245    1.182139    0.054942
     21          1           0        2.700785    0.295121   -1.463753
     22          1           0        4.159816   -0.569104    0.777581
 ---------------------------------------------------------------------

 SCF Done:  E(RB3LYP) =  -441.688965014     A.U. after    1 cycles

 The electronic state is 1-A.
 Alpha  occ. eigenvalues --  -19.13767 -19.12511 -14.30145 -10.27864 -10.21445
 Alpha  occ. eigenvalues --  -10.21429 -10.19511 -10.19504 -10.17774  -1.04739
 Alpha  occ. eigenvalues --   -1.00511  -0.88317  -0.77942  -0.75331  -0.71751
 Alpha  occ. eigenvalues --   -0.63532  -0.58401  -0.53434  -0.50097  -0.49069
 Alpha  occ. eigenvalues --   -0.47214  -0.45693  -0.44932  -0.44186  -0.41826
 Alpha  occ. eigenvalues --   -0.40625  -0.40195  -0.38826  -0.37071  -0.35784
 Alpha  occ. eigenvalues --   -0.35290  -0.33619  -0.31259  -0.26282  -0.25673
 Alpha  occ. eigenvalues --   -0.22744
 Alpha virt. eigenvalues --   -0.01907   0.07035   0.08293   0.10124   0.11344
 Alpha virt. eigenvalues --    0.13539   0.14596   0.14754   0.15477   0.16555
 Alpha virt. eigenvalues --    0.16755   0.17845   0.18952   0.20289   0.21349

 Mulliken charges:
               1
     1  C   -0.470086
     2  C    0.375623
     3  O   -0.295976
     4  C   -0.314664
     5  C    0.034653
     6  N   -0.517032
     7  C   -0.195324
     8  C   -0.066981
     9  O   -0.421202
    10  H    0.144051
    11  H    0.136421
    12  H    0.143665
    13  H    0.115657
    14  H    0.113438
    15  H    0.093522
    16  H    0.210156
    17  H    0.245156
    18  H    0.098338
    19  H    0.074082
    20  H    0.112175
    21  H    0.106475
    22  H    0.277854
 Sum of Mulliken charges =  -0.00000

 Dipole moment (field-independent basis, Debye):
    X=             -1.9163    Y=             -2.2650    Z=              2.3449  Tot=              3.7817
 Quadrupole moment (field-independent basis, Debye-Ang):
   XX=            -61.2171   YY=            -58.4884   ZZ=            -51.6202
   XY=              6.0351   XZ=              3.0729   YZ=              0.9544

  Exact polarizability:  94.914   1.161  75.815   1.738  -1.930  67.656
 Approx polarizability: 108.373  -2.956 118.911   3.509  -5.861 107.266

                      1                      2                      3
                      A                      A                      A
 Frequencies --     39.2770                63.7010                75.4830
 Red. masses --      2.6405                 4.3048                 2.0367
 Frc consts  --      0.0024                 0.0103                 0.0068
 IR Inten    --      1.1610                 1.8768                 4.9714

                      4                      5                      6
                      A                      A                      A
 Frequencies --    109.3251               122.4950               145.8991
 Red. masses --      1.2482                 2.8280                 2.7824
 Frc consts  --      0.0088                 0.0250                 0.0349
 IR Inten    --      0.5653                 3.3594                 0.7217

                      7                      8                      9
                      A                      A                      A
 Frequencies --    228.0129               285.4040               288.0399
 Red. masses --      4.0791                 3.6249                 1.2234
 Frc consts  --      0.1249                 0.1740                 0.0598
 IR Inten    --     10.8547                 5.0016                94.5047

                     10                     11                     12
                      A                      A                      A
 Frequencies --    311.4647               349.6359               394.9997
 Red. masses --      1.7418                 1.5563                 2.7026
 Frc consts  --      0.0996                 0.1121                 0.2484
 IR Inten    --     10.3138                23.1043                14.1291

                     13                     14                     15
                      A                      A                      A
 Frequencies --    454.8253               495.3702               508.9081
 Red. masses --      1.8473                 2.4140                 3.2355
 Frc consts  --      0.2251                 0.3490                 0.4937
 IR Inten    --      1.6680                 1.0910                18.2876

                     16                     17                     18
                      A                      A                      A
 Frequencies --    628.1418               783.9000               815.1683
 Red. masses --      3.3264                 1.2227                 1.8380
 Frc consts  --      0.7733                 0.4427                 0.7196
 IR Inten    --      7.0650                 3.4264                 1.2865

                     19                     20                     21
                      A                      A                      A
 Frequencies --    832.2207               879.9503               947.9238
 Red. masses --      3.0849                 2.0393                 1.5847
 Frc consts  --      1.2588                 0.9303                 0.8389
 IR Inten    --      0.2172               105.4160                72.4448

                     22                     23                     24
                      A                      A                      A
 Frequencies --    959.2901               991.2015              1008.5041
 Red. masses --      1.8929                 1.6432                 2.5283
 Frc consts  --      1.0263                 0.9512                 1.5151
 IR Inten    --     23.0292                10.2209                24.4246

                     25                     26                     27
                      A                      A                      A
 Frequencies --   1036.3759              1073.3984              1099.7338
 Red. masses --      1.6330                 4.2909                 2.2989
 Frc consts  --      1.0334                 2.9129                 1.6381
 IR Inten    --      1.9824               112.4875                25.4443

                     28                     29                     30
                      A                      A                      A
 Frequencies --   1129.5240              1145.9923              1174.9539
 Red. masses --      1.1877                 2.4668                 1.8715
 Frc consts  --      0.8928                 1.9087                 1.5222
 IR Inten    --     17.7573                12.3137                53.3831

                     31                     32                     33
                      A                      A                      A
 Frequencies --   1211.5373              1276.9135              1287.9076
 Red. masses --      1.4415                 1.3208                 1.3945
 Frc consts  --      1.2466                 1.2688                 1.3628
 IR Inten    --      3.2912                 7.6903                13.6188

                     34                     35                     36
                      A                      A                      A
 Frequencies --   1335.2133              1340.2814              1378.4098
 Red. masses --      1.2123                 1.4852                 1.3519
 Frc consts  --      1.2734                 1.5719                 1.5133
 IR Inten    --      1.6586                 5.4830                13.6556

                     37                     38                     39
                      A                      A                      A
 Frequencies --   1385.0476              1397.9910              1411.0296
 Red. masses --      1.4854                 1.2893                 1.3542
 Frc consts  --      1.6789                 1.4846                 1.5886
 IR Inten    --     67.1621                10.7514                20.5352

                     40                     41                     42
                      A                      A                      A
 Frequencies --   1419.4531              1438.1172              1463.2629
 Red. masses --      1.2723                 1.1189                 1.0576
 Frc consts  --      1.5104                 1.3634                 1.3342
 IR Inten    --     19.7316                 7.0006                13.0606

                     43                     44                     45
                      A                      A                      A
 Frequencies --   1476.4556              1482.1399              1516.1237
 Red. masses --      1.0495                 1.0866                 1.0913
 Frc consts  --      1.3480                 1.4064                 1.4779
 IR Inten    --      8.5309                 1.8924                 0.6902

                     46                     47                     48
                      A                      A                      A
 Frequencies --   1656.5489              1799.9170              2986.5724
 Red. masses --      1.0924                10.1509                 1.0681
 Frc consts  --      1.7662                19.3758                 5.6134
 IR Inten    --     21.8948               126.9578                19.6870

                     49                     50                     51
                      A                      A                      A
 Frequencies --   2997.9749              3022.1848              3028.2318
 Red. masses --      1.0627                 1.0791                 1.0652
 Frc consts  --      5.6274                 5.8069                 5.7550
 IR Inten    --     11.4060                 2.9599                37.4353

                     52                     53                     54
                      A                      A                      A
 Frequencies --   3036.4229              3037.3097              3055.1994
 Red. masses --      1.0537                 1.0745                 1.0922
 Frc consts  --      5.7239                 5.8405                 6.0067
 IR Inten    --     16.5541                13.7334                12.5623

                     55                     56                     57
                      A                      A                      A
 Frequencies --   3080.0912              3097.2151              3151.6910
 Red. masses --      1.1058                 1.0980                 1.1021
 Frc consts  --      6.1810                 6.2060                 6.4497
 IR Inten    --     58.6628                 9.4196                 9.9358

                     58                     59                     60
                      A                      A                      A
 Frequencies --   3474.9774              3568.6437              3818.7179
 Red. masses --      1.0512                 1.0891                 1.0662
 Frc consts  --      7.4788                 8.1719                 9.1605
 IR Inten    --      4.5806                10.1025                15.0106

 - Thermochemistry -
 -------------------
 Temperature   298.150 Kelvin.  Pressure   1.00000 Atm.
 Atom     1 has atomic number  6 and mass  12.00000

 Molecular mass:   131.09463 amu.
 Principal axes and moments of inertia in atomic units:
                           1         2         3
     Eigenvalues --   431.784902892.399823140.31993
           X            0.99983   0.01844  -0.00145
           Y           -0.01844   0.99983  -0.00014
           Z            0.00145   0.00017   1.00000
 This molecule is an asymmetric top.
 Rotational symmetry number  1.
 Rotational temperatures (Kelvin)      0.20060     0.02995     0.02758
 Rotational constants (GHZ):           4.17972     0.62396     0.57470
 Zero-point vibrational energy     502495.6 (Joules/Mol)
                                  120.09933 (Kcal/Mol)
 Warning -- explicit consideration of  15 degrees of freedom as
           vibrations may cause significant error
 Vibrational temperatures:     56.51    91.65   108.60   157.29   176.24
          (Kelvin)            209.92   328.06   410.63   414.43   448.13
                              503.05   568.32   654.39   712.73   732.21
                              903.76  1127.86  1172.85  1197.38  1266.05
                             1363.85  1380.20  1426.12  1451.01  1491.11
                             1544.38  1582.27  1625.13  1648.83  1690.50
                             1743.13  1837.19  1853.01  1921.07  1928.37
                             1983.22  1992.77  2011.40  2030.16  2042.28
                             2069.13  2105.31  2124.29  2132.47  2181.36
                             2383.40  2589.68  4297.01  4313.42  4348.25
                             4356.95  4368.74  4370.01  4395.75  4431.56
                             4456.20  4534.58  4999.72  5134.48  5494.28

 Zero-point correction=                           0.191390 (Hartree/Particle)
 Thermal correction to Energy=                    0.202775
 Thermal correction to Enthalpy=                  0.203719
 Thermal correction to Gibbs Free Energy=         0.153499
 Sum of electronic and zero-point Energies=           -441.497575
 Sum of electronic and thermal Energies=              -441.486190
 Sum of electronic and thermal Enthalpies=            -441.485246
 Sum of electronic and thermal Free Energies=         -441.535466

                     E (Thermal)             CV                S
                      KCal/Mol        Cal/Mol-Kelvin    Cal/Mol-Kelvin
 Total                  127.243             39.852            105.697
 Electronic               0.000              0.000              0.000
 Translational            0.889              2.981             40.525
 Rotational               0.889              2.981             29.751
 Vibrational            125.466             33.890             35.420
 Vibration     1          0.594              1.981              5.295
 Vibration     2          0.597              1.972              4.339
 Vibration     3          0.599              1.965              4.005
 Vibration     4          0.606              1.942              3.281
 Vibration     5          0.610              1.930              3.061
 Vibration     6          0.617              1.907              2.725
 Vibration     7          0.651              1.798              1.895
 Vibration     8          0.683              1.701              1.501
 Vibration     9          0.685              1.696              1.485
 Vibration    10          0.700              1.652              1.355
 Vibration    11          0.727              1.576              1.168
 Vibration    12          0.762              1.481              0.981
 Vibration    13          0.813              1.350              0.781
 Vibration    14          0.851              1.260              0.670
 Vibration    15          0.864              1.230              0.636

 Optimization completed.
    -- Stationary point found.
 Normal termination of Gaussian 16 at Thu Aug  4 00:46:33 2022.
