 Gaussian 16, Revision A.03,
 Gaussian 16:  ES64L-G16RevA.03 25-Dec-2016

 -----------------------------
 # opt freq b3lyp/6-31g(2df,p)
 -----------------------------

 -------------------
 Title Card Required
 -------------------
 Symbolic Z-matrix:
 Charge =  0 Multiplicity = 1

 SCF Done:  E(RB3LYP) =  -404.573143625     A.U. after   14 cycles
 SCF Done:  E(RB3LYP) =  -404.575798816     A.U. after   12 cycles
 SCF Done:  E(RB3LYP) =  -404.576169308     A.U. after   11 cycles
 SCF Done:  E(RB3LYP) =  -404.576057525     A.U. after   11 cycles
 SCF Done:  E(RB3LYP) =  -404.576334104     A.U. after   11 cycles
 SCF Done:  E(RB3LYP) =  -404.576514260     A.U. after   11 cycles
 SCF Done:  E(RB3LYP) =  -404.577041081     A.U. after   12 cycles
 SCF Done:  E(RB3LYP) =  -404.577235073     A.U. after   12 cycles
 SCF Done:  E(RB3LYP) =  -404.577079096     A.U. after   12 cycles
 SCF Done:  E(RB3LYP) =  -404.577328593     A.U. after   12 cycles
 SCF Done:  E(RB3LYP) =  -404.577353016     A.U. after   10 cycles
 SCF Done:  E(RB3LYP) =  -404.577353809     A.U. after    9 cycles
 SCF Done:  E(RB3LYP) =  -404.577336280     A.U. after   10 cycles
 SCF Done:  E(RB3LYP) =  -404.577379665     A.U. after   11 cycles
 SCF Done:  E(RB3LYP) =  -404.577381686     A.U. after    9 cycles
 SCF Done:  E(RB3LYP) =  -404.577380450     A.U. after   11 cycles
 SCF Done:  E(RB3LYP) =  -404.577383595     A.U. after   10 cycles
 SCF Done:  E(RB3LYP) =  -404.577383678     A.U. after    7 cycles
 SCF Done:  E(RB3LYP) =  -404.577383749     A.U. after    7 cycles
 Optimization completed.
    -- Stationary point found.
 Normal termination of Gaussian 16 at Sun Jul  3 14:45:11 2022.

 ----------------------------------------------------------------------
 #N Geom=AllCheck Guess=TCheck SCRF=Check GenChk RB3LYP/6-31G(2df,p) Fr
 eq
 ----------------------------------------------------------------------

 Structure from the checkpoint file:  "CCpdOpCdCNCpCpC.chk"
 -------------------
 Title Card Required
 -------------------
 Charge =  0 Multiplicity = 1

                         Standard orientation:
 ---------------------------------------------------------------------
 Center     Atomic      Atomic             Coordinates (Angstroms)
 Number     Number       Type             X           Y           Z
 ---------------------------------------------------------------------
      1          6           0       -3.850139   -0.476915    0.448145
      2          6           0       -2.566561    0.121131   -0.115629
      3          8           0       -2.605540    1.080168   -0.874420
      4          6           0       -1.321707   -0.516891    0.309982
      5          6           0       -0.137551   -0.038792   -0.143904
      6          7           0        1.100480   -0.520503    0.106516
      7          6           0        2.335630    0.180310   -0.234068
      8          6           0        2.804180    1.097882    0.905254
      9          6           0        3.412244   -0.833026   -0.632017
     10          1           0       -4.710025    0.077178    0.070127
     11          1           0       -3.842956   -0.440992    1.543711
     12          1           0       -3.939598   -1.531848    0.163916
     13          1           0       -1.366623   -1.366557    0.985182
     14          1           0       -0.174745    0.819972   -0.811455
     15          1           0        1.183701   -1.272684    0.775992
     16          1           0        2.098331    0.800361   -1.106294
     17          1           0        3.041656    0.513091    1.801360
     18          1           0        2.025535    1.819605    1.167354
     19          1           0        3.703888    1.650155    0.615475
     20          1           0        3.655249   -1.493234    0.209458
     21          1           0        4.333548   -0.321660   -0.924642
     22          1           0        3.076426   -1.453399   -1.467012
 ---------------------------------------------------------------------

 SCF Done:  E(RB3LYP) =  -404.577383749     A.U. after    1 cycles

 The electronic state is 1-A.
 Alpha  occ. eigenvalues --  -19.08548 -14.36043 -10.23977 -10.23736 -10.22592
 Alpha  occ. eigenvalues --  -10.19201 -10.18830 -10.16538 -10.15552  -0.99591
 Alpha  occ. eigenvalues --   -0.95025  -0.80139  -0.74648  -0.70869  -0.70233
 Alpha  occ. eigenvalues --   -0.61755  -0.61620  -0.52176  -0.50597  -0.47223
 Alpha  occ. eigenvalues --   -0.45651  -0.43603  -0.43504  -0.41493  -0.40231
 Alpha  occ. eigenvalues --   -0.39817  -0.39273  -0.37142  -0.36502  -0.35965
 Alpha  occ. eigenvalues --   -0.35533  -0.34186  -0.31577  -0.21666  -0.20283
 Alpha virt. eigenvalues --   -0.01246   0.06981   0.08689   0.09231   0.11765
 Alpha virt. eigenvalues --    0.12358   0.13581   0.13651   0.14953   0.16761
 Alpha virt. eigenvalues --    0.17476   0.17559   0.18259   0.18492   0.19359

 Mulliken charges:
               1
     1  C   -0.479029
     2  C    0.385763
     3  O   -0.364161
     4  C   -0.329330
     5  C    0.128287
     6  N   -0.285166
     7  C    0.049926
     8  C   -0.375969
     9  C   -0.392212
    10  H    0.130782
    11  H    0.126217
    12  H    0.126844
    13  H    0.063239
    14  H    0.134531
    15  H    0.241350
    16  H    0.104081
    17  H    0.113779
    18  H    0.130740
    19  H    0.120629
    20  H    0.114997
    21  H    0.125407
    22  H    0.129294
 Sum of Mulliken charges =  -0.00000

 Dipole moment (field-independent basis, Debye):
    X=              4.0988    Y=             -2.1140    Z=              1.8030  Tot=              4.9518
 Quadrupole moment (field-independent basis, Debye-Ang):
   XX=            -54.7247   YY=            -56.2594   ZZ=            -56.2864
   XY=              5.2818   XZ=             -4.4168   YZ=             -0.1296

  Exact polarizability: 142.562   0.122  74.958  -2.067  -7.417  68.967
 Approx polarizability: 178.786  -5.678 115.932  -0.100 -19.454 105.661

                      1                      2                      3
                      A                      A                      A
 Frequencies --     29.2732                50.1659                96.6196
 Red. masses --      3.3649                 3.0601                 1.2506
 Frc consts  --      0.0017                 0.0045                 0.0069
 IR Inten    --      1.0824                 4.3792                 0.6917

                      4                      5                      6
                      A                      A                      A
 Frequencies --     99.1586               148.6199               224.3569
 Red. masses --      2.5755                 3.5148                 1.2419
 Frc consts  --      0.0149                 0.0457                 0.0368
 IR Inten    --      1.7391                 1.4356                 0.6796

                      7                      8                      9
                      A                      A                      A
 Frequencies --    230.5942               249.7539               278.3427
 Red. masses --      1.4445                 1.4711                 2.7993
 Frc consts  --      0.0453                 0.0541                 0.1278
 IR Inten    --      0.7151                 2.9503                 0.8245

                     10                     11                     12
                      A                      A                      A
 Frequencies --    291.1377               384.1205               421.0308
 Red. masses --      1.9849                 2.4336                 2.7676
 Frc consts  --      0.0991                 0.2116                 0.2891
 IR Inten    --      2.1356                 2.0874                 0.8520

                     13                     14                     15
                      A                      A                      A
 Frequencies --    474.3805               512.1742               562.3401
 Red. masses --      2.7795                 2.8207                 1.4517
 Frc consts  --      0.3685                 0.4360                 0.2705
 IR Inten    --      7.8926                 3.5770                87.7796

                     16                     17                     18
                      A                      A                      A
 Frequencies --    597.1606               619.5960               815.2221
 Red. masses --      2.3502                 3.6833                 1.5580
 Frc consts  --      0.4938                 0.8331                 0.6100
 IR Inten    --      3.7392                12.7762                22.9671

                     19                     20                     21
                      A                      A                      A
 Frequencies --    840.8104               917.5234               928.5060
 Red. masses --      2.5155                 3.0472                 1.2740
 Frc consts  --      1.0478                 1.5114                 0.6471
 IR Inten    --      0.7373                 2.6316                 1.9802

                     22                     23                     24
                      A                      A                      A
 Frequencies --    946.5920               955.9538               987.2912
 Red. masses --      1.4594                 1.5727                 2.0860
 Frc consts  --      0.7705                 0.8468                 1.1980
 IR Inten    --      7.3464                88.4819                 3.8715

                     25                     26                     27
                      A                      A                      A
 Frequencies --   1022.2072              1052.3527              1139.7754
 Red. masses --      1.4226                 1.4953                 2.1233
 Frc consts  --      0.8758                 0.9757                 1.6252
 IR Inten    --     22.5487                 3.6379                17.1988

                     28                     29                     30
                      A                      A                      A
 Frequencies --   1172.5467              1181.5329              1191.6903
 Red. masses --      1.7137                 2.0734                 2.1707
 Frc consts  --      1.3882                 1.7054                 1.8162
 IR Inten    --     11.2892               131.1734               164.2472

                     31                     32                     33
                      A                      A                      A
 Frequencies --   1290.6994              1319.2311              1341.3990
 Red. masses --      1.6963                 1.5225                 1.6432
 Frc consts  --      1.6649                 1.5611                 1.7420
 IR Inten    --     75.6072                15.3302                45.7000

                     34                     35                     36
                      A                      A                      A
 Frequencies --   1348.7590              1371.5434              1388.8341
 Red. masses --      1.4711                 1.2610                 1.5162
 Frc consts  --      1.5767                 1.3976                 1.7231
 IR Inten    --      6.6132                18.7199               120.2102

                     37                     38                     39
                      A                      A                      A
 Frequencies --   1399.6885              1420.8846              1466.4978
 Red. masses --      1.2566                 1.2445                 1.0619
 Frc consts  --      1.4504                 1.4803                 1.3456
 IR Inten    --      7.7781                15.6368                11.2200

                     40                     41                     42
                      A                      A                      A
 Frequencies --   1477.5972              1483.5658              1486.7383
 Red. masses --      1.0487                 1.0458                 1.0631
 Frc consts  --      1.3490                 1.3561                 1.3845
 IR Inten    --      5.3731                 1.0823                 1.1989

                     43                     44                     45
                      A                      A                      A
 Frequencies --   1490.0552              1506.0105              1519.4431
 Red. masses --      1.1887                 1.0574                 1.4586
 Frc consts  --      1.5550                 1.4131                 1.9840
 IR Inten    --      3.3838                11.7421                 5.2462

                     46                     47                     48
                      A                      A                      A
 Frequencies --   1659.8215              1758.4428              3029.2502
 Red. masses --      5.2975                 7.8303                 1.0369
 Frc consts  --      8.5990                14.2655                 5.6058
 IR Inten    --    864.1440               147.2017                14.4868

                     49                     50                     51
                      A                      A                      A
 Frequencies --   3030.3447              3032.5620              3045.4946
 Red. masses --      1.0373                 1.0432                 1.0781
 Frc consts  --      5.6124                 5.6526                 5.8915
 IR Inten    --      6.2235                17.4365                11.6691

                     52                     53                     54
                      A                      A                      A
 Frequencies --   3089.4350              3097.3575              3105.7194
 Red. masses --      1.0986                 1.0991                 1.0984
 Frc consts  --      6.1780                 6.2127                 6.2423
 IR Inten    --     14.3412                 3.0028                51.5162

                     55                     56                     57
                      A                      A                      A
 Frequencies --   3116.4759              3124.8131              3148.7796
 Red. masses --      1.1022                 1.1027                 1.1007
 Frc consts  --      6.3070                 6.3441                 6.4302
 IR Inten    --     21.5567                26.8531                14.3199

                     58                     59                     60
                      A                      A                      A
 Frequencies --   3161.1197              3165.2775              3592.9826
 Red. masses --      1.0911                 1.0862                 1.0749
 Frc consts  --      6.4238                 6.4121                 8.1755
 IR Inten    --     12.7493                 4.9354                23.9539

 - Thermochemistry -
 -------------------
 Temperature   298.150 Kelvin.  Pressure   1.00000 Atm.
 Atom     1 has atomic number  6 and mass  12.00000

 Molecular mass:   127.09971 amu.
 Principal axes and moments of inertia in atomic units:
                           1         2         3
     Eigenvalues --   412.045493135.650313222.94617
           X            0.99989   0.01232  -0.00814
           Y           -0.01189   0.99867   0.05012
           Z            0.00875  -0.05002   0.99871
 This molecule is an asymmetric top.
 Rotational symmetry number  1.
 Rotational temperatures (Kelvin)      0.21020     0.02762     0.02687
 Rotational constants (GHZ):           4.37996     0.57556     0.55997
 Zero-point vibrational energy     501771.6 (Joules/Mol)
                                  119.92628 (Kcal/Mol)
 Warning -- explicit consideration of  17 degrees of freedom as
           vibrations may cause significant error
 Vibrational temperatures:     42.12    72.18   139.01   142.67   213.83
          (Kelvin)            322.80   331.77   359.34   400.47   418.88
                              552.66   605.77   682.53   736.90   809.08
                              859.18   891.46  1172.92  1209.74  1320.11
                             1335.91  1361.93  1375.40  1420.49  1470.73
                             1514.10  1639.88  1687.03  1699.96  1714.58
                             1857.03  1898.08  1929.97  1940.56  1973.35
                             1998.22  2013.84  2044.34  2109.96  2125.93
                             2134.52  2139.08  2143.86  2166.81  2186.14
                             2388.11  2530.01  4358.42  4359.99  4363.18
                             4381.79  4445.01  4456.41  4468.44  4483.91
                             4495.91  4530.39  4548.15  4554.13  5169.50

 Zero-point correction=                           0.191115 (Hartree/Particle)
 Thermal correction to Energy=                    0.202373
 Thermal correction to Enthalpy=                  0.203317
 Thermal correction to Gibbs Free Energy=         0.153247
 Sum of electronic and zero-point Energies=           -404.386269
 Sum of electronic and thermal Energies=              -404.375011
 Sum of electronic and thermal Enthalpies=            -404.374067
 Sum of electronic and thermal Free Energies=         -404.424137

                     E (Thermal)             CV                S
                      KCal/Mol        Cal/Mol-Kelvin    Cal/Mol-Kelvin
 Total                  126.991             39.673            105.381
 Electronic               0.000              0.000              0.000
 Translational            0.889              2.981             40.433
 Rotational               0.889              2.981             29.811
 Vibrational            125.213             33.712             35.137
 Vibration     1          0.593              1.984              5.878
 Vibration     2          0.595              1.978              4.811
 Vibration     3          0.603              1.952              3.521
 Vibration     4          0.604              1.950              3.471
 Vibration     5          0.618              1.904              2.690
 Vibration     6          0.649              1.804              1.924
 Vibration     7          0.652              1.794              1.874
 Vibration     8          0.663              1.763              1.732
 Vibration     9          0.679              1.714              1.544
 Vibration    10          0.687              1.690              1.467
 Vibration    11          0.753              1.504              1.023
 Vibration    12          0.784              1.425              0.888
 Vibration    13          0.831              1.307              0.725
 Vibration    14          0.867              1.223              0.628
 Vibration    15          0.918              1.113              0.519
 Vibration    16          0.955              1.038              0.455
 Vibration    17          0.980              0.991              0.417

 Optimization completed on the basis of negligible forces.
    -- Stationary point found.
 Normal termination of Gaussian 16 at Sun Jul  3 15:14:01 2022.
