 Gaussian 16, Revision A.03,
 Gaussian 16:  ES64L-G16RevA.03 25-Dec-2016

 -----------------------------
 # opt freq b3lyp/6-31g(2df,p)
 -----------------------------

 -------------------
 Title Card Required
 -------------------
 Symbolic Z-matrix:
 Charge =  0 Multiplicity = 1

 SCF Done:  E(RB3LYP) =  -421.771966967     A.U. after   13 cycles
 SCF Done:  E(RB3LYP) =  -421.778803293     A.U. after   13 cycles
 SCF Done:  E(RB3LYP) =  -421.783634919     A.U. after   12 cycles
 SCF Done:  E(RB3LYP) =  -421.788508418     A.U. after   11 cycles
 SCF Done:  E(RB3LYP) =  -421.790682167     A.U. after   11 cycles
 SCF Done:  E(RB3LYP) =  -421.792929579     A.U. after   11 cycles
 SCF Done:  E(RB3LYP) =  -421.793580623     A.U. after   12 cycles
 SCF Done:  E(RB3LYP) =  -421.794497243     A.U. after   11 cycles
 SCF Done:  E(RB3LYP) =  -421.794791488     A.U. after   11 cycles
 SCF Done:  E(RB3LYP) =  -421.795005798     A.U. after   11 cycles
 SCF Done:  E(RB3LYP) =  -421.795106820     A.U. after   11 cycles
 SCF Done:  E(RB3LYP) =  -421.795213620     A.U. after   11 cycles
 SCF Done:  E(RB3LYP) =  -421.795245946     A.U. after   10 cycles
 SCF Done:  E(RB3LYP) =  -421.795271464     A.U. after    9 cycles
 SCF Done:  E(RB3LYP) =  -421.795273553     A.U. after    8 cycles
 SCF Done:  E(RB3LYP) =  -421.795274157     A.U. after    7 cycles
 SCF Done:  E(RB3LYP) =  -421.795274191     A.U. after    7 cycles
 SCF Done:  E(RB3LYP) =  -421.795274203     A.U. after    6 cycles
 Optimization completed.
    -- Stationary point found.
 Normal termination of Gaussian 16 at Sun Jul  3 23:51:30 2022.

 ----------------------------------------------------------------------
 #N Geom=AllCheck Guess=TCheck SCRF=Check GenChk RB3LYP/6-31G(2df,p) Fr
 eq
 ----------------------------------------------------------------------

 Structure from the checkpoint file:  "CCpNpCCpCdNpCO.chk"
 -------------------
 Title Card Required
 -------------------
 Charge =  0 Multiplicity = 1

                         Standard orientation:
 ---------------------------------------------------------------------
 Center     Atomic      Atomic             Coordinates (Angstroms)
 Number     Number       Type             X           Y           Z
 ---------------------------------------------------------------------
      1          6           0       -3.090778   -0.931159    0.269996
      2          6           0       -1.815426   -0.355913   -0.363724
      3          7           0       -1.871744    1.092129   -0.609039
      4          6           0       -0.578319   -0.705635    0.479121
      5          6           0        0.760261   -0.170650   -0.094636
      6          6           0        1.185757    1.117065    0.591228
      7          7           0        0.939402    2.310005    0.240935
      8          6           0        1.867283   -1.224606    0.044474
      9          8           0        3.132543   -0.764689   -0.394764
     10          1           0       -3.966644   -0.709529   -0.349310
     11          1           0       -3.261899   -0.495011    1.261400
     12          1           0       -3.030361   -2.019108    0.386542
     13          1           0       -1.682883   -0.825577   -1.349256
     14          1           0       -1.979050    1.588669    0.272648
     15          1           0       -2.694431    1.314497   -1.162573
     16          1           0       -0.530849   -1.798643    0.564212
     17          1           0       -0.718902   -0.332724    1.503017
     18          1           0        0.614641    0.045255   -1.161573
     19          1           0        1.758576    0.970090    1.516058
     20          1           0        0.374647    2.305241   -0.615526
     21          1           0        1.564492   -2.145666   -0.479423
     22          1           0        2.000449   -1.485835    1.101467
     23          1           0        3.045594   -0.483694   -1.311590
 ---------------------------------------------------------------------

 SCF Done:  E(RB3LYP) =  -421.795274203     A.U. after    1 cycles

 The electronic state is 1-A.
 Alpha  occ. eigenvalues --  -19.13740 -14.31717 -14.29808 -10.23023 -10.22157
 Alpha  occ. eigenvalues --  -10.21426 -10.19266 -10.19230 -10.18159  -1.01921
 Alpha  occ. eigenvalues --   -0.89715  -0.88323  -0.79242  -0.74118  -0.68003
 Alpha  occ. eigenvalues --   -0.63108  -0.58858  -0.57459  -0.51315  -0.49329
 Alpha  occ. eigenvalues --   -0.46796  -0.45636  -0.44150  -0.42536  -0.41132
 Alpha  occ. eigenvalues --   -0.41025  -0.39322  -0.37578  -0.36306  -0.36081
 Alpha  occ. eigenvalues --   -0.33815  -0.31899  -0.29635  -0.27264  -0.25059
 Alpha  occ. eigenvalues --   -0.23743
 Alpha virt. eigenvalues --    0.01172   0.06701   0.07758   0.10354   0.10909
 Alpha virt. eigenvalues --    0.12512   0.12911   0.13541   0.15315   0.16422
 Alpha virt. eigenvalues --    0.16740   0.17364   0.17678   0.18387   0.18806

 Mulliken charges:
               1
     1  C   -0.395486
     2  C    0.043442
     3  N   -0.506291
     4  C   -0.207742
     5  C   -0.057041
     6  C    0.068322
     7  N   -0.410264
     8  C   -0.078264
     9  O   -0.415259
    10  H    0.108287
    11  H    0.113369
    12  H    0.114225
    13  H    0.081639
    14  H    0.231250
    15  H    0.226379
    16  H    0.098349
    17  H    0.100658
    18  H    0.077821
    19  H    0.099074
    20  H    0.225715
    21  H    0.085934
    22  H    0.112327
    23  H    0.283555
 Sum of Mulliken charges =  -0.00000

 Dipole moment (field-independent basis, Debye):
    X=             -3.1779    Y=             -2.3307    Z=             -1.1796  Tot=              4.1137
 Quadrupole moment (field-independent basis, Debye-Ang):
   XX=            -58.9340   YY=            -63.6112   ZZ=            -52.2929
   XY=             -3.6803   XZ=             -2.2646   YZ=             -1.5408

  Exact polarizability:  90.605   0.643  87.192   2.908  -3.237  72.235
 Approx polarizability: 111.968  -1.140 129.944   5.333  -6.623 114.061

                      1                      2                      3
                      A                      A                      A
 Frequencies --     61.5530                71.9231                95.5273
 Red. masses --      3.1179                 2.9053                 3.3934
 Frc consts  --      0.0070                 0.0089                 0.0182
 IR Inten    --      1.8618                 1.2096                 0.9023

                      4                      5                      6
                      A                      A                      A
 Frequencies --    124.9989               170.2437               226.5969
 Red. masses --      2.9549                 2.4383                 2.9519
 Frc consts  --      0.0272                 0.0416                 0.0893
 IR Inten    --      2.0422                 3.7076                 6.8259

                      7                      8                      9
                      A                      A                      A
 Frequencies --    248.1003               273.8193               299.0497
 Red. masses --      1.0632                 2.2499                 1.5966
 Frc consts  --      0.0386                 0.0994                 0.0841
 IR Inten    --      0.6987                 9.8530                32.2977

                     10                     11                     12
                      A                      A                      A
 Frequencies --    301.4454               320.6111               365.9074
 Red. masses --      1.3435                 1.9421                 1.9537
 Frc consts  --      0.0719                 0.1176                 0.1541
 IR Inten    --     53.1415                42.3680                29.5004

                     13                     14                     15
                      A                      A                      A
 Frequencies --    438.4664               455.4407               524.1320
 Red. masses --      2.3294                 2.0962                 3.0063
 Frc consts  --      0.2639                 0.2562                 0.4866
 IR Inten    --      6.3742                 5.3136                 3.8915

                     16                     17                     18
                      A                      A                      A
 Frequencies --    549.5107               816.7717               828.3579
 Red. masses --      3.0654                 2.1193                 2.6218
 Frc consts  --      0.5454                 0.8330                 1.0599
 IR Inten    --     10.0620                 8.7580                27.2843

                     19                     20                     21
                      A                      A                      A
 Frequencies --    853.7936               902.9932               908.2578
 Red. masses --      2.0027                 1.4114                 1.5888
 Frc consts  --      0.8602                 0.6780                 0.7722
 IR Inten    --      4.8378                39.0200                61.2540

                     22                     23                     24
                      A                      A                      A
 Frequencies --    950.7325              1008.8509              1023.7189
 Red. masses --      1.6746                 1.6066                 2.5614
 Frc consts  --      0.8918                 0.9634                 1.5816
 IR Inten    --      1.0850                21.9849                52.4614

                     25                     26                     27
                      A                      A                      A
 Frequencies --   1055.6937              1068.5250              1101.0570
 Red. masses --      2.1899                 2.3673                 2.5449
 Frc consts  --      1.4380                 1.5924                 1.8178
 IR Inten    --      2.0068                26.7190                 6.4372

                     28                     29                     30
                      A                      A                      A
 Frequencies --   1110.0321              1147.7038              1171.5937
 Red. masses --      2.7941                 1.1206                 1.1871
 Frc consts  --      2.0285                 0.8697                 0.9600
 IR Inten    --     26.4352                38.6679                37.1297

                     31                     32                     33
                      A                      A                      A
 Frequencies --   1177.9855              1200.5241              1265.4406
 Red. masses --      1.4933                 1.7205                 1.3366
 Frc consts  --      1.2209                 1.4610                 1.2610
 IR Inten    --     38.6771                 4.6849                16.8422

                     34                     35                     36
                      A                      A                      A
 Frequencies --   1301.3010              1313.8069              1341.3132
 Red. masses --      1.2522                 1.3063                 1.2480
 Frc consts  --      1.2494                 1.3285                 1.3229
 IR Inten    --     29.8264                26.3709                10.0653

                     37                     38                     39
                      A                      A                      A
 Frequencies --   1361.2962              1379.5420              1384.3307
 Red. masses --      1.3668                 1.3501                 1.3572
 Frc consts  --      1.4923                 1.5139                 1.5324
 IR Inten    --     14.4073                 1.1494                 0.6162

                     40                     41                     42
                      A                      A                      A
 Frequencies --   1406.0912              1413.4143              1416.0096
 Red. masses --      1.2448                 1.2587                 1.2826
 Frc consts  --      1.4500                 1.4815                 1.5152
 IR Inten    --      2.9078                27.3866                25.3057

                     43                     44                     45
                      A                      A                      A
 Frequencies --   1440.9169              1481.8126              1494.0311
 Red. masses --      1.2320                 1.0798                 1.0494
 Frc consts  --      1.5071                 1.3970                 1.3801
 IR Inten    --     39.3092                 1.7922                 3.5055

                     46                     47                     48
                      A                      A                      A
 Frequencies --   1497.8672              1506.9327              1657.4634
 Red. masses --      1.0711                 1.0872                 1.0917
 Frc consts  --      1.4159                 1.4547                 1.7670
 IR Inten    --      4.0506                 0.7701                29.1881

                     49                     50                     51
                      A                      A                      A
 Frequencies --   1730.6135              2971.9738              2997.5359
 Red. masses --      8.5066                 1.0697                 1.0816
 Frc consts  --     15.0110                 5.5665                 5.7260
 IR Inten    --     52.5967                56.5340                13.3272

                     52                     53                     54
                      A                      A                      A
 Frequencies --   3010.7276              3017.4828              3021.3533
 Red. masses --      1.0634                 1.0763                 1.0391
 Frc consts  --      5.6794                 5.7741                 5.5887
 IR Inten    --      7.9172                 9.1947                37.2273

                     55                     56                     57
                      A                      A                      A
 Frequencies --   3046.9105              3049.7958              3058.7715
 Red. masses --      1.0872                 1.1011                 1.0931
 Frc consts  --      5.9466                 6.0341                 6.0254
 IR Inten    --     18.2128                25.1586                62.8863

                     58                     59                     60
                      A                      A                      A
 Frequencies --   3091.7106              3094.0817              3406.8709
 Red. masses --      1.1012                 1.1015                 1.0728
 Frc consts  --      6.2020                 6.2129                 7.3361
 IR Inten    --     39.9809                31.5479                 2.0913

                     61                     62                     63
                      A                      A                      A
 Frequencies --   3475.7842              3556.1952              3811.6704
 Red. masses --      1.0491                 1.0921                 1.0661
 Frc consts  --      7.4677                 8.1377                 9.1258
 IR Inten    --      0.1064                 0.4944                16.8725

 - Thermochemistry -
 -------------------
 Temperature   298.150 Kelvin.  Pressure   1.00000 Atm.
 Atom     1 has atomic number  6 and mass  12.00000

 Molecular mass:   130.11061 amu.
 Principal axes and moments of inertia in atomic units:
                           1         2         3
     Eigenvalues --   755.312641945.921082465.65302
           X            0.99999   0.00437  -0.00266
           Y           -0.00442   0.99983  -0.01796
           Z            0.00258   0.01798   0.99984
 This molecule is an asymmetric top.
 Rotational symmetry number  1.
 Warning -- assumption of classical behavior for rotation
           may cause significant error
 Rotational temperatures (Kelvin)      0.11467     0.04451     0.03513
 Rotational constants (GHZ):           2.38940     0.92745     0.73195
 Zero-point vibrational energy     537464.0 (Joules/Mol)
                                  128.45698 (Kcal/Mol)
 Warning -- explicit consideration of  16 degrees of freedom as
           vibrations may cause significant error
 Vibrational temperatures:     88.56   103.48   137.44   179.85   244.94
          (Kelvin)            326.02   356.96   393.96   430.27   433.71
                              461.29   526.46   630.86   655.28   754.11
                              790.62  1175.15  1191.82  1228.42  1299.21
                             1306.78  1367.89  1451.51  1472.90  1518.91
                             1537.37  1584.18  1597.09  1651.29  1685.66
                             1694.86  1727.29  1820.69  1872.28  1890.28
                             1929.85  1958.60  1984.85  1991.74  2023.05
                             2033.59  2037.32  2073.16  2132.00  2149.58
                             2155.10  2168.14  2384.72  2489.97  4276.01
                             4312.79  4331.77  4341.48  4347.05  4383.82
                             4387.98  4400.89  4448.28  4451.69  4901.73
                             5000.88  5116.57  5484.14

 Zero-point correction=                           0.204709 (Hartree/Particle)
 Thermal correction to Energy=                    0.215884
 Thermal correction to Enthalpy=                  0.216828
 Thermal correction to Gibbs Free Energy=         0.168010
 Sum of electronic and zero-point Energies=           -421.590565
 Sum of electronic and thermal Energies=              -421.579390
 Sum of electronic and thermal Enthalpies=            -421.578446
 Sum of electronic and thermal Free Energies=         -421.627264

                     E (Thermal)             CV                S
                      KCal/Mol        Cal/Mol-Kelvin    Cal/Mol-Kelvin
 Total                  135.469             40.256            102.747
 Electronic               0.000              0.000              0.000
 Translational            0.889              2.981             40.503
 Rotational               0.889              2.981             29.673
 Vibrational            133.692             34.294             32.572
 Vibration     1          0.597              1.973              4.407
 Vibration     2          0.598              1.967              4.100
 Vibration     3          0.603              1.952              3.544
 Vibration     4          0.610              1.928              3.022
 Vibration     5          0.625              1.879              2.433
 Vibration     6          0.650              1.800              1.906
 Vibration     7          0.662              1.766              1.744
 Vibration     8          0.676              1.722              1.572
 Vibration     9          0.692              1.675              1.422
 Vibration    10          0.693              1.671              1.409
 Vibration    11          0.706              1.634              1.307
 Vibration    12          0.739              1.542              1.097
 Vibration    13          0.799              1.386              0.831
 Vibration    14          0.814              1.349              0.779
 Vibration    15          0.879              1.197              0.600
 Vibration    16          0.905              1.141              0.545

 Optimization completed.
    -- Stationary point found.
 Normal termination of Gaussian 16 at Mon Jul  4 00:33:03 2022.
