 Gaussian 16, Revision A.03,
 Gaussian 16:  ES64L-G16RevA.03 25-Dec-2016

 -----------------------------
 # opt freq b3lyp/6-31g(2df,p)
 -----------------------------

 -------------------
 Title Card Required
 -------------------
 Symbolic Z-matrix:
 Charge =  0 Multiplicity = 1

 SCF Done:  E(RB3LYP) =  -440.406702371     A.U. after   14 cycles
 SCF Done:  E(RB3LYP) =  -440.416833751     A.U. after   12 cycles
 SCF Done:  E(RB3LYP) =  -440.418671690     A.U. after   11 cycles
 SCF Done:  E(RB3LYP) =  -440.419223395     A.U. after   11 cycles
 SCF Done:  E(RB3LYP) =  -440.420517513     A.U. after   12 cycles
 SCF Done:  E(RB3LYP) =  -440.422059148     A.U. after   12 cycles
 SCF Done:  E(RB3LYP) =  -440.423519290     A.U. after   12 cycles
 SCF Done:  E(RB3LYP) =  -440.424226601     A.U. after   11 cycles
 SCF Done:  E(RB3LYP) =  -440.424434207     A.U. after   11 cycles
 SCF Done:  E(RB3LYP) =  -440.424552648     A.U. after   11 cycles
 SCF Done:  E(RB3LYP) =  -440.424566100     A.U. after    9 cycles
 SCF Done:  E(RB3LYP) =  -440.424574954     A.U. after   10 cycles
 SCF Done:  E(RB3LYP) =  -440.424577132     A.U. after    9 cycles
 SCF Done:  E(RB3LYP) =  -440.424579660     A.U. after    9 cycles
 SCF Done:  E(RB3LYP) =  -440.424579753     A.U. after    7 cycles
 SCF Done:  E(RB3LYP) =  -440.424579789     A.U. after    7 cycles
 Optimization completed.
    -- Stationary point found.
 Normal termination of Gaussian 16 at Sun Jul  3 11:40:07 2022.

 ----------------------------------------------------------------------
 #N Geom=AllCheck Guess=TCheck SCRF=Check GenChk RB3LYP/6-31G(2df,p) Fr
 eq
 ----------------------------------------------------------------------

 Structure from the checkpoint file:  "CCpOpCpdNpCC1CO1.chk"
 -------------------
 Title Card Required
 -------------------
 Charge =  0 Multiplicity = 1

                         Standard orientation:
 ---------------------------------------------------------------------
 Center     Atomic      Atomic             Coordinates (Angstroms)
 Number     Number       Type             X           Y           Z
 ---------------------------------------------------------------------
      1          6           0       -3.067409    0.681597    0.306890
      2          6           0       -1.878836   -0.269732    0.402506
      3          8           0       -2.119668   -1.484257   -0.311936
      4          6           0       -0.535822    0.330219   -0.039198
      5          7           0       -0.364261    1.477689   -0.561959
      6          6           0        0.654200   -0.582276    0.166404
      7          6           0        1.943766   -0.055345   -0.412164
      8          6           0        2.941470    0.636708    0.406124
      9          8           0        3.133751   -0.725939    0.014181
     10          1           0       -3.971354    0.160715    0.630882
     11          1           0       -3.226592    1.022791   -0.723236
     12          1           0       -2.930415    1.562769    0.941351
     13          1           0       -1.767773   -0.593662    1.445334
     14          1           0       -2.244604   -1.255607   -1.240372
     15          1           0       -1.246501    1.988989   -0.636994
     16          1           0        0.416200   -1.562339   -0.264437
     17          1           0        0.783311   -0.763824    1.242203
     18          1           0        1.915873    0.178590   -1.475326
     19          1           0        2.749745    0.794544    1.467087
     20          1           0        3.615058    1.357755   -0.054104
 ---------------------------------------------------------------------

 SCF Done:  E(RB3LYP) =  -440.424579789     A.U. after    1 cycles

 The electronic state is 1-A.
 Alpha  occ. eigenvalues --  -19.15282 -19.14047 -14.31863 -10.25060 -10.23736
 Alpha  occ. eigenvalues --  -10.23059 -10.22418 -10.19364 -10.18985  -1.06024
 Alpha  occ. eigenvalues --   -1.03415  -0.91067  -0.76485  -0.75804  -0.66741
 Alpha  occ. eigenvalues --   -0.64843  -0.59737  -0.55617  -0.52298  -0.49973
 Alpha  occ. eigenvalues --   -0.47800  -0.47268  -0.44685  -0.41891  -0.41647
 Alpha  occ. eigenvalues --   -0.40065  -0.38664  -0.36362  -0.36175  -0.35203
 Alpha  occ. eigenvalues --   -0.31575  -0.30291  -0.28945  -0.26579  -0.24869
 Alpha virt. eigenvalues --   -0.00850   0.06757   0.09291   0.10950   0.11404
 Alpha virt. eigenvalues --    0.11882   0.13592   0.13978   0.15032   0.15378
 Alpha virt. eigenvalues --    0.15773   0.17422   0.18055   0.19366   0.21787

 Mulliken charges:
               1
     1  C   -0.432109
     2  C    0.082120
     3  O   -0.422808
     4  C    0.265246
     5  N   -0.463764
     6  C   -0.290656
     7  C    0.112320
     8  C   -0.166307
     9  O   -0.248656
    10  H    0.134864
    11  H    0.117066
    12  H    0.129540
    13  H    0.102685
    14  H    0.284628
    15  H    0.217440
    16  H    0.137768
    17  H    0.119819
    18  H    0.099522
    19  H    0.106319
    20  H    0.114963
 Sum of Mulliken charges =  -0.00000

 Dipole moment (field-independent basis, Debye):
    X=             -2.8910    Y=              1.3360    Z=              0.1119  Tot=              3.1868
 Quadrupole moment (field-independent basis, Debye-Ang):
   XX=            -56.1400   YY=            -58.7285   ZZ=            -49.8612
   XY=              0.8738   XZ=              2.2912   YZ=              2.1352

  Exact polarizability:  89.129   1.859  74.159   1.645  -2.158  65.018
 Approx polarizability: 106.428   2.899 121.517   3.413  -6.664 101.917

                      1                      2                      3
                      A                      A                      A
 Frequencies --     36.7108                50.3066                77.2496
 Red. masses --      2.9247                 3.8011                 3.7288
 Frc consts  --      0.0023                 0.0057                 0.0131
 IR Inten    --      0.3085                 0.3059                 3.9932

                      4                      5                      6
                      A                      A                      A
 Frequencies --    144.4600               233.9993               266.0341
 Red. masses --      4.7031                 4.2039                 1.0745
 Frc consts  --      0.0578                 0.1356                 0.0448
 IR Inten    --      1.3537                 2.3851                 0.5732

                      7                      8                      9
                      A                      A                      A
 Frequencies --    314.1443               315.7703               351.2313
 Red. masses --      1.9851                 2.6647                 1.4868
 Frc consts  --      0.1154                 0.1565                 0.1081
 IR Inten    --     30.4414                20.5879                60.1155

                     10                     11                     12
                      A                      A                      A
 Frequencies --    377.7025               404.8520               478.1446
 Red. masses --      3.6612                 2.5246                 2.9826
 Frc consts  --      0.3077                 0.2438                 0.4018
 IR Inten    --      2.8824                13.2003                18.1210

                     13                     14                     15
                      A                      A                      A
 Frequencies --    550.1537               620.5499               793.2687
 Red. masses --      2.9586                 2.2038                 3.7401
 Frc consts  --      0.5276                 0.5000                 1.3867
 IR Inten    --      5.4378                19.9706                22.1572

                     16                     17                     18
                      A                      A                      A
 Frequencies --    844.2032               870.7972               879.2652
 Red. masses --      3.4779                 2.2372                 2.1931
 Frc consts  --      1.4604                 0.9995                 0.9990
 IR Inten    --     27.9413                11.0402                10.5080

                     19                     20                     21
                      A                      A                      A
 Frequencies --    903.8471               936.6048               987.2925
 Red. masses --      2.4363                 1.2369                 2.4889
 Frc consts  --      1.1727                 0.6393                 1.4294
 IR Inten    --      6.0336                32.0657                44.1937

                     22                     23                     24
                      A                      A                      A
 Frequencies --   1026.5201              1042.4752              1086.2144
 Red. masses --      1.7506                 1.5201                 1.3950
 Frc consts  --      1.0868                 0.9733                 0.9697
 IR Inten    --      2.7498                17.5003                 7.0909

                     25                     26                     27
                      A                      A                      A
 Frequencies --   1105.1494              1124.1515              1130.9807
 Red. masses --      1.7143                 2.3033                 1.9760
 Frc consts  --      1.2336                 1.7149                 1.4892
 IR Inten    --     68.5550                 8.9382                 7.1508

                     28                     29                     30
                      A                      A                      A
 Frequencies --   1154.1567              1172.6175              1223.9830
 Red. masses --      1.3518                 1.4356                 1.2898
 Frc consts  --      1.0609                 1.1630                 1.1385
 IR Inten    --      1.8301                 3.0658                15.3253

                     31                     32                     33
                      A                      A                      A
 Frequencies --   1266.5637              1285.7042              1298.6567
 Red. masses --      1.3326                 1.3973                 1.4768
 Frc consts  --      1.2595                 1.3609                 1.4675
 IR Inten    --     33.1922                24.4616                 7.5472

                     34                     35                     36
                      A                      A                      A
 Frequencies --   1346.5298              1397.7361              1409.9103
 Red. masses --      1.4327                 1.3228                 1.8502
 Frc consts  --      1.5305                 1.5227                 2.1669
 IR Inten    --      8.8235                11.7410                18.4217

                     37                     38                     39
                      A                      A                      A
 Frequencies --   1415.7936              1445.4810              1470.0462
 Red. masses --      1.2060                 1.4793                 1.2389
 Frc consts  --      1.4243                 1.8211                 1.5774
 IR Inten    --     41.6113                24.2617                11.7091

                     40                     41                     42
                      A                      A                      A
 Frequencies --   1493.7439              1496.0557              1533.1172
 Red. masses --      1.0503                 1.0500                 1.4067
 Frc consts  --      1.3808                 1.3846                 1.9480
 IR Inten    --      8.6662                 2.5016                 6.4106

                     43                     44                     45
                      A                      A                      A
 Frequencies --   1723.9575              3023.7826              3028.8391
 Red. masses --      8.9641                 1.0684                 1.0516
 Frc consts  --     15.6968                 5.7557                 5.6841
 IR Inten    --     41.1117                 2.1976                 3.2309

                     46                     47                     48
                      A                      A                      A
 Frequencies --   3034.3514              3063.7708              3081.4516
 Red. masses --      1.0662                 1.0938                 1.0506
 Frc consts  --      5.7840                 6.0493                 5.8775
 IR Inten    --     27.7013                 4.5242                27.0129

                     49                     50                     51
                      A                      A                      A
 Frequencies --   3099.9913              3124.3541              3127.0873
 Red. masses --      1.0980                 1.0889                 1.1007
 Frc consts  --      6.2168                 6.2625                 6.3416
 IR Inten    --     23.3762                14.5964                13.2694

                     52                     53                     54
                      A                      A                      A
 Frequencies --   3168.0193              3443.5360              3792.6497
 Red. masses --      1.1188                 1.0733                 1.0662
 Frc consts  --      6.6158                 7.4987                 9.0357
 IR Inten    --     30.9716                 1.7654                18.2112

 - Thermochemistry -
 -------------------
 Temperature   298.150 Kelvin.  Pressure   1.00000 Atm.
 Atom     1 has atomic number  6 and mass  12.00000

 Molecular mass:   129.07898 amu.
 Principal axes and moments of inertia in atomic units:
                           1         2         3
     Eigenvalues --   468.665922281.745472569.82782
           X            1.00000  -0.00208  -0.00016
           Y            0.00208   0.99997   0.00729
           Z            0.00015  -0.00729   0.99997
 This molecule is an asymmetric top.
 Rotational symmetry number  1.
 Warning -- assumption of classical behavior for rotation
           may cause significant error
 Rotational temperatures (Kelvin)      0.18481     0.03796     0.03370
 Rotational constants (GHZ):           3.85081     0.79095     0.70228
 Zero-point vibrational energy     443060.7 (Joules/Mol)
                                  105.89405 (Kcal/Mol)
 Warning -- explicit consideration of  14 degrees of freedom as
           vibrations may cause significant error
 Vibrational temperatures:     52.82    72.38   111.14   207.85   336.67
          (Kelvin)            382.76   451.98   454.32   505.34   543.43
                              582.49   687.94   791.55   892.83  1141.34
                             1214.62  1252.88  1265.07  1300.43  1347.57
                             1420.49  1476.93  1499.89  1562.82  1590.06
                             1617.40  1627.23  1660.57  1687.14  1761.04
                             1822.30  1849.84  1868.48  1937.36  2011.03
                             2028.55  2037.01  2079.72  2115.07  2149.16
                             2152.49  2205.81  2480.39  4350.55  4357.82
                             4365.75  4408.08  4433.52  4460.20  4495.25
                             4499.18  4558.07  4954.48  5456.78

 Zero-point correction=                           0.168753 (Hartree/Particle)
 Thermal correction to Energy=                    0.178781
 Thermal correction to Enthalpy=                  0.179725
 Thermal correction to Gibbs Free Energy=         0.132401
 Sum of electronic and zero-point Energies=           -440.255827
 Sum of electronic and thermal Energies=              -440.245799
 Sum of electronic and thermal Enthalpies=            -440.244855
 Sum of electronic and thermal Free Energies=         -440.292179

                     E (Thermal)             CV                S
                      KCal/Mol        Cal/Mol-Kelvin    Cal/Mol-Kelvin
 Total                  112.187             35.983             99.602
 Electronic               0.000              0.000              0.000
 Translational            0.889              2.981             40.479
 Rotational               0.889              2.981             29.398
 Vibrational            110.409             30.021             29.725
 Vibration     1          0.594              1.982              5.429
 Vibration     2          0.595              1.977              4.805
 Vibration     3          0.599              1.964              3.960
 Vibration     4          0.616              1.909              2.744
 Vibration     5          0.654              1.789              1.848
 Vibration     6          0.672              1.735              1.622
 Vibration     7          0.702              1.647              1.340
 Vibration     8          0.703              1.644              1.332
 Vibration     9          0.728              1.573              1.161
 Vibration    10          0.748              1.518              1.048
 Vibration    11          0.770              1.460              0.945
 Vibration    12          0.835              1.299              0.715
 Vibration    13          0.905              1.139              0.544
 Vibration    14          0.981              0.989              0.416

 Optimization completed.
    -- Stationary point found.
 Normal termination of Gaussian 16 at Sun Jul  3 12:08:19 2022.
