 Gaussian 16, Revision A.03,
 Gaussian 16:  ES64L-G16RevA.03 25-Dec-2016

 -----------------------------
 # opt freq b3lyp/6-31g(2df,p)
 -----------------------------

 -------------------
 Title Card Required
 -------------------
 Symbolic Z-matrix:
 Charge =  0 Multiplicity = 1

 SCF Done:  E(RB3LYP) =  -477.553580502     A.U. after   13 cycles
 SCF Done:  E(RB3LYP) =  -477.559502241     A.U. after   12 cycles
 SCF Done:  E(RB3LYP) =  -477.561175315     A.U. after   12 cycles
 SCF Done:  E(RB3LYP) =  -477.563710134     A.U. after   12 cycles
 SCF Done:  E(RB3LYP) =  -477.565777683     A.U. after   12 cycles
 SCF Done:  E(RB3LYP) =  -477.567951942     A.U. after   12 cycles
 SCF Done:  E(RB3LYP) =  -477.569637127     A.U. after   12 cycles
 SCF Done:  E(RB3LYP) =  -477.571806569     A.U. after   12 cycles
 SCF Done:  E(RB3LYP) =  -477.573548595     A.U. after   11 cycles
 SCF Done:  E(RB3LYP) =  -477.574178034     A.U. after   11 cycles
 SCF Done:  E(RB3LYP) =  -477.575454405     A.U. after   12 cycles
 SCF Done:  E(RB3LYP) =  -477.574452774     A.U. after   14 cycles
 SCF Done:  E(RB3LYP) =  -477.576141699     A.U. after   12 cycles
 SCF Done:  E(RB3LYP) =  -477.576214847     A.U. after   11 cycles
 SCF Done:  E(RB3LYP) =  -477.576374017     A.U. after   10 cycles
 SCF Done:  E(RB3LYP) =  -477.576413826     A.U. after   10 cycles
 SCF Done:  E(RB3LYP) =  -477.576420857     A.U. after    9 cycles
 SCF Done:  E(RB3LYP) =  -477.576423836     A.U. after    8 cycles
 SCF Done:  E(RB3LYP) =  -477.576424132     A.U. after    7 cycles
 Optimization completed.
    -- Stationary point found.
 Normal termination of Gaussian 16 at Sun Jul  3 23:31:14 2022.

 ----------------------------------------------------------------------
 #N Geom=AllCheck Guess=TCheck SCRF=Check GenChk RB3LYP/6-31G(2df,p) Fr
 eq
 ----------------------------------------------------------------------

 Structure from the checkpoint file:  "CCpOpCpOpCpOpCdN.chk"
 -------------------
 Title Card Required
 -------------------
 Charge =  0 Multiplicity = 1

                         Standard orientation:
 ---------------------------------------------------------------------
 Center     Atomic      Atomic             Coordinates (Angstroms)
 Number     Number       Type             X           Y           Z
 ---------------------------------------------------------------------
      1          6           0       -2.829693    0.476264   -0.371589
      2          6           0       -1.606651   -0.176947    0.261062
      3          8           0       -1.583416   -1.589302   -0.006129
      4          6           0       -0.286561    0.506221   -0.167214
      5          8           0       -0.348649    1.897596    0.119376
      6          6           0        0.974120   -0.122626    0.482733
      7          8           0        1.121506   -1.491433    0.206329
      8          6           0        2.229228    0.596467    0.015458
      9          7           0        3.222361    0.052216   -0.549563
     10          1           0       -3.744295   -0.002530   -0.012328
     11          1           0       -2.793429    0.380428   -1.464427
     12          1           0       -2.861729    1.541571   -0.136902
     13          1           0       -1.679135   -0.112801    1.355781
     14          1           0       -1.729285   -1.713059   -0.951686
     15          1           0       -0.187119    0.434437   -1.258304
     16          1           0       -0.354184    2.004596    1.078218
     17          1           0        0.883190    0.055356    1.576090
     18          1           0        0.235167   -1.885188    0.225457
     19          1           0        2.238949    1.673977    0.193919
     20          1           0        3.037152   -0.953459   -0.638186
 ---------------------------------------------------------------------

 SCF Done:  E(RB3LYP) =  -477.576424132     A.U. after    1 cycles

 The electronic state is 1-A.
 Alpha  occ. eigenvalues --  -19.17410 -19.16102 -19.13575 -14.30218 -10.25723
 Alpha  occ. eigenvalues --  -10.25003 -10.24331 -10.21482 -10.19380  -1.05807
 Alpha  occ. eigenvalues --   -1.04056  -1.02243  -0.88590  -0.78643  -0.73801
 Alpha  occ. eigenvalues --   -0.67092  -0.62949  -0.57400  -0.53744  -0.52077
 Alpha  occ. eigenvalues --   -0.50729  -0.47035  -0.46801  -0.45201  -0.42340
 Alpha  occ. eigenvalues --   -0.40135  -0.39652  -0.38947  -0.38654  -0.36783
 Alpha  occ. eigenvalues --   -0.32961  -0.32841  -0.30635  -0.28972  -0.26410
 Alpha  occ. eigenvalues --   -0.24630
 Alpha virt. eigenvalues --    0.00718   0.04545   0.06143   0.08946   0.11709
 Alpha virt. eigenvalues --    0.13054   0.14409   0.14918   0.15434   0.15819
 Alpha virt. eigenvalues --    0.16757   0.19312   0.20067   0.21116   0.22626

 Mulliken charges:
               1
     1  C   -0.406707
     2  C    0.096295
     3  O   -0.431626
     4  C    0.058470
     5  O   -0.418397
     6  C    0.043456
     7  O   -0.447134
     8  C    0.051095
     9  N   -0.402648
    10  H    0.128357
    11  H    0.114544
    12  H    0.142403
    13  H    0.090654
    14  H    0.292586
    15  H    0.098239
    16  H    0.286604
    17  H    0.061192
    18  H    0.295283
    19  H    0.109996
    20  H    0.237338
 Sum of Mulliken charges =  -0.00000

 Dipole moment (field-independent basis, Debye):
    X=             -4.5210    Y=              0.0610    Z=              0.7955  Tot=              4.5909
 Quadrupole moment (field-independent basis, Debye-Ang):
   XX=            -65.0823   YY=            -56.1227   ZZ=            -50.1872
   XY=             -0.2017   XZ=              4.1870   YZ=              6.4030

  Exact polarizability:  87.244  -2.693  70.401  -3.609   4.786  60.857
 Approx polarizability: 110.205  -6.430 106.347  -9.382   9.268  97.478

                      1                      2                      3
                      A                      A                      A
 Frequencies --     58.5861                77.0435               118.1083
 Red. masses --      5.5436                 3.7968                 3.2386
 Frc consts  --      0.0112                 0.0133                 0.0266
 IR Inten    --      1.9618                 0.4249                 0.2661

                      4                      5                      6
                      A                      A                      A
 Frequencies --    195.9552               223.5598               272.1797
 Red. masses --      3.6032                 1.0809                 3.6060
 Frc consts  --      0.0815                 0.0318                 0.1574
 IR Inten    --      2.3708                 1.2063                 0.9189

                      7                      8                      9
                      A                      A                      A
 Frequencies --    296.3503               308.0535               332.3248
 Red. masses --      1.2041                 1.7020                 1.4376
 Frc consts  --      0.0623                 0.0952                 0.0935
 IR Inten    --     18.2614                51.6517               180.5407

                     10                     11                     12
                      A                      A                      A
 Frequencies --    344.3446               354.4416               389.8923
 Red. masses --      4.3697                 3.0750                 7.3872
 Frc consts  --      0.3053                 0.2276                 0.6616
 IR Inten    --      2.9210                15.7504                 0.3292

                     13                     14                     15
                      A                      A                      A
 Frequencies --    461.9385               499.2534               534.6362
 Red. masses --      2.7720                 2.5926                 4.5823
 Frc consts  --      0.3485                 0.3807                 0.7717
 IR Inten    --     58.8643                 2.7416                 2.7081

                     16                     17                     18
                      A                      A                      A
 Frequencies --    638.3204               715.1482               782.1146
 Red. masses --      1.2118                 2.5732                 2.1219
 Frc consts  --      0.2909                 0.7754                 0.7648
 IR Inten    --     69.0834                21.6406                 9.4961

                     19                     20                     21
                      A                      A                      A
 Frequencies --    862.3164               927.7541               940.2618
 Red. masses --      2.7337                 2.4341                 1.9566
 Frc consts  --      1.1976                 1.2344                 1.0192
 IR Inten    --      1.5336                 7.2371                10.3403

                     22                     23                     24
                      A                      A                      A
 Frequencies --   1040.5875              1051.3069              1076.9565
 Red. masses --      2.7972                 1.7513                 4.0271
 Frc consts  --      1.7846                 1.1404                 2.7520
 IR Inten    --     16.0960                 4.0067               167.9393

                     25                     26                     27
                      A                      A                      A
 Frequencies --   1116.5537              1134.7899              1160.8154
 Red. masses --      3.3064                 2.4115                 1.8479
 Frc consts  --      2.4286                 1.8297                 1.4671
 IR Inten    --      1.7152                 0.7591                33.6627

                     28                     29                     30
                      A                      A                      A
 Frequencies --   1165.0451              1214.6304              1229.4202
 Red. masses --      1.2553                 1.2356                 1.3035
 Frc consts  --      1.0039                 1.0740                 1.1608
 IR Inten    --     49.7886                21.3290                39.7490

                     31                     32                     33
                      A                      A                      A
 Frequencies --   1254.9536              1307.1662              1315.7675
 Red. masses --      1.2566                 1.4188                 1.2355
 Frc consts  --      1.1660                 1.4284                 1.2602
 IR Inten    --     36.1858                 3.3660                78.4830

                     34                     35                     36
                      A                      A                      A
 Frequencies --   1365.0574              1388.0663              1396.6280
 Red. masses --      1.3196                 1.4085                 1.2159
 Frc consts  --      1.4488                 1.5989                 1.3974
 IR Inten    --     14.9121                 4.1664                 8.2346

                     37                     38                     39
                      A                      A                      A
 Frequencies --   1407.5130              1416.1817              1429.4730
 Red. masses --      1.2530                 1.2358                 1.2404
 Frc consts  --      1.4625                 1.4603                 1.4934
 IR Inten    --     10.8507                85.6531                56.0714

                     40                     41                     42
                      A                      A                      A
 Frequencies --   1454.9690              1489.1226              1496.1537
 Red. masses --      1.3996                 1.0536                 1.0554
 Frc consts  --      1.7457                 1.3766                 1.3919
 IR Inten    --     53.3913                11.2018                 3.9059

                     43                     44                     45
                      A                      A                      A
 Frequencies --   1733.0358              2868.7785              3014.4508
 Red. masses --      8.6074                 1.0786                 1.0820
 Frc consts  --     15.2313                 5.2299                 5.7928
 IR Inten    --     44.7472                58.6900                 5.8188

                     46                     47                     48
                      A                      A                      A
 Frequencies --   3028.8511              3039.7189              3105.9720
 Red. masses --      1.0497                 1.0807                 1.0932
 Frc consts  --      5.6736                 5.8832                 6.2139
 IR Inten    --      6.6455                50.0835                23.6140

                     49                     50                     51
                      A                      A                      A
 Frequencies --   3111.4151              3144.7060              3409.8236
 Red. masses --      1.0886                 1.1008                 1.0714
 Frc consts  --      6.2093                 6.4140                 7.3394
 IR Inten    --     24.2047                 8.1290                 2.7477

                     52                     53                     54
                      A                      A                      A
 Frequencies --   3668.7335              3784.8919              3793.1402
 Red. masses --      1.0662                 1.0658                 1.0659
 Frc consts  --      8.4552                 8.9954                 9.0355
 IR Inten    --    299.9290                20.3853                21.1834

 - Thermochemistry -
 -------------------
 Temperature   298.150 Kelvin.  Pressure   1.00000 Atm.
 Atom     1 has atomic number  6 and mass  12.00000

 Molecular mass:   133.07389 amu.
 Principal axes and moments of inertia in atomic units:
                           1         2         3
     Eigenvalues --   652.455871711.114862210.91157
           X            0.99992  -0.00936   0.00828
           Y            0.00918   0.99975   0.02053
           Z           -0.00847  -0.02045   0.99975
 This molecule is an asymmetric top.
 Rotational symmetry number  1.
 Warning -- assumption of classical behavior for rotation
           may cause significant error
 Rotational temperatures (Kelvin)      0.13275     0.05062     0.03918
 Rotational constants (GHZ):           2.76607     1.05472     0.81629
 Zero-point vibrational energy     442302.8 (Joules/Mol)
                                  105.71291 (Kcal/Mol)
 Warning -- explicit consideration of  15 degrees of freedom as
           vibrations may cause significant error
 Vibrational temperatures:     84.29   110.85   169.93   281.94   321.65
          (Kelvin)            391.61   426.38   443.22   478.14   495.44
                              509.96   560.97   664.63   718.31   769.22
                              918.40  1028.94  1125.29  1240.68  1334.83
                             1352.83  1497.17  1512.60  1549.50  1606.47
                             1632.71  1670.15  1676.24  1747.58  1768.86
                             1805.60  1880.72  1893.10  1964.01  1997.12
                             2009.44  2025.10  2037.57  2056.69  2093.38
                             2142.52  2152.63  2493.45  4127.53  4337.12
                             4357.84  4373.48  4468.80  4476.63  4524.53
                             4905.98  5278.49  5445.62  5457.48

 Zero-point correction=                           0.168464 (Hartree/Particle)
 Thermal correction to Energy=                    0.178868
 Thermal correction to Enthalpy=                  0.179812
 Thermal correction to Gibbs Free Energy=         0.132970
 Sum of electronic and zero-point Energies=           -477.407960
 Sum of electronic and thermal Energies=              -477.397556
 Sum of electronic and thermal Enthalpies=            -477.396612
 Sum of electronic and thermal Free Energies=         -477.443455

                     E (Thermal)             CV                S
                      KCal/Mol        Cal/Mol-Kelvin    Cal/Mol-Kelvin
 Total                  112.241             38.148             98.589
 Electronic               0.000              0.000              0.000
 Translational            0.889              2.981             40.570
 Rotational               0.889              2.981             29.291
 Vibrational            110.464             32.186             28.728
 Vibration     1          0.596              1.974              4.504
 Vibration     2          0.599              1.964              3.965
 Vibration     3          0.608              1.934              3.131
 Vibration     4          0.636              1.846              2.171
 Vibration     5          0.649              1.805              1.930
 Vibration     6          0.675              1.725              1.582
 Vibration     7          0.690              1.681              1.437
 Vibration     8          0.698              1.658              1.373
 Vibration     9          0.714              1.611              1.249
 Vibration    10          0.723              1.587              1.192
 Vibration    11          0.730              1.566              1.146
 Vibration    12          0.758              1.492              1.001
 Vibration    13          0.820              1.334              0.760
 Vibration    14          0.855              1.252              0.660
 Vibration    15          0.890              1.173              0.577

                           ! Non-Optimized Parameters !
 Normal termination of Gaussian 16 at Mon Jul  4 00:06:12 2022.
