 Gaussian 16, Revision A.03,
 Gaussian 16:  ES64L-G16RevA.03 25-Dec-2016

 -----------------------------
 # opt freq b3lyp/6-31g(2df,p)
 -----------------------------

 -------------------
 Title Card Required
 -------------------
 Symbolic Z-matrix:
 Charge =  0 Multiplicity = 1

 SCF Done:  E(RB3LYP) =  -438.199289304     A.U. after   14 cycles
 SCF Done:  E(RB3LYP) =  -438.206061354     A.U. after   13 cycles
 SCF Done:  E(RB3LYP) =  -438.208064100     A.U. after   12 cycles
 SCF Done:  E(RB3LYP) =  -438.205341579     A.U. after   15 cycles
 SCF Done:  E(RB3LYP) =  -438.208840302     A.U. after   13 cycles
 SCF Done:  E(RB3LYP) =  -438.209105312     A.U. after   12 cycles
 SCF Done:  E(RB3LYP) =  -438.209350418     A.U. after   12 cycles
 SCF Done:  E(RB3LYP) =  -438.209414873     A.U. after   13 cycles
 SCF Done:  E(RB3LYP) =  -438.209476855     A.U. after   11 cycles
 SCF Done:  E(RB3LYP) =  -438.209491364     A.U. after   11 cycles
 SCF Done:  E(RB3LYP) =  -438.209492515     A.U. after   10 cycles
 SCF Done:  E(RB3LYP) =  -438.209494254     A.U. after    9 cycles
 SCF Done:  E(RB3LYP) =  -438.209495442     A.U. after    9 cycles
 SCF Done:  E(RB3LYP) =  -438.209495951     A.U. after    8 cycles
 SCF Done:  E(RB3LYP) =  -438.209495986     A.U. after    7 cycles
 Optimization completed.
    -- Stationary point found.
 Normal termination of Gaussian 16 at Sun Jul  3 10:51:20 2022.

 ----------------------------------------------------------------------
 #N Geom=AllCheck Guess=TCheck SCRF=Check GenChk RB3LYP/6-31G(2df,p) Fr
 eq
 ----------------------------------------------------------------------

 Structure from the checkpoint file:  "CCpOpCpCdOpON.chk"
 -------------------
 Title Card Required
 -------------------
 Charge =  0 Multiplicity = 1

                         Standard orientation:
 ---------------------------------------------------------------------
 Center     Atomic      Atomic             Coordinates (Angstroms)
 Number     Number       Type             X           Y           Z
 ---------------------------------------------------------------------
      1          6           0        2.238144    0.557576    0.127979
      2          6           0        1.152271   -0.410595   -0.340004
      3          8           0        1.464671   -1.748955    0.009070
      4          6           0       -0.251355   -0.025155    0.189586
      5          6           0       -0.692047    1.348846   -0.306647
      6          8           0       -0.370819    2.395138    0.192328
      7          8           0       -1.151437   -1.011361   -0.276704
      8          7           0       -2.457936   -0.714500    0.259615
      9          1           0        3.202003    0.232050   -0.271082
     10          1           0        2.303881    0.563776    1.222799
     11          1           0        2.045481    1.583201   -0.192777
     12          1           0        1.103947   -0.418839   -1.435444
     13          1           0        1.592961   -1.782224    0.963916
     14          1           0       -0.224437    0.000107    1.290234
     15          1           0       -1.333009    1.296588   -1.215324
     16          1           0       -2.629892   -1.470892    0.924822
     17          1           0       -3.076784   -0.904866   -0.527483
 ---------------------------------------------------------------------

 SCF Done:  E(RB3LYP) =  -438.209495986     A.U. after    1 cycles

 The electronic state is 1-A.
 Alpha  occ. eigenvalues --  -19.17567 -19.14324 -19.14063 -14.37716 -10.27083
 Alpha  occ. eigenvalues --  -10.24598 -10.23993 -10.18041  -1.07562  -1.04878
 Alpha  occ. eigenvalues --   -1.02373  -0.84127  -0.76440  -0.69279  -0.62741
 Alpha  occ. eigenvalues --   -0.58546  -0.51483  -0.51037  -0.49167  -0.47709
 Alpha  occ. eigenvalues --   -0.45511  -0.43501  -0.42473  -0.40362  -0.38399
 Alpha  occ. eigenvalues --   -0.37796  -0.36949  -0.32897  -0.29686  -0.28525
 Alpha  occ. eigenvalues --   -0.26493  -0.24219
 Alpha virt. eigenvalues --   -0.02779   0.06553   0.07412   0.09422   0.12029
 Alpha virt. eigenvalues --    0.12661   0.13494   0.14659   0.16407   0.17429
 Alpha virt. eigenvalues --    0.17623   0.20805   0.21962   0.23717   0.26792

 Mulliken charges:
               1
     1  C   -0.411201
     2  C    0.097566
     3  O   -0.418709
     4  C    0.050917
     5  C    0.150809
     6  O   -0.249149
     7  O   -0.265723
     8  N   -0.396557
     9  H    0.126996
    10  H    0.112490
    11  H    0.144374
    12  H    0.101900
    13  H    0.277892
    14  H    0.082121
    15  H    0.082461
    16  H    0.254541
    17  H    0.259272
 Sum of Mulliken charges =  -0.00000

 Dipole moment (field-independent basis, Debye):
    X=             -0.8578    Y=             -1.6978    Z=              0.5333  Tot=              1.9756
 Quadrupole moment (field-independent basis, Debye-Ang):
   XX=            -40.4556   YY=            -56.7181   ZZ=            -43.6863
   XY=              5.4339   XZ=              2.5012   YZ=             -5.5371

  Exact polarizability:  71.355   2.723  63.142   2.742  -1.347  54.170
 Approx polarizability:  88.703   2.476  94.349   3.681   2.873  84.771

                      1                      2                      3
                      A                      A                      A
 Frequencies --     40.1459                74.9104               123.1128
 Red. masses --      3.4995                 4.5328                 4.2360
 Frc consts  --      0.0033                 0.0150                 0.0378
 IR Inten    --      4.4304                 0.5339                 6.6485

                      4                      5                      6
                      A                      A                      A
 Frequencies --    181.6267               191.1444               218.3622
 Red. masses --      1.5263                 1.7507                 1.2541
 Frc consts  --      0.0297                 0.0377                 0.0352
 IR Inten    --     14.3554                15.9406                 6.3481

                      7                      8                      9
                      A                      A                      A
 Frequencies --    254.1757               262.8215               327.6703
 Red. masses --      2.3506                 1.1495                 3.8145
 Frc consts  --      0.0895                 0.0468                 0.2413
 IR Inten    --      8.7640                83.4439                30.8786

                     10                     11                     12
                      A                      A                      A
 Frequencies --    359.5697               383.2247               494.1290
 Red. masses --      3.3790                 4.1904                 3.0212
 Frc consts  --      0.2574                 0.3626                 0.4346
 IR Inten    --      2.5740                 8.7167                13.8872

                     13                     14                     15
                      A                      A                      A
 Frequencies --    527.9101               584.0412               840.2797
 Red. masses --      3.1330                 6.0171                 2.3397
 Frc consts  --      0.5144                 1.2093                 0.9733
 IR Inten    --     24.9460                 3.1932                 6.8057

                     16                     17                     18
                      A                      A                      A
 Frequencies --    920.2536               935.2877               969.4101
 Red. masses --      2.2411                 3.6985                 1.7425
 Frc consts  --      1.1182                 1.9062                 0.9648
 IR Inten    --      8.3425                 5.6220                 5.8374

                     19                     20                     21
                      A                      A                      A
 Frequencies --   1054.7944              1066.9261              1081.0515
 Red. masses --      2.6542                 4.4032                 1.7847
 Frc consts  --      1.7399                 2.9531                 1.2288
 IR Inten    --     44.6681                29.5828               114.1300

                     22                     23                     24
                      A                      A                      A
 Frequencies --   1118.7282              1159.2321              1225.6444
 Red. masses --      2.6607                 2.3239                 1.4185
 Frc consts  --      1.9620                 1.8399                 1.2555
 IR Inten    --      5.9008                32.7679                27.6443

                     25                     26                     27
                      A                      A                      A
 Frequencies --   1252.2586              1304.8805              1318.2792
 Red. masses --      1.5845                 1.1767                 1.4499
 Frc consts  --      1.4640                 1.1804                 1.4845
 IR Inten    --     46.7776                12.1210                 8.0423

                     28                     29                     30
                      A                      A                      A
 Frequencies --   1331.5281              1359.9686              1403.8904
 Red. masses --      1.1943                 1.3394                 1.2365
 Frc consts  --      1.2476                 1.4595                 1.4358
 IR Inten    --      7.5528                 3.6083                10.7033

                     31                     32                     33
                      A                      A                      A
 Frequencies --   1412.4342              1429.0057              1489.9872
 Red. masses --      1.2465                 1.1699                 1.0576
 Frc consts  --      1.4652                 1.4076                 1.3834
 IR Inten    --      5.7244                45.3676                 9.3998

                     34                     35                     36
                      A                      A                      A
 Frequencies --   1494.0225              1652.2104              1833.7223
 Red. masses --      1.0506                 1.0671                10.7390
 Frc consts  --      1.3817                 1.7163                21.2756
 IR Inten    --      2.2388                15.0827               134.6026

                     37                     38                     39
                      A                      A                      A
 Frequencies --   2883.2727              2987.8091              3034.0185
 Red. masses --      1.0837                 1.0826                 1.0469
 Frc consts  --      5.3079                 5.6939                 5.6780
 IR Inten    --     95.2482                22.6245                 8.1571

                     40                     41                     42
                      A                      A                      A
 Frequencies --   3048.9969              3109.2549              3141.7140
 Red. masses --      1.0790                 1.0948                 1.1016
 Frc consts  --      5.9100                 6.2358                 6.4060
 IR Inten    --     30.1042                24.9606                 9.5612

                     43                     44                     45
                      A                      A                      A
 Frequencies --   3420.3357              3515.1756              3794.6062
 Red. masses --      1.0505                 1.0923                 1.0658
 Frc consts  --      7.2409                 7.9523                 9.0422
 IR Inten    --      1.2463                 1.7401                14.9412

 - Thermochemistry -
 -------------------
 Temperature   298.150 Kelvin.  Pressure   1.00000 Atm.
 Atom     1 has atomic number  6 and mass  12.00000

 Molecular mass:   119.05824 amu.
 Principal axes and moments of inertia in atomic units:
                           1         2         3
     Eigenvalues --   774.425791008.250191677.18494
           X            0.99443   0.10509   0.00761
           Y           -0.10495   0.99433  -0.01690
           Z           -0.00934   0.01601   0.99983
 This molecule is an asymmetric top.
 Rotational symmetry number  1.
 Warning -- assumption of classical behavior for rotation
           may cause significant error
 Rotational temperatures (Kelvin)      0.11184     0.08591     0.05164
 Rotational constants (GHZ):           2.33042     1.78997     1.07605
 Zero-point vibrational energy     362539.2 (Joules/Mol)
                                   86.64895 (Kcal/Mol)
 Warning -- explicit consideration of  14 degrees of freedom as
           vibrations may cause significant error
 Vibrational temperatures:     57.76   107.78   177.13   261.32   275.01
          (Kelvin)            314.17   365.70   378.14   471.44   517.34
                              551.37   710.94   759.54   840.31  1208.98
                             1324.04  1345.67  1394.76  1517.61  1535.07
                             1555.39  1609.60  1667.88  1763.43  1801.72
                             1877.43  1896.71  1915.77  1956.69  2019.89
                             2032.18  2056.02  2143.76  2149.57  2377.16
                             2638.32  4148.39  4298.79  4365.28  4386.83
                             4473.52  4520.23  4921.10  5057.55  5459.59

 Zero-point correction=                           0.138084 (Hartree/Particle)
 Thermal correction to Energy=                    0.147997
 Thermal correction to Enthalpy=                  0.148941
 Thermal correction to Gibbs Free Energy=         0.102693
 Sum of electronic and zero-point Energies=           -438.071412
 Sum of electronic and thermal Energies=              -438.061499
 Sum of electronic and thermal Enthalpies=            -438.060555
 Sum of electronic and thermal Free Energies=         -438.106803

                     E (Thermal)             CV                S
                      KCal/Mol        Cal/Mol-Kelvin    Cal/Mol-Kelvin
 Total                   92.870             33.837             97.337
 Electronic               0.000              0.000              0.000
 Translational            0.889              2.981             40.238
 Rotational               0.889              2.981             28.662
 Vibrational             91.092             27.876             28.438
 Vibration     1          0.594              1.981              5.252
 Vibration     2          0.599              1.966              4.020
 Vibration     3          0.610              1.930              3.051
 Vibration     4          0.630              1.865              2.312
 Vibration     5          0.634              1.852              2.217
 Vibration     6          0.646              1.813              1.973
 Vibration     7          0.665              1.756              1.701
 Vibration     8          0.670              1.741              1.643
 Vibration     9          0.711              1.620              1.272
 Vibration    10          0.734              1.556              1.124
 Vibration    11          0.752              1.506              1.026
 Vibration    12          0.850              1.263              0.673
 Vibration    13          0.883              1.188              0.592
 Vibration    14          0.941              1.066              0.478

                           ! Non-Optimized Parameters !
 Normal termination of Gaussian 16 at Sun Jul  3 11:12:42 2022.
