 Gaussian 16, Revision A.03,
 Gaussian 16:  ES64L-G16RevA.03 25-Dec-2016

 -----------------------------
 # opt freq b3lyp/6-31g(2df,p)
 -----------------------------

 -------------------
 Title Card Required
 -------------------
 Symbolic Z-matrix:
 Charge =  0 Multiplicity = 1

 SCF Done:  E(RB3LYP) =  -363.951299349     A.U. after   15 cycles
 SCF Done:  E(RB3LYP) =  -363.972858746     A.U. after   14 cycles
 SCF Done:  E(RB3LYP) =  -363.974132189     A.U. after   13 cycles
 SCF Done:  E(RB3LYP) =  -363.972134609     A.U. after   13 cycles
 SCF Done:  E(RB3LYP) =  -363.974386547     A.U. after   13 cycles
 SCF Done:  E(RB3LYP) =  -363.973462764     A.U. after   13 cycles
 SCF Done:  E(RB3LYP) =  -363.975371230     A.U. after   14 cycles
 SCF Done:  E(RB3LYP) =  -363.943993075     A.U. after   14 cycles
 SCF Done:  E(RB3LYP) =  -363.978091696     A.U. after   14 cycles
 SCF Done:  E(RB3LYP) =  -363.978702512     A.U. after   14 cycles
 SCF Done:  E(RB3LYP) =  -363.981670349     A.U. after    8 cycles
 SCF Done:  E(RB3LYP) =  -363.954207208     A.U. after   14 cycles
 SCF Done:  E(RB3LYP) =  -363.981651754     A.U. after   13 cycles
 SCF Done:  E(RB3LYP) =  -363.981682506     A.U. after    8 cycles
 SCF Done:  E(RB3LYP) =  -363.981693309     A.U. after   10 cycles
 SCF Done:  E(RB3LYP) =  -363.981698484     A.U. after   11 cycles
 SCF Done:  E(RB3LYP) =  -363.981699125     A.U. after    9 cycles
 SCF Done:  E(RB3LYP) =  -363.981699167     A.U. after    8 cycles
 SCF Done:  E(RB3LYP) =  -363.981699196     A.U. after    7 cycles
 Optimization completed.
    -- Stationary point found.
 Normal termination of Gaussian 16 at Mon Jul  4 02:47:34 2022.

 ----------------------------------------------------------------------
 #N Geom=AllCheck Guess=TCheck SCRF=Check GenChk RB3LYP/6-31G(2df,p) Fr
 eq
 ----------------------------------------------------------------------

 Structure from the checkpoint file:  "CCtCCCpNpCdO.chk"
 -------------------
 Title Card Required
 -------------------
 Charge =  0 Multiplicity = 1

                         Standard orientation:
 ---------------------------------------------------------------------
 Center     Atomic      Atomic             Coordinates (Angstroms)
 Number     Number       Type             X           Y           Z
 ---------------------------------------------------------------------
      1          6           0       -3.870948    0.248539   -0.061356
      2          6           0       -2.482149   -0.172132    0.060866
      3          6           0       -1.340689   -0.543142    0.165309
      4          6           0        0.056734   -0.937895    0.276050
      5          6           0        1.003583    0.064970   -0.469656
      6          7           0        0.921328    1.440821   -0.033794
      7          6           0        2.417124   -0.457943   -0.309786
      8          8           0        3.270974    0.091098    0.338042
      9          1           0       -4.227819    0.720346    0.860645
     10          1           0       -4.525483   -0.604216   -0.272347
     11          1           0       -3.997284    0.971581   -0.874557
     12          1           0        0.197387   -1.948675   -0.130378
     13          1           0        0.353795   -0.977344    1.332462
     14          1           0        0.752278   -0.009183   -1.539191
     15          1           0        1.544673    1.582280    0.755129
     16          1           0       -0.026765    1.666903    0.246841
     17          1           0        2.610195   -1.430608   -0.814938
 ---------------------------------------------------------------------

 SCF Done:  E(RB3LYP) =  -363.981699196     A.U. after    1 cycles

 The electronic state is 1-A.
 Alpha  occ. eigenvalues --  -19.14913 -14.30676 -10.27588 -10.22863 -10.21907
 Alpha  occ. eigenvalues --  -10.20932 -10.18265 -10.17779  -1.05615  -0.89193
 Alpha  occ. eigenvalues --   -0.79407  -0.76453  -0.70759  -0.65857  -0.56696
 Alpha  occ. eigenvalues --   -0.52272  -0.49015  -0.47032  -0.45520  -0.43843
 Alpha  occ. eigenvalues --   -0.43489  -0.43060  -0.42668  -0.41101  -0.38814
 Alpha  occ. eigenvalues --   -0.36907  -0.27127  -0.25795  -0.25559  -0.23555
 Alpha virt. eigenvalues --   -0.02867   0.04881   0.05176   0.09789   0.10464
 Alpha virt. eigenvalues --    0.11582   0.13420   0.15208   0.15956   0.17341
 Alpha virt. eigenvalues --    0.17614   0.19456   0.20698   0.22052   0.23243

 Mulliken charges:
               1
     1  C   -0.498968
     2  C    0.122196
     3  C    0.012513
     4  C   -0.373031
     5  C   -0.035480
     6  N   -0.516521
     7  C    0.158794
     8  O   -0.244352
     9  H    0.150040
    10  H    0.151353
    11  H    0.151554
    12  H    0.127194
    13  H    0.134265
    14  H    0.103508
    15  H    0.238817
    16  H    0.234282
    17  H    0.083835
 Sum of Mulliken charges =  -0.00000

 Dipole moment (field-independent basis, Debye):
    X=             -2.8121    Y=             -1.3010    Z=             -0.1377  Tot=              3.1015
 Quadrupole moment (field-independent basis, Debye-Ang):
   XX=            -49.8296   YY=            -47.7403   ZZ=            -46.5638
   XY=             -5.3157   XZ=             -1.4459   YZ=              2.4825

  Exact polarizability: 108.522  -6.966  62.606   3.689   3.810  52.898
 Approx polarizability: 148.680 -10.732  93.134  11.105   6.675  81.883

                      1                      2                      3
                      A                      A                      A
 Frequencies --     26.8942                57.2182                77.9488
 Red. masses --      1.0360                 4.2949                 4.7748
 Frc consts  --      0.0004                 0.0083                 0.0171
 IR Inten    --      0.0626                 0.6223                 0.5977

                      4                      5                      6
                      A                      A                      A
 Frequencies --    124.5797               219.0161               245.3123
 Red. masses --      3.7770                 2.9094                 1.1091
 Frc consts  --      0.0345                 0.0822                 0.0393
 IR Inten    --      7.4386                11.4469                36.5161

                      7                      8                      9
                      A                      A                      A
 Frequencies --    267.9621               290.6408               327.3094
 Red. masses --      3.0012                 3.3319                 3.9425
 Frc consts  --      0.1270                 0.1658                 0.2488
 IR Inten    --      6.4172                 3.6473                 0.6589

                     10                     11                     12
                      A                      A                      A
 Frequencies --    386.7454               407.3788               509.2046
 Red. masses --      3.7941                 3.1003                 3.5347
 Frc consts  --      0.3344                 0.3031                 0.5400
 IR Inten    --      0.0353                 2.9534                 2.5527

                     13                     14                     15
                      A                      A                      A
 Frequencies --    716.8280               759.5244               806.1604
 Red. masses --      3.8680                 3.5811                 2.6474
 Frc consts  --      1.1710                 1.2172                 1.0137
 IR Inten    --     19.0915                 4.2759                72.6917

                     16                     17                     18
                      A                      A                      A
 Frequencies --    875.2819               895.1539               942.6658
 Red. masses --      1.4872                 1.6710                 2.7961
 Frc consts  --      0.6713                 0.7889                 1.4639
 IR Inten    --     58.7089                69.8223                17.1123

                     19                     20                     21
                      A                      A                      A
 Frequencies --   1049.5284              1053.0843              1062.7227
 Red. masses --      1.5431                 1.4061                 1.8469
 Frc consts  --      1.0015                 0.9187                 1.2289
 IR Inten    --      4.4456                 0.4556                 7.5380

                     22                     23                     24
                      A                      A                      A
 Frequencies --   1157.5492              1171.0083              1206.4763
 Red. masses --      1.6992                 3.4568                 1.1957
 Frc consts  --      1.3414                 2.7928                 1.0254
 IR Inten    --      1.2372                 0.2257                14.2415

                     25                     26                     27
                      A                      A                      A
 Frequencies --   1250.6944              1292.4931              1342.1146
 Red. masses --      1.5845                 1.4047                 1.2565
 Frc consts  --      1.4603                 1.3826                 1.3335
 IR Inten    --      4.7141                 9.5586                12.5235

                     28                     29                     30
                      A                      A                      A
 Frequencies --   1410.3508              1415.4328              1422.9726
 Red. masses --      1.4848                 1.2471                 1.2570
 Frc consts  --      1.7401                 1.4720                 1.4996
 IR Inten    --      4.5458                 5.3341                 6.3942

                     31                     32                     33
                      A                      A                      A
 Frequencies --   1468.5249              1477.9771              1478.6238
 Red. masses --      1.0986                 1.0394                 1.0396
 Frc consts  --      1.3959                 1.3377                 1.3392
 IR Inten    --      2.1695                 5.9015                 5.5802

                     34                     35                     36
                      A                      A                      A
 Frequencies --   1631.9538              1829.8389              2368.8485
 Red. masses --      1.1037                 9.3732                11.8143
 Frc consts  --      1.7318                18.4912                39.0600
 IR Inten    --     57.0392               168.2977                 1.8936

                     37                     38                     39
                      A                      A                      A
 Frequencies --   2884.7841              2988.7577              3008.5892
 Red. masses --      1.0835                 1.0819                 1.0585
 Frc consts  --      5.3126                 5.6938                 5.6453
 IR Inten    --     97.8873                29.4653                23.8741

                     40                     41                     42
                      A                      A                      A
 Frequencies --   3028.1707              3046.6632              3089.6398
 Red. masses --      1.0348                 1.1020                 1.1003
 Frc consts  --      5.5906                 6.0265                 6.1883
 IR Inten    --     29.6536                20.1541                 9.4751

                     43                     44                     45
                      A                      A                      A
 Frequencies --   3089.8324              3501.3871              3591.1285
 Red. masses --      1.1001                 1.0475                 1.0941
 Frc consts  --      6.1883                 7.5662                 8.3131
 IR Inten    --      8.9447                 2.1193                16.4199

 - Thermochemistry -
 -------------------
 Temperature   298.150 Kelvin.  Pressure   1.00000 Atm.
 Atom     1 has atomic number  6 and mass  12.00000

 Molecular mass:   111.06841 amu.
 Principal axes and moments of inertia in atomic units:
                           1         2         3
     Eigenvalues --   267.734722210.262792377.97501
           X            0.99993  -0.01139  -0.00131
           Y            0.01143   0.99930   0.03549
           Z            0.00090  -0.03551   0.99937
 This molecule is an asymmetric top.
 Rotational symmetry number  1.
 Rotational temperatures (Kelvin)      0.32351     0.03919     0.03642
 Rotational constants (GHZ):           6.74078     0.81653     0.75894
 Zero-point vibrational energy     366386.1 (Joules/Mol)
                                   87.56838 (Kcal/Mol)
 Warning -- explicit consideration of  12 degrees of freedom as
           vibrations may cause significant error
 Vibrational temperatures:     38.69    82.32   112.15   179.24   315.12
          (Kelvin)            352.95   385.54   418.17   470.93   556.44
                              586.13   732.63  1031.36  1092.79  1159.88
                             1259.34  1287.93  1356.29  1510.04  1515.15
                             1529.02  1665.46  1684.82  1735.85  1799.47
                             1859.61  1931.00  2029.18  2036.49  2047.34
                             2112.88  2126.48  2127.41  2348.02  2632.73
                             3408.24  4150.56  4300.16  4328.69  4356.86
                             4383.47  4445.30  4445.58  5037.72  5166.83

 Zero-point correction=                           0.139549 (Hartree/Particle)
 Thermal correction to Energy=                    0.149354
 Thermal correction to Enthalpy=                  0.150298
 Thermal correction to Gibbs Free Energy=         0.103407
 Sum of electronic and zero-point Energies=           -363.842150
 Sum of electronic and thermal Energies=              -363.832345
 Sum of electronic and thermal Enthalpies=            -363.831401
 Sum of electronic and thermal Free Energies=         -363.878292

                     E (Thermal)             CV                S
                      KCal/Mol        Cal/Mol-Kelvin    Cal/Mol-Kelvin
 Total                   93.721             32.961             98.690
 Electronic               0.000              0.000              0.000
 Translational            0.889              2.981             40.031
 Rotational               0.889              2.981             28.733
 Vibrational             91.943             26.999             29.926
 Vibration     1          0.593              1.984              6.046
 Vibration     2          0.596              1.975              4.551
 Vibration     3          0.599              1.964              3.942
 Vibration     4          0.610              1.928              3.028
 Vibration     5          0.647              1.812              1.967
 Vibration     6          0.660              1.771              1.764
 Vibration     7          0.673              1.732              1.609
 Vibration     8          0.687              1.691              1.470
 Vibration     9          0.711              1.621              1.273
 Vibration    10          0.755              1.498              1.013
 Vibration    11          0.772              1.454              0.936
 Vibration    12          0.864              1.230              0.636

 Optimization completed.
    -- Stationary point found.
 Normal termination of Gaussian 16 at Mon Jul  4 03:04:04 2022.
