 Gaussian 16, Revision A.03,
 Gaussian 16:  ES64L-G16RevA.03 25-Dec-2016

 -----------------------------
 # opt freq b3lyp/6-31g(2df,p)
 -----------------------------

 -------------------
 Title Card Required
 -------------------
 Symbolic Z-matrix:
 Charge =  0 Multiplicity = 1

 SCF Done:  E(RB3LYP) =  -363.917085948     A.U. after   14 cycles
 SCF Done:  E(RB3LYP) =  -363.945799355     A.U. after   12 cycles
 SCF Done:  E(RB3LYP) =  -363.948969224     A.U. after   12 cycles
 SCF Done:  E(RB3LYP) =  -363.948149588     A.U. after   12 cycles
 SCF Done:  E(RB3LYP) =  -363.949459280     A.U. after   11 cycles
 SCF Done:  E(RB3LYP) =  -363.949508449     A.U. after   10 cycles
 SCF Done:  E(RB3LYP) =  -363.949520476     A.U. after    9 cycles
 SCF Done:  E(RB3LYP) =  -363.949522230     A.U. after    8 cycles
 SCF Done:  E(RB3LYP) =  -363.949524128     A.U. after    8 cycles
 SCF Done:  E(RB3LYP) =  -363.949524725     A.U. after    8 cycles
 SCF Done:  E(RB3LYP) =  -363.949524859     A.U. after    7 cycles
 Optimization completed.
    -- Stationary point found.
 Normal termination of Gaussian 16 at Sun Jul  3 13:05:55 2022.

 ----------------------------------------------------------------------
 #N Geom=AllCheck Guess=TCheck SCRF=Check GenChk RB3LYP/6-31G(2df,p) Fr
 eq
 ----------------------------------------------------------------------

 Structure from the checkpoint file:  "CCtCC1OCC1N.chk"
 -------------------
 Title Card Required
 -------------------
 Charge =  0 Multiplicity = 1

                         Standard orientation:
 ---------------------------------------------------------------------
 Center     Atomic      Atomic             Coordinates (Angstroms)
 Number     Number       Type             X           Y           Z
 ---------------------------------------------------------------------
      1          6           0        3.693490    0.238436    0.233715
      2          6           0        2.276035    0.075865   -0.052067
      3          6           0        1.104824   -0.069973   -0.295271
      4          6           0       -0.311041   -0.209666   -0.562678
      5          8           0       -0.862625   -1.506559   -0.213014
      6          6           0       -1.992063   -0.903056    0.449746
      7          6           0       -1.344186    0.492065    0.394825
      8          7           0       -2.175810    1.587062   -0.030749
      9          1           0        3.896771    0.167577    1.307819
     10          1           0        4.055602    1.213893   -0.109580
     11          1           0        4.289271   -0.530708   -0.270027
     12          1           0       -0.527856    0.025864   -1.617302
     13          1           0       -2.175971   -1.340387    1.436221
     14          1           0       -2.910839   -0.973576   -0.151273
     15          1           0       -0.861881    0.758152    1.337943
     16          1           0       -2.543796    1.424574   -0.963602
     17          1           0       -1.651989    2.455616   -0.060458
 ---------------------------------------------------------------------

 SCF Done:  E(RB3LYP) =  -363.949524859     A.U. after    1 cycles

 The electronic state is 1-A.
 Alpha  occ. eigenvalues --  -19.13089 -14.32098 -10.24497 -10.22497 -10.22011
 Alpha  occ. eigenvalues --  -10.20586 -10.17924 -10.16751  -1.03576  -0.88936
 Alpha  occ. eigenvalues --   -0.78108  -0.73534  -0.70717  -0.66719  -0.57703
 Alpha  occ. eigenvalues --   -0.53060  -0.49026  -0.47790  -0.45825  -0.44383
 Alpha  occ. eigenvalues --   -0.42860  -0.42733  -0.41531  -0.38539  -0.36282
 Alpha  occ. eigenvalues --   -0.31186  -0.27159  -0.25657  -0.25168  -0.22823
 Alpha virt. eigenvalues --    0.02734   0.05286   0.08450   0.10910   0.11376
 Alpha virt. eigenvalues --    0.12314   0.14222   0.15216   0.16385   0.17232
 Alpha virt. eigenvalues --    0.18528   0.18940   0.21138   0.21688   0.24825

 Mulliken charges:
               1
     1  C   -0.499457
     2  C    0.101168
     3  C    0.045967
     4  C   -0.060033
     5  O   -0.285045
     6  C   -0.071803
     7  C   -0.024256
     8  N   -0.511886
     9  H    0.150242
    10  H    0.149510
    11  H    0.153481
    12  H    0.081723
    13  H    0.112073
    14  H    0.092566
    15  H    0.102511
    16  H    0.228097
    17  H    0.235143
 Sum of Mulliken charges =  -0.00000

 Dipole moment (field-independent basis, Debye):
    X=              0.8655    Y=              1.9793    Z=             -0.2532  Tot=              2.1750
 Quadrupole moment (field-independent basis, Debye-Ang):
   XX=            -41.1128   YY=            -49.2535   ZZ=            -45.6679
   XY=              1.4475   XZ=              3.1504   YZ=             -2.4758

  Exact polarizability: 108.776   3.718  59.784   3.925  -1.772  56.232
 Approx polarizability: 147.649   6.773  86.041   9.397  -0.701  83.732

 ******    1 imaginary frequencies (negative Signs) ******

                      1                      2                      3
                      A                      A                      A
 Frequencies --    -17.0193                68.0305                94.7337
 Red. masses --      1.0281                 2.8811                 3.5076
 Frc consts  --      0.0002                 0.0079                 0.0185
 IR Inten    --      0.0179                 1.1488                 1.0821

                      4                      5                      6
                      A                      A                      A
 Frequencies --    147.4116               260.7507               290.5011
 Red. masses --      4.1323                 3.2767                 1.5123
 Frc consts  --      0.0529                 0.1313                 0.0752
 IR Inten    --      1.2111                 5.4229                34.7702

                      7                      8                      9
                      A                      A                      A
 Frequencies --    304.5003               356.0795               416.7556
 Red. masses --      2.1076                 3.1485                 3.0169
 Frc consts  --      0.1151                 0.2352                 0.3087
 IR Inten    --     15.3380                 5.7857                 3.8616

                     10                     11                     12
                      A                      A                      A
 Frequencies --    484.6624               509.3081               697.0290
 Red. masses --      5.0384                 5.0925                 5.7881
 Frc consts  --      0.6973                 0.7783                 1.6569
 IR Inten    --      1.2764                 3.9986                 3.2925

                     13                     14                     15
                      A                      A                      A
 Frequencies --    795.0237               840.0668               908.4927
 Red. masses --      2.0653                 1.6651                 2.5959
 Frc consts  --      0.7691                 0.6924                 1.2623
 IR Inten    --     55.5145               135.6804                 7.0813

                     16                     17                     18
                      A                      A                      A
 Frequencies --    973.5825               985.8448               999.9139
 Red. masses --      2.9197                 3.2929                 2.7397
 Frc consts  --      1.6306                 1.8856                 1.6139
 IR Inten    --     46.5572                30.3753                58.4794

                     19                     20                     21
                      A                      A                      A
 Frequencies --   1022.6792              1050.7226              1053.6682
 Red. masses --      4.1211                 1.4100                 1.3997
 Frc consts  --      2.5395                 0.9172                 0.9155
 IR Inten    --     87.8773                 2.0628                 1.1603

                     22                     23                     24
                      A                      A                      A
 Frequencies --   1151.7222              1165.5381              1184.9093
 Red. masses --      1.1974                 1.9952                 2.1166
 Frc consts  --      0.9358                 1.5970                 1.7509
 IR Inten    --      3.4031                29.4651                 6.1341

                     25                     26                     27
                      A                      A                      A
 Frequencies --   1206.4350              1260.0826              1273.8742
 Red. masses --      1.6466                 1.3182                 1.5208
 Frc consts  --      1.4121                 1.2332                 1.4540
 IR Inten    --      3.5421                 0.6579                 7.6117

                     28                     29                     30
                      A                      A                      A
 Frequencies --   1336.4663              1365.2142              1413.5304
 Red. masses --      1.3873                 1.4899                 1.2447
 Frc consts  --      1.4600                 1.6361                 1.4654
 IR Inten    --      1.4119                40.9382                 6.5330

                     31                     32                     33
                      A                      A                      A
 Frequencies --   1435.6560              1475.4030              1478.5082
 Red. masses --      1.4612                 1.0394                 1.0400
 Frc consts  --      1.7745                 1.3330                 1.3394
 IR Inten    --     12.4126                 5.9321                 5.7747

                     34                     35                     36
                      A                      A                      A
 Frequencies --   1521.7582              1661.1963              2363.2971
 Red. masses --      1.1133                 1.0983                11.8613
 Frc consts  --      1.5189                 1.7858                39.0319
 IR Inten    --      2.1516                27.7801                13.7835

                     37                     38                     39
                      A                      A                      A
 Frequencies --   2963.2558              2995.5131              3027.1258
 Red. masses --      1.0814                 1.0662                 1.0347
 Frc consts  --      5.5947                 5.6370                 5.5863
 IR Inten    --     48.5996                80.8021                29.4606

                     40                     41                     42
                      A                      A                      A
 Frequencies --   3069.0806              3088.4912              3089.0231
 Red. masses --      1.0975                 1.0999                 1.1005
 Frc consts  --      6.0907                 6.1813                 6.1868
 IR Inten    --     28.2193                 9.2779                 9.0709

                     43                     44                     45
                      A                      A                      A
 Frequencies --   3093.4970              3494.1230              3578.0582
 Red. masses --      1.0888                 1.0488                 1.0928
 Frc consts  --      6.1392                 7.5445                 8.2431
 IR Inten    --     31.4894                 0.0964                 0.9047

 - Thermochemistry -
 -------------------
 Temperature   298.150 Kelvin.  Pressure   1.00000 Atm.
 Atom     1 has atomic number  6 and mass  12.00000

 Molecular mass:   111.06841 amu.
 Principal axes and moments of inertia in atomic units:
                           1         2         3
     Eigenvalues --   423.566631724.778032007.07310
           X            0.99997   0.00230   0.00683
           Y           -0.00212   0.99966  -0.02591
           Z           -0.00689   0.02590   0.99964
 This molecule is an asymmetric top.
 Rotational symmetry number  1.
 Rotational temperatures (Kelvin)      0.20449     0.05022     0.04315
 Rotational constants (GHZ):           4.26082     1.04636     0.89919
    1 imaginary frequencies ignored.
 Zero-point vibrational energy     370552.4 (Joules/Mol)
                                   88.56414 (Kcal/Mol)
 Warning -- explicit consideration of  10 degrees of freedom as
           vibrations may cause significant error
 Vibrational temperatures:     97.88   136.30   212.09   375.16   417.97
          (Kelvin)            438.11   512.32   599.62   697.32   732.78
                             1002.87  1143.86  1208.67  1307.12  1400.77
                             1418.41  1438.65  1471.41  1511.76  1515.99
                             1657.07  1676.95  1704.82  1735.79  1812.98
                             1832.82  1922.88  1964.24  2033.76  2065.59
                             2122.78  2127.24  2189.47  2390.09  3400.26
                             4263.46  4309.88  4355.36  4415.72  4443.65
                             4444.42  4450.85  5027.26  5148.03

 Zero-point correction=                           0.141136 (Hartree/Particle)
 Thermal correction to Energy=                    0.149251
 Thermal correction to Enthalpy=                  0.150195
 Thermal correction to Gibbs Free Energy=         0.107953
 Sum of electronic and zero-point Energies=           -363.808389
 Sum of electronic and thermal Energies=              -363.800274
 Sum of electronic and thermal Enthalpies=            -363.799330
 Sum of electronic and thermal Free Energies=         -363.841572

                     E (Thermal)             CV                S
                      KCal/Mol        Cal/Mol-Kelvin    Cal/Mol-Kelvin
 Total                   93.656             29.083             88.906
 Electronic               0.000              0.000              0.000
 Translational            0.889              2.981             40.031
 Rotational               0.889              2.981             28.774
 Vibrational             91.879             23.122             20.101
 Vibration     1          0.598              1.969              4.210
 Vibration     2          0.603              1.953              3.560
 Vibration     3          0.617              1.905              2.705
 Vibration     4          0.669              1.745              1.657
 Vibration     5          0.686              1.691              1.471
 Vibration     6          0.695              1.665              1.392
 Vibration     7          0.732              1.563              1.139
 Vibration     8          0.780              1.434              0.903
 Vibration     9          0.841              1.284              0.698
 Vibration    10          0.864              1.229              0.635

                           ! Non-Optimized Parameters !
 Normal termination of Gaussian 16 at Sun Jul  3 13:25:48 2022.
