 Gaussian 16, Revision A.03,
 Gaussian 16:  ES64L-G16RevA.03 25-Dec-2016

 -----------------------------
 # opt freq b3lyp/6-31g(2df,p)
 -----------------------------

 -------------------
 Title Card Required
 -------------------
 Symbolic Z-matrix:
 Charge =  0 Multiplicity = 1

 SCF Done:  E(RB3LYP) =  -419.202406347     A.U. after   14 cycles
 SCF Done:  E(RB3LYP) =  -419.233645996     A.U. after   12 cycles
 SCF Done:  E(RB3LYP) =  -419.236777573     A.U. after   12 cycles
 SCF Done:  E(RB3LYP) =  -419.227701062     A.U. after   14 cycles
 SCF Done:  E(RB3LYP) =  -419.238452495     A.U. after   12 cycles
 SCF Done:  E(RB3LYP) =  -419.238214179     A.U. after   12 cycles
 SCF Done:  E(RB3LYP) =  -419.241455962     A.U. after   12 cycles
 SCF Done:  E(RB3LYP) =  -419.243533735     A.U. after   13 cycles
 SCF Done:  E(RB3LYP) =  -419.244114835     A.U. after   11 cycles
 SCF Done:  E(RB3LYP) =  -419.244440265     A.U. after   11 cycles
 SCF Done:  E(RB3LYP) =  -419.244572899     A.U. after   12 cycles
 SCF Done:  E(RB3LYP) =  -419.244576090     A.U. after    9 cycles
 SCF Done:  E(RB3LYP) =  -419.244570611     A.U. after   12 cycles
 SCF Done:  E(RB3LYP) =  -419.244577288     A.U. after   11 cycles
 SCF Done:  E(RB3LYP) =  -419.244578228     A.U. after   10 cycles
 SCF Done:  E(RB3LYP) =  -419.244578570     A.U. after    9 cycles
 SCF Done:  E(RB3LYP) =  -419.244578584     A.U. after    8 cycles
 SCF Done:  E(RB3LYP) =  -419.244578590     A.U. after    7 cycles
 SCF Done:  E(RB3LYP) =  -419.244578592     A.U. after    5 cycles
 Optimization completed.
    -- Stationary point found.
 Normal termination of Gaussian 16 at Sun Jul  3 21:41:41 2022.

 ----------------------------------------------------------------------
 #N Geom=AllCheck Guess=TCheck SCRF=Check GenChk RB3LYP/6-31G(2df,p) Fr
 eq
 ----------------------------------------------------------------------

 Structure from the checkpoint file:  "CCtCCNC1CON1.chk"
 -------------------
 Title Card Required
 -------------------
 Charge =  0 Multiplicity = 1

                         Standard orientation:
 ---------------------------------------------------------------------
 Center     Atomic      Atomic             Coordinates (Angstroms)
 Number     Number       Type             X           Y           Z
 ---------------------------------------------------------------------
      1          6           0        4.578880    0.456719   -0.347114
      2          6           0        3.222438    0.011377   -0.063021
      3          6           0        2.104001   -0.358481    0.183502
      4          6           0        0.742297   -0.806925    0.450761
      5          7           0       -0.225514    0.285044    0.274825
      6          6           0       -1.587905   -0.057216    0.484966
      7          6           0       -2.633939    1.030616    0.254520
      8          8           0       -3.434098    0.113957   -0.513116
      9          7           0       -2.350514   -0.890015   -0.542801
     10          1           0        4.635606    1.550077   -0.384417
     11          1           0        4.934503    0.072007   -1.309176
     12          1           0        5.276708    0.116336    0.425689
     13          1           0        0.659217   -1.157807    1.488155
     14          1           0        0.520215   -1.681836   -0.184574
     15          1           0       -0.080115    0.755537   -0.612382
     16          1           0       -1.679086   -0.558622    1.453742
     17          1           0       -2.258518    1.867892   -0.355619
     18          1           0       -3.164503    1.426776    1.126151
     19          1           0       -1.893680   -0.723765   -1.448492
 ---------------------------------------------------------------------

 SCF Done:  E(RB3LYP) =  -419.244578592     A.U. after    2 cycles

 The electronic state is 1-A.
 Alpha  occ. eigenvalues --  -19.15471 -14.36041 -14.33645 -10.24726 -10.23997
 Alpha  occ. eigenvalues --  -10.23383 -10.20880 -10.18205 -10.17508  -1.06741
 Alpha  occ. eigenvalues --   -0.92814  -0.79918  -0.78083  -0.74901  -0.70444
 Alpha  occ. eigenvalues --   -0.66188  -0.60200  -0.53065  -0.49997  -0.48475
 Alpha  occ. eigenvalues --   -0.46824  -0.46014  -0.44165  -0.43299  -0.43034
 Alpha  occ. eigenvalues --   -0.42205  -0.40176  -0.38888  -0.32849  -0.30931
 Alpha  occ. eigenvalues --   -0.26192  -0.25996  -0.24649  -0.21653
 Alpha virt. eigenvalues --    0.03840   0.04977   0.06174   0.07937   0.10420
 Alpha virt. eigenvalues --    0.10628   0.11493   0.13080   0.14697   0.15710
 Alpha virt. eigenvalues --    0.16609   0.17337   0.18239   0.19765   0.20382

 Mulliken charges:
               1
     1  C   -0.498593
     2  C    0.131951
     3  C   -0.002198
     4  C   -0.294746
     5  N   -0.293036
     6  C    0.097118
     7  C   -0.098434
     8  O   -0.275170
     9  N   -0.235458
    10  H    0.151544
    11  H    0.149018
    12  H    0.152010
    13  H    0.138571
    14  H    0.126262
    15  H    0.220456
    16  H    0.104432
    17  H    0.091379
    18  H    0.116239
    19  H    0.218657
 Sum of Mulliken charges =  -0.00000

 Dipole moment (field-independent basis, Debye):
    X=              3.0495    Y=              1.1797    Z=             -0.1560  Tot=              3.2735
 Quadrupole moment (field-independent basis, Debye-Ang):
   XX=            -56.8953   YY=            -53.9976   ZZ=            -50.8994
   XY=             -3.0559   XZ=             -4.4442   YZ=             -1.4944

  Exact polarizability: 116.601   4.187  66.792  -6.358  -1.204  62.820
 Approx polarizability: 150.623  12.068 100.394 -10.676  -2.838  94.904

                      1                      2                      3
                      A                      A                      A
 Frequencies --     16.6287                39.3003                69.4291
 Red. masses --      1.0325                 4.3667                 4.0550
 Frc consts  --      0.0002                 0.0040                 0.0115
 IR Inten    --      0.0113                 0.9983                 0.4438

                      4                      5                      6
                      A                      A                      A
 Frequencies --    100.5964               126.5951               205.5071
 Red. masses --      3.9005                 3.6716                 2.3891
 Frc consts  --      0.0233                 0.0347                 0.0594
 IR Inten    --      1.0979                 8.9166                 5.9702

                      7                      8                      9
                      A                      A                      A
 Frequencies --    217.9653               297.3175               379.3322
 Red. masses --      3.1755                 4.2770                 4.1190
 Frc consts  --      0.0889                 0.2228                 0.3492
 IR Inten    --      5.9175                 2.7138                 0.0069

                     10                     11                     12
                      A                      A                      A
 Frequencies --    388.3961               439.8594               531.8025
 Red. masses --      3.9322                 3.7127                 2.8337
 Frc consts  --      0.3495                 0.4232                 0.4722
 IR Inten    --      0.4443                 8.9114                 7.6868

                     13                     14                     15
                      A                      A                      A
 Frequencies --    697.3886               737.7292               808.8797
 Red. masses --      2.1205                 2.0552                 2.7853
 Frc consts  --      0.6076                 0.6590                 1.0737
 IR Inten    --     51.1529                40.5979                 6.5259

                     16                     17                     18
                      A                      A                      A
 Frequencies --    870.4389               890.2176               960.5594
 Red. masses --      5.6126                 5.1994                 1.8910
 Frc consts  --      2.5055                 2.4277                 1.0280
 IR Inten    --      5.1640                42.8240                15.7302

                     19                     20                     21
                      A                      A                      A
 Frequencies --    994.1858              1023.8346              1050.9299
 Red. masses --      1.7946                 4.4682                 1.6383
 Frc consts  --      1.0451                 2.7596                 1.0661
 IR Inten    --      3.4833                78.7515                 8.4391

                     22                     23                     24
                      A                      A                      A
 Frequencies --   1055.0703              1058.7663              1090.7425
 Red. masses --      1.4848                 2.6993                 1.9735
 Frc consts  --      0.9739                 1.7828                 1.3834
 IR Inten    --      1.0327                11.7589                 1.4872

                     25                     26                     27
                      A                      A                      A
 Frequencies --   1152.2426              1163.3037              1174.8116
 Red. masses --      1.3654                 1.7024                 3.2836
 Frc consts  --      1.0681                 1.3574                 2.6701
 IR Inten    --      9.6608                41.0957                 5.9761

                     28                     29                     30
                      A                      A                      A
 Frequencies --   1214.4367              1271.3269              1293.2705
 Red. masses --      1.3673                 1.3914                 1.4197
 Frc consts  --      1.1881                 1.3250                 1.3990
 IR Inten    --     51.9477                 7.7174                 9.0379

                     31                     32                     33
                      A                      A                      A
 Frequencies --   1324.1008              1346.0023              1372.4313
 Red. masses --      1.1915                 1.3440                 1.2887
 Frc consts  --      1.2308                 1.4347                 1.4301
 IR Inten    --      5.6217                 2.6944                79.7652

                     34                     35                     36
                      A                      A                      A
 Frequencies --   1414.9718              1427.9704              1477.1187
 Red. masses --      1.2514                 1.4363                 1.0395
 Frc consts  --      1.4762                 1.7256                 1.3364
 IR Inten    --      4.6360                 8.9869                 6.0036

                     37                     38                     39
                      A                      A                      A
 Frequencies --   1478.8840              1497.3793              1505.7916
 Red. masses --      1.0397                 1.1121                 1.2760
 Frc consts  --      1.3398                 1.4692                 1.7046
 IR Inten    --      5.5765                34.1254                48.6807

                     40                     41                     42
                      A                      A                      A
 Frequencies --   1517.0302              2378.5414              2948.4741
 Red. masses --      1.1169                11.8375                 1.0724
 Frc consts  --      1.5145                39.4578                 5.4930
 IR Inten    --      2.7022                 7.6381                39.1008

                     43                     44                     45
                      A                      A                      A
 Frequencies --   2975.8083              3026.0817              3028.4268
 Red. masses --      1.0681                 1.0856                 1.0349
 Frc consts  --      5.5727                 5.8573                 5.5920
 IR Inten    --     59.4248                15.1870                29.7847

                     46                     47                     48
                      A                      A                      A
 Frequencies --   3059.6660              3078.3479              3089.5785
 Red. masses --      1.0864                 1.0961                 1.1004
 Frc consts  --      5.9925                 6.1201                 6.1887
 IR Inten    --     14.9898                54.0708                10.0159

                     49                     50                     51
                      A                      A                      A
 Frequencies --   3090.6692              3340.9196              3527.8328
 Red. masses --      1.1000                 1.0758                 1.0740
 Frc consts  --      6.1908                 7.0745                 7.8752
 IR Inten    --      8.8394                11.3985                 1.5546

 - Thermochemistry -
 -------------------
 Temperature   298.150 Kelvin.  Pressure   1.00000 Atm.
 Atom     1 has atomic number  6 and mass  12.00000

 Molecular mass:   126.07931 amu.
 Principal axes and moments of inertia in atomic units:
                           1         2         3
     Eigenvalues --   279.649043356.970163439.89423
           X            0.99996  -0.00036  -0.00841
           Y           -0.00012   0.99836  -0.05724
           Z            0.00841   0.05724   0.99833
 This molecule is an asymmetric top.
 Rotational symmetry number  1.
 Rotational temperatures (Kelvin)      0.30972     0.02580     0.02518
 Rotational constants (GHZ):           6.45359     0.53761     0.52465
 Zero-point vibrational energy     414068.8 (Joules/Mol)
                                   98.96481 (Kcal/Mol)
 Warning -- explicit consideration of  12 degrees of freedom as
           vibrations may cause significant error
 Vibrational temperatures:     23.93    56.54    99.89   144.74   182.14
          (Kelvin)            295.68   313.60   427.77   545.77   558.82
                              632.86   765.15  1003.39  1061.43  1163.80
                             1252.37  1280.82  1382.03  1430.41  1473.07
                             1512.05  1518.01  1523.33  1569.34  1657.82
                             1673.73  1690.29  1747.30  1829.16  1860.73
                             1905.09  1936.60  1974.62  2035.83  2054.53
                             2125.24  2127.78  2154.39  2166.50  2182.67
                             3422.19  4242.20  4281.52  4353.86  4357.23
                             4402.18  4429.06  4445.21  4446.78  4806.84
                             5075.76

 Zero-point correction=                           0.157710 (Hartree/Particle)
 Thermal correction to Energy=                    0.167953
 Thermal correction to Enthalpy=                  0.168897
 Thermal correction to Gibbs Free Energy=         0.119540
 Sum of electronic and zero-point Energies=           -419.086868
 Sum of electronic and thermal Energies=              -419.076626
 Sum of electronic and thermal Enthalpies=            -419.075682
 Sum of electronic and thermal Free Energies=         -419.125038

                     E (Thermal)             CV                S
                      KCal/Mol        Cal/Mol-Kelvin    Cal/Mol-Kelvin
 Total                  105.392             34.524            103.879
 Electronic               0.000              0.000              0.000
 Translational            0.889              2.981             40.409
 Rotational               0.889              2.981             29.558
 Vibrational            103.614             28.563             33.912
 Vibration     1          0.593              1.986              7.001
 Vibration     2          0.594              1.981              5.294
 Vibration     3          0.598              1.969              4.169
 Vibration     4          0.604              1.949              3.443
 Vibration     5          0.611              1.927              2.997
 Vibration     6          0.640              1.832              2.083
 Vibration     7          0.646              1.814              1.976
 Vibration     8          0.691              1.679              1.432
 Vibration     9          0.749              1.514              1.042
 Vibration    10          0.757              1.495              1.006
 Vibration    11          0.800              1.383              0.827
 Vibration    12          0.887              1.180              0.583

 Optimization completed.
    -- Stationary point found.
 Normal termination of Gaussian 16 at Sun Jul  3 22:07:00 2022.
