 Gaussian 16, Revision A.03,
 Gaussian 16:  ES64L-G16RevA.03 25-Dec-2016

 -----------------------------
 # opt freq b3lyp/6-31g(2df,p)
 -----------------------------

 -------------------
 Title Card Required
 -------------------
 Symbolic Z-matrix:
 Charge =  0 Multiplicity = 1

 SCF Done:  E(RB3LYP) =  -367.339959460     A.U. after   13 cycles
 SCF Done:  E(RB3LYP) =  -367.369878020     A.U. after   12 cycles
 SCF Done:  E(RB3LYP) =  -367.373722795     A.U. after   10 cycles
 SCF Done:  E(RB3LYP) =  -367.373279074     A.U. after   12 cycles
 SCF Done:  E(RB3LYP) =  -367.374214555     A.U. after   10 cycles
 SCF Done:  E(RB3LYP) =  -367.374317448     A.U. after   10 cycles
 SCF Done:  E(RB3LYP) =  -367.374343679     A.U. after    9 cycles
 SCF Done:  E(RB3LYP) =  -367.374358303     A.U. after    9 cycles
 SCF Done:  E(RB3LYP) =  -367.374358879     A.U. after    7 cycles
 SCF Done:  E(RB3LYP) =  -367.374358989     A.U. after    6 cycles
 SCF Done:  E(RB3LYP) =  -367.374359075     A.U. after    6 cycles
 SCF Done:  E(RB3LYP) =  -367.374359150     A.U. after    6 cycles
 SCF Done:  E(RB3LYP) =  -367.374359306     A.U. after    8 cycles
 SCF Done:  E(RB3LYP) =  -367.374359558     A.U. after    8 cycles
 SCF Done:  E(RB3LYP) =  -367.374359838     A.U. after    8 cycles
 SCF Done:  E(RB3LYP) =  -367.374360244     A.U. after    7 cycles
 SCF Done:  E(RB3LYP) =  -367.374360634     A.U. after    9 cycles
 SCF Done:  E(RB3LYP) =  -367.374360754     A.U. after    8 cycles
 SCF Done:  E(RB3LYP) =  -367.374360769     A.U. after    6 cycles
 Optimization completed on the basis of negligible forces.
    -- Stationary point found.
 Normal termination of Gaussian 16 at Mon Jul  4 00:34:19 2022.

 ----------------------------------------------------------------------
 #N Geom=AllCheck Guess=TCheck SCRF=Check GenChk RB3LYP/6-31G(2df,p) Fr
 eq
 ----------------------------------------------------------------------

 Structure from the checkpoint file:  "CCtCC1pCpCCC1N.chk"
 -------------------
 Title Card Required
 -------------------
 Charge =  0 Multiplicity = 1

                         Standard orientation:
 ---------------------------------------------------------------------
 Center     Atomic      Atomic             Coordinates (Angstroms)
 Number     Number       Type             X           Y           Z
 ---------------------------------------------------------------------
      1          6           0        3.778603   -0.223969   -0.335465
      2          6           0        2.354262   -0.037829   -0.095179
      3          6           0        1.176108    0.124880    0.105539
      4          6           0       -0.249972    0.294762    0.320670
      5          6           0       -0.611869    0.113599    1.801438
      6          6           0       -0.914885    1.575336   -0.294187
      7          6           0       -2.087990    0.705425   -0.813824
      8          6           0       -1.199100   -0.547067   -0.651629
      9          7           0       -1.842230   -1.777596   -0.261287
     10          1           0        3.960333   -0.994498   -1.093450
     11          1           0        4.301990   -0.530202    0.577395
     12          1           0        4.247854    0.701263   -0.688899
     13          1           0       -0.063491    0.832222    2.417348
     14          1           0       -0.355303   -0.892043    2.148568
     15          1           0       -1.681930    0.273522    1.973663
     16          1           0       -0.311651    1.986235   -1.106078
     17          1           0       -1.151585    2.376356    0.410247
     18          1           0       -2.477675    0.913199   -1.812259
     19          1           0       -2.930942    0.689779   -0.115621
     20          1           0       -0.642374   -0.734097   -1.574579
     21          1           0       -2.304765   -1.680031    0.637253
     22          1           0       -1.165790   -2.529363   -0.168762
 ---------------------------------------------------------------------

 SCF Done:  E(RB3LYP) =  -367.374360769     A.U. after    1 cycles

 The electronic state is 1-A.
 Alpha  occ. eigenvalues --  -14.30883 -10.20696 -10.20087 -10.19859 -10.17804
 Alpha  occ. eigenvalues --  -10.17686 -10.17517 -10.16424 -10.15714  -0.89137
 Alpha  occ. eigenvalues --   -0.82454  -0.76623  -0.73080  -0.68605  -0.63578
 Alpha  occ. eigenvalues --   -0.62483  -0.54601  -0.51140  -0.47508  -0.46159
 Alpha  occ. eigenvalues --   -0.44750  -0.42679  -0.42073  -0.41841  -0.39462
 Alpha  occ. eigenvalues --   -0.38796  -0.38271  -0.34690  -0.33056  -0.31793
 Alpha  occ. eigenvalues --   -0.30731  -0.25878  -0.23851  -0.21599
 Alpha virt. eigenvalues --    0.05735   0.06423   0.08237   0.10428   0.11382
 Alpha virt. eigenvalues --    0.11569   0.14043   0.14878   0.15839   0.16813
 Alpha virt. eigenvalues --    0.17315   0.18348   0.19229   0.20311   0.20674

 Mulliken charges:
               1
     1  C   -0.501089
     2  C    0.105467
     3  C   -0.033711
     4  C    0.120934
     5  C   -0.445567
     6  C   -0.252501
     7  C   -0.236908
     8  C    0.034877
     9  N   -0.518429
    10  H    0.143958
    11  H    0.144582
    12  H    0.145553
    13  H    0.124833
    14  H    0.114629
    15  H    0.106433
    16  H    0.108476
    17  H    0.098020
    18  H    0.101319
    19  H    0.097678
    20  H    0.087172
    21  H    0.224083
    22  H    0.230190
 Sum of Mulliken charges =  -0.00000

 Dipole moment (field-independent basis, Debye):
    X=              0.7409    Y=             -0.0725    Z=              0.7211  Tot=              1.0364
 Quadrupole moment (field-independent basis, Debye-Ang):
   XX=            -52.3794   YY=            -54.9230   ZZ=            -55.0751
   XY=             -2.7089   XZ=             -3.8649   YZ=             -1.8681

  Exact polarizability: 121.929  -3.815  78.940  -3.618  -0.719  76.477
 Approx polarizability: 170.447  -6.432 112.967  -8.671   0.595 110.202

                      1                      2                      3
                      A                      A                      A
 Frequencies --     15.9910                81.4846                92.9424
 Red. masses --      1.0193                 3.3048                 3.0632
 Frc consts  --      0.0002                 0.0129                 0.0156
 IR Inten    --      0.0025                 0.4387                 0.9584

                      4                      5                      6
                      A                      A                      A
 Frequencies --    154.9558               238.5471               252.1151
 Red. masses --      2.3075                 1.4682                 2.5973
 Frc consts  --      0.0326                 0.0492                 0.0973
 IR Inten    --      1.1635                 0.5140                 5.9530

                      7                      8                      9
                      A                      A                      A
 Frequencies --    263.0176               294.4698               302.6539
 Red. masses --      1.8136                 3.4382                 1.1359
 Frc consts  --      0.0739                 0.1757                 0.0613
 IR Inten    --      4.1119                 5.0810                31.1891

                     10                     11                     12
                      A                      A                      A
 Frequencies --    325.8169               376.5671               468.6159
 Red. masses --      2.3093                 2.8399                 2.7156
 Frc consts  --      0.1444                 0.2373                 0.3514
 IR Inten    --      1.3110                 6.6912                 1.0723

                     13                     14                     15
                      A                      A                      A
 Frequencies --    495.7455               538.6649               576.4514
 Red. masses --      4.8379                 4.7377                 3.2180
 Frc consts  --      0.7005                 0.8100                 0.6300
 IR Inten    --      1.6054                 2.8744                 1.8281

                     16                     17                     18
                      A                      A                      A
 Frequencies --    679.5897               792.8684               833.5642
 Red. masses --      2.2457                 1.5104                 1.8193
 Frc consts  --      0.6111                 0.5594                 0.7448
 IR Inten    --     12.9394                 8.1814                63.4070

                     19                     20                     21
                      A                      A                      A
 Frequencies --    861.8083               881.3229               916.9744
 Red. masses --      1.8759                 2.4936                 1.8951
 Frc consts  --      0.8209                 1.1412                 0.9388
 IR Inten    --    140.0131                 0.2250                10.9184

                     22                     23                     24
                      A                      A                      A
 Frequencies --    959.0368               961.9939              1029.4722
 Red. masses --      2.0235                 2.4224                 1.2598
 Frc consts  --      1.0966                 1.3208                 0.7866
 IR Inten    --     39.8731                 7.6300                 1.0215

                     25                     26                     27
                      A                      A                      A
 Frequencies --   1052.3528              1053.2423              1065.2708
 Red. masses --      1.4107                 1.4097                 1.8851
 Frc consts  --      0.9205                 0.9214                 1.2604
 IR Inten    --      1.7793                 0.7245                 6.7417

                     28                     29                     30
                      A                      A                      A
 Frequencies --   1123.7140              1160.4094              1173.0547
 Red. masses --      2.1072                 2.3515                 2.0934
 Frc consts  --      1.5677                 1.8656                 1.6972
 IR Inten    --      2.7748                12.2643                 4.6705

                     31                     32                     33
                      A                      A                      A
 Frequencies --   1220.1115              1231.2563              1250.9063
 Red. masses --      1.4388                 1.6715                 1.6141
 Frc consts  --      1.2619                 1.4930                 1.4881
 IR Inten    --      4.2186                 1.6255                 3.1852

                     34                     35                     36
                      A                      A                      A
 Frequencies --   1260.0221              1287.0747              1325.2784
 Red. masses --      1.5016                 1.5773                 2.1899
 Frc consts  --      1.4046                 1.5395                 2.2661
 IR Inten    --      0.9223                 6.1064                 6.4261

                     37                     38                     39
                      A                      A                      A
 Frequencies --   1404.1969              1415.0361              1429.4236
 Red. masses --      1.2339                 1.2508                 1.3243
 Frc consts  --      1.4335                 1.4756                 1.5942
 IR Inten    --      2.6750                11.2031                10.1677

                     40                     41                     42
                      A                      A                      A
 Frequencies --   1479.1881              1479.5215              1480.4846
 Red. masses --      1.0402                 1.0419                 1.0767
 Frc consts  --      1.3409                 1.3437                 1.3904
 IR Inten    --      5.4617                 6.0525                 0.6510

                     43                     44                     45
                      A                      A                      A
 Frequencies --   1491.3462              1498.1228              1500.7258
 Red. masses --      1.0538                 1.0590                 1.1353
 Frc consts  --      1.3809                 1.4003                 1.5064
 IR Inten    --      4.9929                 2.3105                 3.3730

                     46                     47                     48
                      A                      A                      A
 Frequencies --   1658.8544              2356.5590              3022.1535
 Red. masses --      1.0974                11.8675                 1.0348
 Frc consts  --      1.7793                38.8299                 5.5683
 IR Inten    --     21.7951                 0.7621                45.7629

                     49                     50                     51
                      A                      A                      A
 Frequencies --   3030.4290              3053.3944              3064.4773
 Red. masses --      1.0356                 1.0645                 1.0771
 Frc consts  --      5.6035                 5.8475                 5.9594
 IR Inten    --     21.3399                24.0629                29.9174

                     52                     53                     54
                      A                      A                      A
 Frequencies --   3066.6514              3080.5338              3081.7867
 Red. masses --      1.0650                 1.1000                 1.1001
 Frc consts  --      5.9008                 6.1505                 6.1557
 IR Inten    --     21.3094                12.2807                11.8529

                     55                     56                     57
                      A                      A                      A
 Frequencies --   3098.9129              3108.0330              3110.1112
 Red. masses --      1.1001                 1.1044                 1.1021
 Frc consts  --      6.2243                 6.2856                 6.2810
 IR Inten    --     35.9995                12.8928                19.9041

                     58                     59                     60
                      A                      A                      A
 Frequencies --   3126.0926              3493.3478              3575.3357
 Red. masses --      1.1070                 1.0482                 1.0930
 Frc consts  --      6.3736                 7.5365                 8.2317
 IR Inten    --     39.5160                 0.0514                 0.3041

 - Thermochemistry -
 -------------------
 Temperature   298.150 Kelvin.  Pressure   1.00000 Atm.
 Atom     1 has atomic number  6 and mass  12.00000

 Molecular mass:   123.10480 amu.
 Principal axes and moments of inertia in atomic units:
                           1         2         3
     Eigenvalues --   680.675731952.549252056.07491
           X            0.99987  -0.01120  -0.01129
           Y            0.01062   0.99869  -0.05011
           Z            0.01184   0.04999   0.99868
 This molecule is an asymmetric top.
 Rotational symmetry number  1.
 Warning -- assumption of classical behavior for rotation
           may cause significant error
 Rotational temperatures (Kelvin)      0.12725     0.04436     0.04213
 Rotational constants (GHZ):           2.65140     0.92430     0.87776
 Zero-point vibrational energy     506631.0 (Joules/Mol)
                                  121.08770 (Kcal/Mol)
 Warning -- explicit consideration of  15 degrees of freedom as
           vibrations may cause significant error
 Vibrational temperatures:     23.01   117.24   133.72   222.95   343.22
          (Kelvin)            362.74   378.42   423.68   435.45   468.78
                              541.80   674.23   713.27   775.02   829.39
                              977.78  1140.76  1199.31  1239.95  1268.03
                             1319.32  1379.84  1384.09  1481.18  1514.10
                             1515.38  1532.69  1616.77  1669.57  1687.76
                             1755.47  1771.50  1799.78  1812.89  1851.81
                             1906.78  2020.33  2035.92  2056.62  2128.22
                             2128.70  2130.09  2145.71  2155.46  2159.21
                             2386.72  3390.56  4348.20  4360.11  4393.15
                             4409.10  4412.23  4432.20  4434.00  4458.64
                             4471.77  4474.76  4497.75  5026.15  5144.11

 Zero-point correction=                           0.192966 (Hartree/Particle)
 Thermal correction to Energy=                    0.203570
 Thermal correction to Enthalpy=                  0.204514
 Thermal correction to Gibbs Free Energy=         0.156114
 Sum of electronic and zero-point Energies=           -367.181395
 Sum of electronic and thermal Energies=              -367.170791
 Sum of electronic and thermal Enthalpies=            -367.169847
 Sum of electronic and thermal Free Energies=         -367.218247

                     E (Thermal)             CV                S
                      KCal/Mol        Cal/Mol-Kelvin    Cal/Mol-Kelvin
 Total                  127.742             38.741            101.867
 Electronic               0.000              0.000              0.000
 Translational            0.889              2.981             40.338
 Rotational               0.889              2.981             29.392
 Vibrational            125.965             32.780             32.137
 Vibration     1          0.593              1.986              7.078
 Vibration     2          0.600              1.962              3.855
 Vibration     3          0.602              1.954              3.597
 Vibration     4          0.620              1.897              2.610
 Vibration     5          0.657              1.782              1.814
 Vibration     6          0.664              1.759              1.716
 Vibration     7          0.670              1.741              1.642
 Vibration     8          0.689              1.684              1.448
 Vibration     9          0.694              1.669              1.402
 Vibration    10          0.710              1.624              1.281
 Vibration    11          0.747              1.520              1.053
 Vibration    12          0.826              1.320              0.741
 Vibration    13          0.851              1.259              0.669
 Vibration    14          0.894              1.165              0.568
 Vibration    15          0.933              1.082              0.492

 Optimization completed on the basis of negligible forces.
    -- Stationary point found.
 Normal termination of Gaussian 16 at Mon Jul  4 01:06:01 2022.
