 Gaussian 16, Revision A.03,
 Gaussian 16:  ES64L-G16RevA.03 25-Dec-2016

 -----------------------------
 # opt freq b3lyp/6-31g(2df,p)
 -----------------------------

 -------------------
 Title Card Required
 -------------------
 Symbolic Z-matrix:
 Charge =  0 Multiplicity = 1

 SCF Done:  E(RB3LYP) =  -419.214044582     A.U. after   15 cycles
 SCF Done:  E(RB3LYP) =  -419.245426942     A.U. after   13 cycles
 SCF Done:  E(RB3LYP) =  -419.247261310     A.U. after   12 cycles
 SCF Done:  E(RB3LYP) =  -419.245307913     A.U. after   14 cycles
 SCF Done:  E(RB3LYP) =  -419.247540592     A.U. after   12 cycles
 SCF Done:  E(RB3LYP) =  -419.247318630     A.U. after   12 cycles
 SCF Done:  E(RB3LYP) =  -419.247803443     A.U. after   11 cycles
 SCF Done:  E(RB3LYP) =  -419.248025167     A.U. after   12 cycles
 SCF Done:  E(RB3LYP) =  -419.248463648     A.U. after   13 cycles
 SCF Done:  E(RB3LYP) =  -419.248745987     A.U. after   11 cycles
 SCF Done:  E(RB3LYP) =  -419.249500247     A.U. after   11 cycles
 SCF Done:  E(RB3LYP) =  -419.249549553     A.U. after   12 cycles
 SCF Done:  E(RB3LYP) =  -419.250024121     A.U. after   12 cycles
 SCF Done:  E(RB3LYP) =  -419.250115421     A.U. after   11 cycles
 SCF Done:  E(RB3LYP) =  -419.250128697     A.U. after    9 cycles
 SCF Done:  E(RB3LYP) =  -419.250132412     A.U. after    9 cycles
 SCF Done:  E(RB3LYP) =  -419.250133124     A.U. after    9 cycles
 SCF Done:  E(RB3LYP) =  -419.250133299     A.U. after    8 cycles
 SCF Done:  E(RB3LYP) =  -419.250133341     A.U. after    7 cycles
 Optimization completed.
    -- Stationary point found.
 Normal termination of Gaussian 16 at Sun Jul  3 13:12:47 2022.

 ----------------------------------------------------------------------
 #N Geom=AllCheck Guess=TCheck SCRF=Check GenChk RB3LYP/6-31G(2df,p) Fr
 eq
 ----------------------------------------------------------------------

 Structure from the checkpoint file:  "CCtCNCCC1NO1.chk"
 -------------------
 Title Card Required
 -------------------
 Charge =  0 Multiplicity = 1

                         Standard orientation:
 ---------------------------------------------------------------------
 Center     Atomic      Atomic             Coordinates (Angstroms)
 Number     Number       Type             X           Y           Z
 ---------------------------------------------------------------------
      1          6           0       -4.724010   -0.655152    0.026923
      2          6           0       -3.381055   -0.094593   -0.041440
      3          6           0       -2.275029    0.380204   -0.111470
      4          7           0       -1.023556    0.875952   -0.236673
      5          6           0        0.080771    0.086397    0.314260
      6          6           0        1.422984    0.691562   -0.104340
      7          6           0        2.598267   -0.062163    0.466472
      8          7           0        3.145115   -1.225933   -0.181077
      9          8           0        3.834944    0.098543   -0.161315
     10          1           0       -5.096638   -0.727687    1.055734
     11          1           0       -4.754823   -1.661635   -0.406226
     12          1           0       -5.435050   -0.041538   -0.538287
     13          1           0       -0.952428    1.861034   -0.010776
     14          1           0       -0.018045   -0.929780   -0.080431
     15          1           0        0.025432    0.008370    1.412080
     16          1           0        1.480724    1.732191    0.245013
     17          1           0        1.505478    0.716325   -1.196377
     18          1           0        2.639356   -0.113363    1.557518
     19          1           0        2.743957   -1.259926   -1.125908
 ---------------------------------------------------------------------

 SCF Done:  E(RB3LYP) =  -419.250133341     A.U. after    1 cycles

 The electronic state is 1-A.
 Alpha  occ. eigenvalues --  -19.18020 -14.38621 -14.35808 -10.27560 -10.23279
 Alpha  occ. eigenvalues --  -10.20764 -10.19736 -10.18850 -10.16208  -1.11898
 Alpha  occ. eigenvalues --   -0.93829  -0.79921  -0.77831  -0.75931  -0.69040
 Alpha  occ. eigenvalues --   -0.65943  -0.61626  -0.55693  -0.51106  -0.49242
 Alpha  occ. eigenvalues --   -0.47942  -0.46308  -0.44646  -0.41851  -0.41785
 Alpha  occ. eigenvalues --   -0.40740  -0.39040  -0.38416  -0.35424  -0.32445
 Alpha  occ. eigenvalues --   -0.31671  -0.26061  -0.25062  -0.20367
 Alpha virt. eigenvalues --    0.04411   0.05134   0.07992   0.08201   0.08752
 Alpha virt. eigenvalues --    0.10071   0.11247   0.11559   0.12280   0.14168
 Alpha virt. eigenvalues --    0.16547   0.17289   0.18666   0.19937   0.21097

 Mulliken charges:
               1
     1  C   -0.510257
     2  C    0.417914
     3  C   -0.206241
     4  N   -0.431457
     5  C   -0.152350
     6  C   -0.261166
     7  C    0.153773
     8  N   -0.263194
     9  O   -0.245704
    10  H    0.136902
    11  H    0.143415
    12  H    0.144327
    13  H    0.244351
    14  H    0.129160
    15  H    0.106695
    16  H    0.113449
    17  H    0.122249
    18  H    0.107266
    19  H    0.250867
 Sum of Mulliken charges =  -0.00000

 Dipole moment (field-independent basis, Debye):
    X=             -1.9532    Y=              0.9720    Z=              0.4567  Tot=              2.2290
 Quadrupole moment (field-independent basis, Debye-Ang):
   XX=            -64.9296   YY=            -51.6398   ZZ=            -52.2696
   XY=              3.9341   XZ=             -1.0460   YZ=              2.5700

  Exact polarizability: 119.636   9.243  68.243  -1.193   1.672  60.607
 Approx polarizability: 153.067  22.014 109.074  -4.490   2.420  90.995

 ******    1 imaginary frequencies (negative Signs) ******

                      1                      2                      3
                      A                      A                      A
 Frequencies --    -18.2309                37.8731                65.1002
 Red. masses --      1.0337                 4.2108                 4.0383
 Frc consts  --      0.0002                 0.0036                 0.0101
 IR Inten    --      0.2318                 0.5941                 0.5800

                      4                      5                      6
                      A                      A                      A
 Frequencies --     92.2739               110.5071               177.4552
 Red. masses --      2.9717                 2.5871                 4.4362
 Frc consts  --      0.0149                 0.0186                 0.0823
 IR Inten    --      3.3004                 1.6577                11.5145

                      7                      8                      9
                      A                      A                      A
 Frequencies --    211.1427               290.8578               302.4222
 Red. masses --      3.3129                 4.9272                 3.8026
 Frc consts  --      0.0870                 0.2456                 0.2049
 IR Inten    --      8.5194                 0.4167                 5.3867

                     10                     11                     12
                      A                      A                      A
 Frequencies --    429.5988               440.5852               466.7079
 Red. masses --      3.7140                 3.4401                 2.6561
 Frc consts  --      0.4038                 0.3934                 0.3409
 IR Inten    --     11.5503                14.9222                 8.5440

                     13                     14                     15
                      A                      A                      A
 Frequencies --    526.7697               635.5188               756.9721
 Red. masses --      4.1498                 2.0554                 4.1116
 Frc consts  --      0.6785                 0.4891                 1.3881
 IR Inten    --     33.2753                59.3210                 3.8177

                     16                     17                     18
                      A                      A                      A
 Frequencies --    791.9872               813.4762               890.7447
 Red. masses --      1.5449                 2.9534                 5.1020
 Frc consts  --      0.5709                 1.1515                 2.3850
 IR Inten    --      6.0620                 4.7015                18.5503

                     19                     20                     21
                      A                      A                      A
 Frequencies --    994.9327              1044.0149              1052.2624
 Red. masses --      2.5519                 1.5694                 1.4370
 Frc consts  --      1.4883                 1.0079                 0.9375
 IR Inten    --      9.8446                22.9800                 0.8930

                     22                     23                     24
                      A                      A                      A
 Frequencies --   1056.7266              1061.3442              1084.0816
 Red. masses --      1.9969                 1.6751                 2.8584
 Frc consts  --      1.3138                 1.1117                 1.9792
 IR Inten    --     12.4482                 5.5131                12.5010

                     25                     26                     27
                      A                      A                      A
 Frequencies --   1172.6817              1195.6430              1239.4852
 Red. masses --      1.6026                 1.2301                 1.4020
 Frc consts  --      1.2985                 1.0361                 1.2691
 IR Inten    --      8.8029                 0.5821                68.2640

                     28                     29                     30
                      A                      A                      A
 Frequencies --   1279.5924              1286.3999              1301.6354
 Red. masses --      1.5223                 2.7985                 1.5123
 Frc consts  --      1.4686                 2.7285                 1.5096
 IR Inten    --      8.2785                66.0514                 1.6814

                     31                     32                     33
                      A                      A                      A
 Frequencies --   1314.7845              1367.4420              1403.8654
 Red. masses --      1.2075                 1.2204                 1.4150
 Frc consts  --      1.2298                 1.3445                 1.6431
 IR Inten    --     14.3737                25.1892                 9.2718

                     34                     35                     36
                      A                      A                      A
 Frequencies --   1418.9029              1452.6726              1472.6631
 Red. masses --      1.2705                 1.9292                 1.3680
 Frc consts  --      1.5071                 2.3987                 1.7480
 IR Inten    --      6.3437                59.2478                16.9455

                     37                     38                     39
                      A                      A                      A
 Frequencies --   1477.3699              1484.6296              1485.7938
 Red. masses --      1.0432                 1.1115                 1.0419
 Frc consts  --      1.3415                 1.4434                 1.3552
 IR Inten    --      7.8505                 6.1726                 3.1484

                     40                     41                     42
                      A                      A                      A
 Frequencies --   1516.8638              2382.9420              2972.8256
 Red. masses --      1.0838                11.6351                 1.0717
 Frc consts  --      1.4693                38.9268                 5.5805
 IR Inten    --      6.8996                89.4352                53.2794

                     43                     44                     45
                      A                      A                      A
 Frequencies --   3015.4494              3017.2774              3068.3179
 Red. masses --      1.0655                 1.0354                 1.0883
 Frc consts  --      5.7081                 5.5539                 6.0368
 IR Inten    --     17.5130                52.1068                 2.3369

                     46                     47                     48
                      A                      A                      A
 Frequencies --   3070.3779              3079.6714              3080.2544
 Red. masses --      1.1002                 1.0991                 1.0912
 Frc consts  --      6.1110                 6.1419                 6.1001
 IR Inten    --     17.5809                 9.7362                12.2409

                     49                     50                     51
                      A                      A                      A
 Frequencies --   3093.9117              3375.4324              3538.1376
 Red. masses --      1.0939                 1.0762                 1.0736
 Frc consts  --      6.1695                 7.2242                 7.9183
 IR Inten    --     50.9977                 2.0458                 7.7035

 - Thermochemistry -
 -------------------
 Temperature   298.150 Kelvin.  Pressure   1.00000 Atm.
 Atom     1 has atomic number  6 and mass  12.00000

 Molecular mass:   126.07931 amu.
 Principal axes and moments of inertia in atomic units:
                           1         2         3
     Eigenvalues --   257.573363834.712443988.24925
           X            0.99995   0.00993  -0.00073
           Y           -0.00991   0.99978   0.01830
           Z            0.00091  -0.01829   0.99983
 This molecule is an asymmetric top.
 Rotational symmetry number  1.
 Rotational temperatures (Kelvin)      0.33627     0.02259     0.02172
 Rotational constants (GHZ):           7.00671     0.47063     0.45251
    1 imaginary frequencies ignored.
 Zero-point vibrational energy     412103.8 (Joules/Mol)
                                   98.49518 (Kcal/Mol)
 Warning -- explicit consideration of  12 degrees of freedom as
           vibrations may cause significant error
 Vibrational temperatures:     54.49    93.66   132.76   159.00   255.32
          (Kelvin)            303.79   418.48   435.12   618.10   633.90
                              671.49   757.90   914.37  1089.11  1139.49
                             1170.41  1281.58  1431.49  1502.10  1513.97
                             1520.39  1527.04  1559.75  1687.23  1720.26
                             1783.34  1841.05  1850.84  1872.76  1891.68
                             1967.44  2019.85  2041.48  2090.07  2118.83
                             2125.61  2136.05  2137.73  2182.43  3428.52
                             4277.23  4338.56  4341.19  4414.63  4417.59
                             4430.96  4431.80  4451.45  4856.49  5090.59

 Zero-point correction=                           0.156962 (Hartree/Particle)
 Thermal correction to Energy=                    0.166700
 Thermal correction to Enthalpy=                  0.167644
 Thermal correction to Gibbs Free Energy=         0.120601
 Sum of electronic and zero-point Energies=           -419.093171
 Sum of electronic and thermal Energies=              -419.083434
 Sum of electronic and thermal Enthalpies=            -419.082490
 Sum of electronic and thermal Free Energies=         -419.129532

                     E (Thermal)             CV                S
                      KCal/Mol        Cal/Mol-Kelvin    Cal/Mol-Kelvin
 Total                  104.606             33.637             99.010
 Electronic               0.000              0.000              0.000
 Translational            0.889              2.981             40.409
 Rotational               0.889              2.981             29.756
 Vibrational            102.828             27.676             28.845
 Vibration     1          0.594              1.982              5.367
 Vibration     2          0.597              1.971              4.296
 Vibration     3          0.602              1.955              3.611
 Vibration     4          0.606              1.941              3.260
 Vibration     5          0.628              1.870              2.355
 Vibration     6          0.643              1.824              2.034
 Vibration     7          0.687              1.691              1.469
 Vibration     8          0.694              1.669              1.403
 Vibration     9          0.791              1.406              0.860
 Vibration    10          0.800              1.382              0.825
 Vibration    11          0.824              1.324              0.747
 Vibration    12          0.882              1.191              0.594

                           ! Non-Optimized Parameters !
 Normal termination of Gaussian 16 at Sun Jul  3 13:35:33 2022.
