 Gaussian 16, Revision A.03,
 Gaussian 16:  ES64L-G16RevA.03 25-Dec-2016

 -----------------------------
 # opt freq b3lyp/6-31g(2df,p)
 -----------------------------

 -------------------
 Title Card Required
 -------------------
 Symbolic Z-matrix:
 Charge =  0 Multiplicity = 1

 SCF Done:  E(RB3LYP) =  -363.937480101     A.U. after   15 cycles
 SCF Done:  E(RB3LYP) =  -363.960482859     A.U. after   13 cycles
 SCF Done:  E(RB3LYP) =  -363.961276845     A.U. after   13 cycles
 SCF Done:  E(RB3LYP) =  -363.960889476     A.U. after   12 cycles
 SCF Done:  E(RB3LYP) =  -363.961951916     A.U. after   11 cycles
 SCF Done:  E(RB3LYP) =  -363.961967155     A.U. after   10 cycles
 SCF Done:  E(RB3LYP) =  -363.961970564     A.U. after    8 cycles
 SCF Done:  E(RB3LYP) =  -363.961970713     A.U. after    7 cycles
 Optimization completed.
    -- Stationary point found.
 Normal termination of Gaussian 16 at Sun Jul  3 21:34:11 2022.

 ----------------------------------------------------------------------
 #N Geom=AllCheck Guess=TCheck SCRF=Check GenChk RB3LYP/6-31G(2df,p) Fr
 eq
 ----------------------------------------------------------------------

 Structure from the checkpoint file:  "CCtCCpdNpCOC.chk"
 -------------------
 Title Card Required
 -------------------
 Charge =  0 Multiplicity = 1

                         Standard orientation:
 ---------------------------------------------------------------------
 Center     Atomic      Atomic             Coordinates (Angstroms)
 Number     Number       Type             X           Y           Z
 ---------------------------------------------------------------------
      1          6           0       -3.866201   -0.716479    0.000338
      2          6           0       -2.495870   -0.231397   -0.001151
      3          6           0       -1.361135    0.180400   -0.001148
      4          6           0       -0.009650    0.667287    0.000079
      5          7           0        0.322954    1.899748    0.000369
      6          6           0        1.040291   -0.426661   -0.000101
      7          8           0        2.328973    0.105898    0.000258
      8          6           0        3.324694   -0.888730    0.000090
      9          1           0       -4.132195   -1.135905    0.976922
     10          1           0       -4.006724   -1.503771   -0.748206
     11          1           0       -4.573770    0.089353   -0.221625
     12          1           0       -0.516743    2.483396    0.000111
     13          1           0        0.865217   -1.069946   -0.882558
     14          1           0        0.864892   -1.070429    0.881929
     15          1           0        4.290584   -0.378787    0.000407
     16          1           0        3.261889   -1.532632   -0.892017
     17          1           0        3.261607   -1.533214    0.891756
 ---------------------------------------------------------------------

 SCF Done:  E(RB3LYP) =  -363.961970713     A.U. after    1 cycles

 The electronic state is 1-A.
 Alpha  occ. eigenvalues --  -19.13919 -14.31082 -10.24555 -10.23471 -10.22317
 Alpha  occ. eigenvalues --  -10.21778 -10.19909 -10.18302  -1.03743  -0.90411
 Alpha  occ. eigenvalues --   -0.79169  -0.74519  -0.71433  -0.66030  -0.58684
 Alpha  occ. eigenvalues --   -0.52925  -0.48010  -0.47893  -0.46426  -0.45032
 Alpha  occ. eigenvalues --   -0.44104  -0.44056  -0.40872  -0.38642  -0.33478
 Alpha  occ. eigenvalues --   -0.31802  -0.28261  -0.25955  -0.25591  -0.25404
 Alpha virt. eigenvalues --   -0.02863   0.03891   0.08980   0.09897   0.09959
 Alpha virt. eigenvalues --    0.12696   0.14487   0.15266   0.16597   0.16800
 Alpha virt. eigenvalues --    0.17804   0.18017   0.20229   0.21189   0.22969

 Mulliken charges:
               1
     1  C   -0.500926
     2  C    0.051161
     3  C    0.067965
     4  C    0.130228
     5  N   -0.447175
     6  C   -0.110598
     7  O   -0.209024
     8  C   -0.225795
     9  H    0.158695
    10  H    0.157643
    11  H    0.157735
    12  H    0.222536
    13  H    0.104828
    14  H    0.104846
    15  H    0.132253
    16  H    0.102813
    17  H    0.102815
 Sum of Mulliken charges =  -0.00000

 Dipole moment (field-independent basis, Debye):
    X=             -2.5703    Y=             -2.6902    Z=              0.0059  Tot=              3.7207
 Quadrupole moment (field-independent basis, Debye-Ang):
   XX=            -36.1181   YY=            -48.3078   ZZ=            -47.8835
   XY=             -4.3366   XZ=             -0.0283   YZ=             -0.0079

  Exact polarizability: 111.982  10.436  73.493  -0.061  -0.048  49.237
 Approx polarizability: 150.876  31.256 119.076  -0.138  -0.106  72.961

 ******    1 imaginary frequencies (negative Signs) ******

                      1                      2                      3
                      A                      A                      A
 Frequencies --     -8.7603                69.9553                76.2066
 Red. masses --      1.0306                 2.1001                 3.5774
 Frc consts  --      0.0000                 0.0061                 0.0122
 IR Inten    --      0.0463                 1.1490                 1.2190

                      4                      5                      6
                      A                      A                      A
 Frequencies --     84.3486               164.6205               206.2156
 Red. masses --      3.0483                 3.6693                 4.0784
 Frc consts  --      0.0128                 0.0586                 0.1022
 IR Inten    --      2.1717                 0.2437                 0.4805

                      7                      8                      9
                      A                      A                      A
 Frequencies --    236.4046               306.1819               373.0360
 Red. masses --      1.2008                 4.0839                 4.3161
 Frc consts  --      0.0395                 0.2256                 0.3539
 IR Inten    --      2.9939                 6.2424                 3.0448

                     10                     11                     12
                      A                      A                      A
 Frequencies --    377.1678               416.7005               561.8814
 Red. masses --      3.6780                 5.1962                 2.5927
 Frc consts  --      0.3083                 0.5316                 0.4823
 IR Inten    --      1.9343                 4.1212                 1.0957

                     13                     14                     15
                      A                      A                      A
 Frequencies --    571.4346               795.2065               921.5642
 Red. masses --      5.7031                 4.6544                 1.4648
 Frc consts  --      1.0972                 1.7341                 0.7330
 IR Inten    --      8.4487                19.2495                43.1142

                     16                     17                     18
                      A                      A                      A
 Frequencies --    954.4394              1029.9610              1046.7563
 Red. masses --      3.1261                 4.0025                 1.4367
 Frc consts  --      1.6778                 2.5016                 0.9275
 IR Inten    --     17.8894                46.3185                 0.3890

                     19                     20                     21
                      A                      A                      A
 Frequencies --   1051.7237              1054.1457              1161.2431
 Red. masses --      1.4210                 1.5223                 2.7415
 Frc consts  --      0.9261                 0.9967                 2.1781
 IR Inten    --      3.8129                18.1030                41.9556

                     22                     23                     24
                      A                      A                      A
 Frequencies --   1173.4718              1184.4454              1234.7130
 Red. masses --      2.8963                 1.2794                 2.1068
 Frc consts  --      2.3499                 1.0575                 1.8924
 IR Inten    --    124.2792                 4.5439               122.5665

                     25                     26                     27
                      A                      A                      A
 Frequencies --   1262.9311              1327.1038              1412.0201
 Red. masses --      1.0845                 1.6218                 1.2395
 Frc consts  --      1.0192                 1.6829                 1.4561
 IR Inten    --      0.8852               100.3591                 4.5919

                     28                     29                     30
                      A                      A                      A
 Frequencies --   1434.1847              1472.6530              1473.1219
 Red. masses --      1.6378                 1.0845                 1.0653
 Frc consts  --      1.9849                 1.3857                 1.3621
 IR Inten    --     14.8099                 6.1328                15.0377

                     31                     32                     33
                      A                      A                      A
 Frequencies --   1474.5997              1486.4111              1493.5803
 Red. masses --      1.0404                 1.0468                 1.0972
 Frc consts  --      1.3329                 1.3627                 1.4421
 IR Inten    --      6.5646                 5.1791                 9.1486

                     34                     35                     36
                      A                      A                      A
 Frequencies --   1518.5361              1685.1456              2344.5389
 Red. masses --      1.1231                 8.7003                11.8990
 Frc consts  --      1.5259                14.5566                38.5369
 IR Inten    --      7.4514                64.4577                52.8735

                     37                     38                     39
                      A                      A                      A
 Frequencies --   2932.9885              2949.8882              2966.5113
 Red. masses --      1.0538                 1.1012                 1.0383
 Frc consts  --      5.3408                 5.6458                 5.3835
 IR Inten    --     37.6488                46.8885                66.9979

                     40                     41                     42
                      A                      A                      A
 Frequencies --   3008.6294              3029.7025              3091.6970
 Red. masses --      1.1030                 1.0346                 1.0999
 Frc consts  --      5.8828                 5.5955                 6.1942
 IR Inten    --     61.0718                20.9366                 6.2803

                     43                     44                     45
                      A                      A                      A
 Frequencies --   3095.3639              3118.9682              3448.7638
 Red. masses --      1.1005                 1.0953                 1.0746
 Frc consts  --      6.2126                 6.2777                 7.5308
 IR Inten    --      6.6055                28.0468                 3.1692

 - Thermochemistry -
 -------------------
 Temperature   298.150 Kelvin.  Pressure   1.00000 Atm.
 Atom     1 has atomic number  6 and mass  12.00000

 Molecular mass:   111.06841 amu.
 Principal axes and moments of inertia in atomic units:
                           1         2         3
     Eigenvalues --   344.020312182.747472492.85812
           X            0.99996  -0.00851  -0.00004
           Y            0.00851   0.99996  -0.00005
           Z            0.00004   0.00005   1.00000
 This molecule is an asymmetric top.
 Rotational symmetry number  1.
 Rotational temperatures (Kelvin)      0.25177     0.03968     0.03474
 Rotational constants (GHZ):           5.24603     0.82682     0.72396
    1 imaginary frequencies ignored.
 Zero-point vibrational energy     365334.5 (Joules/Mol)
                                   87.31705 (Kcal/Mol)
 Warning -- explicit consideration of  12 degrees of freedom as
           vibrations may cause significant error
 Vibrational temperatures:    100.65   109.64   121.36   236.85   296.70
          (Kelvin)            340.13   440.53   536.72   542.66   599.54
                              808.42   822.17  1144.12  1325.93  1373.23
                             1481.88  1506.05  1513.20  1516.68  1670.77
                             1688.36  1704.15  1776.48  1817.08  1909.41
                             2031.58  2063.47  2118.82  2119.49  2121.62
                             2138.61  2148.93  2184.83  2424.55  3373.27
                             4219.92  4244.23  4268.15  4328.75  4359.07
                             4448.26  4453.54  4487.50  4962.00

 Zero-point correction=                           0.139149 (Hartree/Particle)
 Thermal correction to Energy=                    0.148167
 Thermal correction to Enthalpy=                  0.149112
 Thermal correction to Gibbs Free Energy=         0.104492
 Sum of electronic and zero-point Energies=           -363.822822
 Sum of electronic and thermal Energies=              -363.813803
 Sum of electronic and thermal Enthalpies=            -363.812859
 Sum of electronic and thermal Free Energies=         -363.857479

                     E (Thermal)             CV                S
                      KCal/Mol        Cal/Mol-Kelvin    Cal/Mol-Kelvin
 Total                   92.976             30.452             93.911
 Electronic               0.000              0.000              0.000
 Translational            0.889              2.981             40.031
 Rotational               0.889              2.981             29.017
 Vibrational             91.199             24.490             24.863
 Vibration     1          0.598              1.968              4.155
 Vibration     2          0.599              1.965              3.986
 Vibration     3          0.601              1.960              3.787
 Vibration     4          0.623              1.886              2.496
 Vibration     5          0.641              1.831              2.077
 Vibration     6          0.655              1.785              1.830
 Vibration     7          0.697              1.662              1.383
 Vibration     8          0.744              1.527              1.067
 Vibration     9          0.748              1.519              1.051
 Vibration    10          0.780              1.434              0.903
 Vibration    11          0.918              1.114              0.520
 Vibration    12          0.928              1.093              0.501

                           ! Non-Optimized Parameters !
 Normal termination of Gaussian 16 at Sun Jul  3 21:50:08 2022.
