 Gaussian 16, Revision A.03,
 Gaussian 16:  ES64L-G16RevA.03 25-Dec-2016

 -----------------------------
 # opt freq b3lyp/6-31g(2df,p)
 -----------------------------

 -------------------
 Title Card Required
 -------------------
 Symbolic Z-matrix:
 Charge =  0 Multiplicity = 1

 SCF Done:  E(RB3LYP) =  -418.003252517     A.U. after   16 cycles
 SCF Done:  E(RB3LYP) =  -418.046905507     A.U. after   13 cycles
 SCF Done:  E(RB3LYP) =  -418.050066792     A.U. after   13 cycles
 SCF Done:  E(RB3LYP) =  -418.051033714     A.U. after   13 cycles
 SCF Done:  E(RB3LYP) =  -418.049403372     A.U. after   15 cycles
 SCF Done:  E(RB3LYP) =  -418.051362300     A.U. after   13 cycles
 SCF Done:  E(RB3LYP) =  -418.050785999     A.U. after   14 cycles
 SCF Done:  E(RB3LYP) =  -418.051681107     A.U. after   13 cycles
 SCF Done:  E(RB3LYP) =  -418.051943526     A.U. after   12 cycles
 SCF Done:  E(RB3LYP) =  -418.051949152     A.U. after    9 cycles
 SCF Done:  E(RB3LYP) =  -418.051953880     A.U. after    8 cycles
 SCF Done:  E(RB3LYP) =  -418.051954197     A.U. after    8 cycles
 SCF Done:  E(RB3LYP) =  -418.051954672     A.U. after    9 cycles
 SCF Done:  E(RB3LYP) =  -418.051955341     A.U. after    9 cycles
 SCF Done:  E(RB3LYP) =  -418.051956271     A.U. after   10 cycles
 SCF Done:  E(RB3LYP) =  -418.051956922     A.U. after    8 cycles
 SCF Done:  E(RB3LYP) =  -418.051957595     A.U. after    9 cycles
 SCF Done:  E(RB3LYP) =  -418.051957667     A.U. after    8 cycles
 SCF Done:  E(RB3LYP) =  -418.051957667     A.U. after    6 cycles
 Optimization completed.
    -- Stationary point found.
 Normal termination of Gaussian 16 at Sun Jul  3 22:13:19 2022.

 ----------------------------------------------------------------------
 #N Geom=AllCheck Guess=TCheck SCRF=Check GenChk RB3LYP/6-31G(2df,p) Fr
 eq
 ----------------------------------------------------------------------

 Structure from the checkpoint file:  "CCtCCpCtNpNOC.chk"
 -------------------
 Title Card Required
 -------------------
 Charge =  0 Multiplicity = 1

                         Standard orientation:
 ---------------------------------------------------------------------
 Center     Atomic      Atomic             Coordinates (Angstroms)
 Number     Number       Type             X           Y           Z
 ---------------------------------------------------------------------
      1          6           0       -3.974364   -0.470348    0.283932
      2          6           0       -2.565310   -0.249025   -0.000414
      3          6           0       -1.401699   -0.052163   -0.231406
      4          6           0        0.015996    0.147666   -0.521242
      5          6           0        0.472389    1.487637   -0.094954
      6          7           0        0.831891    2.539687    0.216077
      7          7           0        0.820957   -0.882261    0.172930
      8          8           0        2.093083   -0.904381   -0.479971
      9          6           0        3.116908   -0.712836    0.488519
     10          1           0       -4.101164   -1.107466    1.165410
     11          1           0       -4.479178   -0.954664   -0.558386
     12          1           0       -4.483908    0.478496    0.481695
     13          1           0        0.185317    0.088536   -1.608557
     14          1           0        0.396671   -1.778614   -0.066371
     15          1           0        4.053878   -0.721857   -0.074646
     16          1           0        3.124904   -1.523624    1.226775
     17          1           0        3.005369    0.246679    1.004194
 ---------------------------------------------------------------------

 SCF Done:  E(RB3LYP) =  -418.051957667     A.U. after    1 cycles

 The electronic state is 1-A.
 Alpha  occ. eigenvalues --  -19.17722 -14.38938 -14.33125 -10.28611 -10.22575
 Alpha  occ. eigenvalues --  -10.22247 -10.22041 -10.20485 -10.19548  -1.07848
 Alpha  occ. eigenvalues --   -0.91012  -0.87886  -0.79723  -0.75594  -0.69957
 Alpha  occ. eigenvalues --   -0.66277  -0.56552  -0.51697  -0.51233  -0.49411
 Alpha  occ. eigenvalues --   -0.46773  -0.44449  -0.44360  -0.43780  -0.43059
 Alpha  occ. eigenvalues --   -0.37389  -0.36063  -0.33740  -0.33232  -0.28777
 Alpha  occ. eigenvalues --   -0.27854  -0.27374  -0.26395
 Alpha virt. eigenvalues --    0.00267   0.02386   0.04278   0.06137   0.09731
 Alpha virt. eigenvalues --    0.09906   0.10351   0.12630   0.12989   0.15561
 Alpha virt. eigenvalues --    0.15956   0.16662   0.17447   0.19237   0.19409

 Mulliken charges:
               1
     1  C   -0.501572
     2  C    0.122170
     3  C    0.040515
     4  C   -0.256881
     5  C    0.340064
     6  N   -0.331606
     7  N   -0.205778
     8  O   -0.251396
     9  C   -0.215480
    10  H    0.160054
    11  H    0.156730
    12  H    0.164091
    13  H    0.149690
    14  H    0.249449
    15  H    0.128694
    16  H    0.115089
    17  H    0.136166
 Sum of Mulliken charges =  -0.00000

 Dipole moment (field-independent basis, Debye):
    X=             -2.2961    Y=             -3.5278    Z=             -0.5512  Tot=              4.2452
 Quadrupole moment (field-independent basis, Debye-Ang):
   XX=            -38.7721   YY=            -59.9960   ZZ=            -52.4135
   XY=             -1.6671   XZ=              0.3172   YZ=             -1.8022

  Exact polarizability: 114.488   7.131  71.711  -2.101   0.635  54.233
 Approx polarizability: 149.993  15.492 109.615  -7.303   4.422  83.613

                      1                      2                      3
                      A                      A                      A
 Frequencies --     19.6937                66.5609                68.4390
 Red. masses --      1.0226                 3.4239                 3.2288
 Frc consts  --      0.0002                 0.0089                 0.0089
 IR Inten    --      0.0744                 0.2053                 4.1529

                      4                      5                      6
                      A                      A                      A
 Frequencies --     85.6284               111.6883               191.2060
 Red. masses --      4.1287                 3.6227                 1.9048
 Frc consts  --      0.0178                 0.0266                 0.0410
 IR Inten    --      2.9615                 1.4796                 0.3354

                      7                      8                      9
                      A                      A                      A
 Frequencies --    202.3896               274.9996               291.0172
 Red. masses --      2.1085                 4.7089                 4.2574
 Frc consts  --      0.0509                 0.2098                 0.2124
 IR Inten    --      0.6093                 8.6534                 9.0234

                     10                     11                     12
                      A                      A                      A
 Frequencies --    359.8703               392.1062               422.8917
 Red. masses --      6.1625                 5.4796                 3.8642
 Frc consts  --      0.4702                 0.4964                 0.4072
 IR Inten    --      6.7169                 0.1289                 7.3075

                     13                     14                     15
                      A                      A                      A
 Frequencies --    505.5210               542.6312               599.9757
 Red. masses --      4.4566                 9.0211                 6.4717
 Frc consts  --      0.6710                 1.5650                 1.3726
 IR Inten    --      7.7767                 1.7641                 1.9184

                     16                     17                     18
                      A                      A                      A
 Frequencies --    825.1388               879.6047               903.3518
 Red. masses --      4.8094                 2.5539                 6.0894
 Frc consts  --      1.9293                 1.1642                 2.9278
 IR Inten    --     15.1474                38.3234                 9.9609

                     19                     20                     21
                      A                      A                      A
 Frequencies --    979.2639              1050.7394              1054.2633
 Red. masses --      4.2210                 1.4209                 1.4127
 Frc consts  --      2.3849                 0.9243                 0.9252
 IR Inten    --     73.1411                 1.2387                 0.9026

                     22                     23                     24
                      A                      A                      A
 Frequencies --   1079.1604              1142.0892              1178.3069
 Red. masses --      7.0802                 1.9855                 1.6002
 Frc consts  --      4.8581                 1.5259                 1.3090
 IR Inten    --     35.6192                14.7803                 1.1483

                     25                     26                     27
                      A                      A                      A
 Frequencies --   1187.5836              1217.4540              1298.2171
 Red. masses --      1.5824                 1.5219                 1.5685
 Frc consts  --      1.3149                 1.3291                 1.5575
 IR Inten    --      2.9787                 1.5480                31.5634

                     28                     29                     30
                      A                      A                      A
 Frequencies --   1339.6204              1413.1562              1458.8418
 Red. masses --      1.3390                 1.2480                 1.1464
 Frc consts  --      1.4158                 1.4685                 1.4375
 IR Inten    --      7.3135                 4.3817                 2.6152

                     31                     32                     33
                      A                      A                      A
 Frequencies --   1470.5404              1474.1942              1475.3146
 Red. masses --      1.1436                 1.0403                 1.0394
 Frc consts  --      1.4570                 1.3321                 1.3329
 IR Inten    --     16.0827                 6.9138                 5.6402

                     34                     35                     36
                      A                      A                      A
 Frequencies --   1477.3550              1508.5869              2369.2931
 Red. masses --      1.0684                 1.0579                12.6354
 Frc consts  --      1.3739                 1.4186                41.7904
 IR Inten    --      9.3535                12.3363                 0.5017

                     37                     38                     39
                      A                      A                      A
 Frequencies --   2382.1009              2975.6901              3018.0838
 Red. masses --     11.9117                 1.0795                 1.0315
 Frc consts  --     39.8238                 5.6321                 5.5359
 IR Inten    --     32.4693                 9.4175                51.9255

                     40                     41                     42
                      A                      A                      A
 Frequencies --   3034.3798              3089.9395              3099.2352
 Red. masses --      1.0346                 1.1043                 1.1006
 Frc consts  --      5.6128                 6.2119                 6.2285
 IR Inten    --     17.2411                31.5868                 6.2210

                     43                     44                     45
                      A                      A                      A
 Frequencies --   3100.1509              3125.1651              3456.7871
 Red. masses --      1.1002                 1.1033                 1.0756
 Frc consts  --      6.2300                 6.3487                 7.5724
 IR Inten    --      4.7957                19.8881                 1.9318

 - Thermochemistry -
 -------------------
 Temperature   298.150 Kelvin.  Pressure   1.00000 Atm.
 Atom     1 has atomic number  6 and mass  12.00000

 Molecular mass:   124.06366 amu.
 Principal axes and moments of inertia in atomic units:
                           1         2         3
     Eigenvalues --   637.708852190.013292687.67335
           X            0.99999  -0.00195   0.00305
           Y            0.00199   0.99988  -0.01557
           Z           -0.00302   0.01558   0.99987
 This molecule is an asymmetric top.
 Rotational symmetry number  1.
 Warning -- assumption of classical behavior for rotation
           may cause significant error
 Rotational temperatures (Kelvin)      0.13582     0.03955     0.03223
 Rotational constants (GHZ):           2.83004     0.82408     0.67149
 Zero-point vibrational energy     348102.7 (Joules/Mol)
                                   83.19854 (Kcal/Mol)
 Warning -- explicit consideration of  15 degrees of freedom as
           vibrations may cause significant error
 Vibrational temperatures:     28.33    95.77    98.47   123.20   160.69
          (Kelvin)            275.10   291.19   395.66   418.71   517.77
                              564.15   608.45   727.33   780.73   863.23
                             1187.19  1265.55  1299.72  1408.94  1511.78
                             1516.85  1552.67  1643.21  1695.32  1708.67
                             1751.64  1867.84  1927.41  2033.22  2098.95
                             2115.78  2121.04  2122.65  2125.58  2170.52
                             3408.88  3427.31  4281.35  4342.35  4365.80
                             4445.73  4459.11  4460.43  4496.42  4973.55

 Zero-point correction=                           0.132585 (Hartree/Particle)
 Thermal correction to Energy=                    0.143379
 Thermal correction to Enthalpy=                  0.144323
 Thermal correction to Gibbs Free Energy=         0.094285
 Sum of electronic and zero-point Energies=           -417.919372
 Sum of electronic and thermal Energies=              -417.908579
 Sum of electronic and thermal Enthalpies=            -417.907634
 Sum of electronic and thermal Free Energies=         -417.957673

                     E (Thermal)             CV                S
                      KCal/Mol        Cal/Mol-Kelvin    Cal/Mol-Kelvin
 Total                   89.972             35.497            105.315
 Electronic               0.000              0.000              0.000
 Translational            0.889              2.981             40.361
 Rotational               0.889              2.981             29.708
 Vibrational             88.194             29.535             35.246
 Vibration     1          0.593              1.986              6.665
 Vibration     2          0.598              1.970              4.253
 Vibration     3          0.598              1.969              4.198
 Vibration     4          0.601              1.959              3.758
 Vibration     5          0.607              1.940              3.239
 Vibration     6          0.634              1.852              2.216
 Vibration     7          0.639              1.836              2.111
 Vibration     8          0.677              1.720              1.565
 Vibration     9          0.687              1.690              1.468
 Vibration    10          0.734              1.555              1.123
 Vibration    11          0.760              1.487              0.992
 Vibration    12          0.785              1.420              0.882
 Vibration    13          0.861              1.238              0.644
 Vibration    14          0.898              1.156              0.560
 Vibration    15          0.958              1.032              0.450

 Optimization completed.
    -- Stationary point found.
 Normal termination of Gaussian 16 at Sun Jul  3 22:35:19 2022.
