 Gaussian 16, Revision A.03,
 Gaussian 16:  ES64L-G16RevA.03 25-Dec-2016

 -----------------------------
 # opt freq b3lyp/6-31g(2df,p)
 -----------------------------

 -------------------
 Title Card Required
 -------------------
 Symbolic Z-matrix:
 Charge =  0 Multiplicity = 1

 SCF Done:  E(RB3LYP) =  -424.415833066     A.U. after   13 cycles
 SCF Done:  E(RB3LYP) =  -424.422094531     A.U. after   11 cycles
 SCF Done:  E(RB3LYP) =  -424.423131545     A.U. after   11 cycles
 SCF Done:  E(RB3LYP) =  -424.423621482     A.U. after   11 cycles
 SCF Done:  E(RB3LYP) =  -424.423875484     A.U. after   10 cycles
 SCF Done:  E(RB3LYP) =  -424.423935633     A.U. after   10 cycles
 SCF Done:  E(RB3LYP) =  -424.423992121     A.U. after   10 cycles
 SCF Done:  E(RB3LYP) =  -424.423993568     A.U. after    7 cycles
 Optimization completed.
    -- Stationary point found.
 Normal termination of Gaussian 16 at Mon Jul  4 00:12:45 2022.

 ----------------------------------------------------------------------
 #N Geom=AllCheck Guess=TCheck SCRF=Check GenChk RB3LYP/6-31G(2df,p) Fr
 eq
 ----------------------------------------------------------------------

 Structure from the checkpoint file:  "CdC1COCpCpCpCpO1.chk"
 -------------------
 Title Card Required
 -------------------
 Charge =  0 Multiplicity = 1

                         Standard orientation:
 ---------------------------------------------------------------------
 Center     Atomic      Atomic             Coordinates (Angstroms)
 Number     Number       Type             X           Y           Z
 ---------------------------------------------------------------------
      1          6           0        3.034347    0.889988   -0.199170
      2          6           0        1.889086    0.244419   -0.016013
      3          6           0        1.638271   -1.243948    0.104252
      4          8           0        0.234902   -1.354102   -0.081775
      5          6           0       -0.313284   -0.142025    0.373422
      6          6           0       -1.616774    0.174510   -0.344865
      7          6           0       -2.636343   -0.947542   -0.110439
      8          6           0       -2.157250    1.539942    0.097191
      9          8           0        0.676614    0.859730    0.100566
     10          1           0        3.957354    0.336437   -0.309192
     11          1           0        3.073259    1.970228   -0.245072
     12          1           0        1.937196   -1.619027    1.096064
     13          1           0        2.145377   -1.834535   -0.661726
     14          1           0       -0.462482   -0.174746    1.469152
     15          1           0       -1.368864    0.215059   -1.412813
     16          1           0       -2.887852   -1.034079    0.953417
     17          1           0       -2.248665   -1.911874   -0.446651
     18          1           0       -3.563403   -0.738706   -0.652709
     19          1           0       -2.397367    1.540558    1.167157
     20          1           0       -3.075538    1.780044   -0.447062
     21          1           0       -1.429463    2.333549   -0.087167
 ---------------------------------------------------------------------

 SCF Done:  E(RB3LYP) =  -424.423993568     A.U. after    1 cycles

 The electronic state is 1-A.
 Alpha  occ. eigenvalues --  -19.16879 -19.15638 -10.28355 -10.24337 -10.23923
 Alpha  occ. eigenvalues --  -10.19201 -10.17479 -10.17452 -10.16025  -1.10708
 Alpha  occ. eigenvalues --   -1.01284  -0.81986  -0.76794  -0.69654  -0.68292
 Alpha  occ. eigenvalues --   -0.65095  -0.57923  -0.57336  -0.52323  -0.49056
 Alpha  occ. eigenvalues --   -0.47410  -0.45108  -0.43050  -0.42609  -0.41227
 Alpha  occ. eigenvalues --   -0.39488  -0.38275  -0.37684  -0.35688  -0.34907
 Alpha  occ. eigenvalues --   -0.34270  -0.33377  -0.32550  -0.27064  -0.22158
 Alpha virt. eigenvalues --    0.03479   0.09266   0.10411   0.10837   0.12392
 Alpha virt. eigenvalues --    0.13222   0.14902   0.15404   0.16516   0.16803
 Alpha virt. eigenvalues --    0.17334   0.17618   0.18919   0.19637   0.21216

 Mulliken charges:
               1
     1  C   -0.467419
     2  C    0.402030
     3  C   -0.194556
     4  O   -0.258197
     5  C    0.221845
     6  C    0.002778
     7  C   -0.397886
     8  C   -0.399079
     9  O   -0.260653
    10  H    0.106440
    11  H    0.111254
    12  H    0.115177
    13  H    0.134710
    14  H    0.070447
    15  H    0.088441
    16  H    0.112638
    17  H    0.134987
    18  H    0.114192
    19  H    0.113000
    20  H    0.114519
    21  H    0.135334
 Sum of Mulliken charges =  -0.00000

 Dipole moment (field-independent basis, Debye):
    X=             -0.2293    Y=             -0.6041    Z=              0.4027  Tot=              0.7613
 Quadrupole moment (field-independent basis, Debye-Ang):
   XX=            -51.5326   YY=            -56.3009   ZZ=            -54.8245
   XY=             -3.2366   XZ=              0.0466   YZ=             -0.5635

  Exact polarizability: 107.243   4.159  78.683  -3.590  -1.488  61.289
 Approx polarizability: 135.238   7.398 110.677  -5.912  -1.678  94.686

                      1                      2                      3
                      A                      A                      A
 Frequencies --     63.3821                90.1821               145.5441
 Red. masses --      3.1018                 3.7806                 2.6315
 Frc consts  --      0.0073                 0.0181                 0.0328
 IR Inten    --      0.0199                 0.9253                 2.5095

                      4                      5                      6
                      A                      A                      A
 Frequencies --    175.3246               215.6881               235.3878
 Red. masses --      3.8412                 1.0294                 1.0924
 Frc consts  --      0.0696                 0.0282                 0.0357
 IR Inten    --      1.0095                 0.0059                 0.4758

                      7                      8                      9
                      A                      A                      A
 Frequencies --    305.4987               341.2597               381.7434
 Red. masses --      2.5595                 2.5949                 2.3408
 Frc consts  --      0.1407                 0.1781                 0.2010
 IR Inten    --      1.8087                 0.8791                 2.5468

                     10                     11                     12
                      A                      A                      A
 Frequencies --    459.1997               475.2328               492.4033
 Red. masses --      3.3009                 2.8832                 2.4893
 Frc consts  --      0.4101                 0.3836                 0.3556
 IR Inten    --      5.1283                 2.0945                 0.8010

                     13                     14                     15
                      A                      A                      A
 Frequencies --    669.6149               722.2099               747.5106
 Red. masses --      5.8543                 1.1223                 6.1699
 Frc consts  --      1.5466                 0.3449                 2.0313
 IR Inten    --      0.4570                 1.6549                 2.3241

                     16                     17                     18
                      A                      A                      A
 Frequencies --    824.2543               856.5730               884.4086
 Red. masses --      1.3581                 2.1943                 2.8479
 Frc consts  --      0.5436                 0.9486                 1.3125
 IR Inten    --     48.7014                 8.9565                 9.6958

                     19                     20                     21
                      A                      A                      A
 Frequencies --    913.0065               933.1087               954.0525
 Red. masses --      2.1739                 1.2073                 1.8280
 Frc consts  --      1.0677                 0.6193                 0.9803
 IR Inten    --      7.4231                 0.6197                16.3190

                     22                     23                     24
                      A                      A                      A
 Frequencies --    972.8501              1019.4289              1033.6615
 Red. masses --      1.6073                 3.7820                 2.4498
 Frc consts  --      0.8962                 2.3157                 1.5422
 IR Inten    --      7.5295               108.5564                 7.3762

                     25                     26                     27
                      A                      A                      A
 Frequencies --   1059.4378              1130.0497              1136.6593
 Red. masses --      2.8738                 4.2462                 2.2513
 Frc consts  --      1.9004                 3.1948                 1.7137
 IR Inten    --     26.5876               199.3757                13.0024

                     28                     29                     30
                      A                      A                      A
 Frequencies --   1183.5946              1204.2439              1221.7878
 Red. masses --      2.0717                 1.6349                 1.2328
 Frc consts  --      1.7099                 1.3969                 1.0843
 IR Inten    --     13.0457                 0.1340                 3.9961

                     31                     32                     33
                      A                      A                      A
 Frequencies --   1273.3872              1322.0626              1337.7411
 Red. masses --      2.4609                 1.3963                 1.3546
 Frc consts  --      2.3510                 1.4379                 1.4283
 IR Inten    --    164.8643                13.2273                10.5718

                     34                     35                     36
                      A                      A                      A
 Frequencies --   1345.1700              1374.1484              1399.2408
 Red. masses --      1.4043                 1.3605                 1.2584
 Frc consts  --      1.4971                 1.5136                 1.4516
 IR Inten    --     37.3677                 9.1148                 1.6262

                     37                     38                     39
                      A                      A                      A
 Frequencies --   1414.2642              1433.2678              1442.3800
 Red. masses --      1.3071                 1.2781                 1.3072
 Frc consts  --      1.5403                 1.5470                 1.6024
 IR Inten    --      2.4275                31.9030                32.1536

                     40                     41                     42
                      A                      A                      A
 Frequencies --   1490.0937              1492.1553              1503.1244
 Red. masses --      1.0501                 1.0429                 1.0515
 Frc consts  --      1.3738                 1.3681                 1.3998
 IR Inten    --      2.2059                 0.2567                 6.5172

                     43                     44                     45
                      A                      A                      A
 Frequencies --   1507.7046              1516.5447              1753.8604
 Red. masses --      1.0947                 1.0829                 7.2243
 Frc consts  --      1.4661                 1.4674                13.0930
 IR Inten    --      0.9576                17.1660               135.6192

                     46                     47                     48
                      A                      A                      A
 Frequencies --   2927.8430              2978.9821              3030.7866
 Red. masses --      1.0818                 1.0714                 1.0385
 Frc consts  --      5.4636                 5.6019                 5.6203
 IR Inten    --     70.3125                50.3733                14.8097

                     49                     50                     51
                      A                      A                      A
 Frequencies --   3031.7893              3039.5870              3095.3308
 Red. masses --      1.0588                 1.0620                 1.0987
 Frc consts  --      5.7342                 5.7808                 6.2021
 IR Inten    --      5.4373                44.2370                 1.6475

                     52                     53                     54
                      A                      A                      A
 Frequencies --   3101.3849              3102.6902              3126.1211
 Red. masses --      1.0982                 1.0921                 1.1007
 Frc consts  --      6.2238                 6.1945                 6.3376
 IR Inten    --     55.3153                18.2005                14.9040

                     55                     56                     57
                      A                      A                      A
 Frequencies --   3127.0354              3176.8187              3265.7975
 Red. masses --      1.1008                 1.0604                 1.1165
 Frc consts  --      6.3421                 6.3055                 7.0159
 IR Inten    --     21.4345                 0.0093                 3.4584

 - Thermochemistry -
 -------------------
 Temperature   298.150 Kelvin.  Pressure   1.00000 Atm.
 Atom     1 has atomic number  6 and mass  12.00000

 Molecular mass:   128.08373 amu.
 Principal axes and moments of inertia in atomic units:
                           1         2         3
     Eigenvalues --   534.360211635.902662074.85985
           X            0.99997  -0.00814  -0.00172
           Y            0.00813   0.99996  -0.00445
           Z            0.00176   0.00443   0.99999
 This molecule is an asymmetric top.
 Rotational symmetry number  1.
 Warning -- assumption of classical behavior for rotation
           may cause significant error
 Rotational temperatures (Kelvin)      0.16209     0.05295     0.04174
 Rotational constants (GHZ):           3.37739     1.10321     0.86981
 Zero-point vibrational energy     475256.1 (Joules/Mol)
                                  113.58893 (Kcal/Mol)
 Warning -- explicit consideration of  12 degrees of freedom as
           vibrations may cause significant error
 Vibrational temperatures:     91.19   129.75   209.41   252.25   310.33
          (Kelvin)            338.67   439.54   491.00   549.24   660.69
                              683.75   708.46   963.43  1039.10  1075.50
                             1185.92  1232.42  1272.47  1313.61  1342.54
                             1372.67  1399.71  1466.73  1487.21  1524.29
                             1625.89  1635.40  1702.93  1732.64  1757.88
                             1832.12  1902.15  1924.71  1935.40  1977.09
                             2013.20  2034.81  2062.15  2075.26  2143.91
                             2146.88  2162.66  2169.25  2181.97  2523.41
                             4212.51  4286.09  4360.63  4362.07  4373.29
                             4453.49  4462.20  4464.08  4497.79  4499.11
                             4570.73  4698.75

 Zero-point correction=                           0.181015 (Hartree/Particle)
 Thermal correction to Energy=                    0.190538
 Thermal correction to Enthalpy=                  0.191483
 Thermal correction to Gibbs Free Energy=         0.146461
 Sum of electronic and zero-point Energies=           -424.242978
 Sum of electronic and thermal Energies=              -424.233455
 Sum of electronic and thermal Enthalpies=            -424.232511
 Sum of electronic and thermal Free Energies=         -424.277533

                     E (Thermal)             CV                S
                      KCal/Mol        Cal/Mol-Kelvin    Cal/Mol-Kelvin
 Total                  119.565             35.439             94.757
 Electronic               0.000              0.000              0.000
 Translational            0.889              2.981             40.456
 Rotational               0.889              2.981             28.985
 Vibrational            117.787             29.478             25.316
 Vibration     1          0.597              1.972              4.349
 Vibration     2          0.602              1.956              3.656
 Vibration     3          0.617              1.907              2.730
 Vibration     4          0.627              1.873              2.378
 Vibration     5          0.645              1.817              1.995
 Vibration     6          0.655              1.787              1.837
 Vibration     7          0.696              1.663              1.387
 Vibration     8          0.721              1.593              1.206
 Vibration     9          0.751              1.509              1.032
 Vibration    10          0.817              1.341              0.768
 Vibration    11          0.832              1.305              0.723
 Vibration    12          0.848              1.267              0.677

                           ! Non-Optimized Parameters !
 Normal termination of Gaussian 16 at Mon Jul  4 00:43:19 2022.
