 Gaussian 16, Revision A.03,
 Gaussian 16:  ES64L-G16RevA.03 25-Dec-2016

 -----------------------------
 # opt freq b3lyp/6-31g(2df,p)
 -----------------------------

 -------------------
 Title Card Required
 -------------------
 Symbolic Z-matrix:
 Charge =  0 Multiplicity = 1

 SCF Done:  E(RB3LYP) =  -350.400044828     A.U. after   13 cycles
 SCF Done:  E(RB3LYP) =  -350.402140016     A.U. after   11 cycles
 SCF Done:  E(RB3LYP) =  -350.402431807     A.U. after   10 cycles
 SCF Done:  E(RB3LYP) =  -350.402576350     A.U. after   10 cycles
 SCF Done:  E(RB3LYP) =  -350.402783774     A.U. after   10 cycles
 SCF Done:  E(RB3LYP) =  -350.402762618     A.U. after   13 cycles
 SCF Done:  E(RB3LYP) =  -350.403980669     A.U. after   11 cycles
 SCF Done:  E(RB3LYP) =  -350.404985095     A.U. after   11 cycles
 SCF Done:  E(RB3LYP) =  -350.404826199     A.U. after   11 cycles
 SCF Done:  E(RB3LYP) =  -350.406531729     A.U. after   11 cycles
 SCF Done:  E(RB3LYP) =  -350.407158125     A.U. after   10 cycles
 SCF Done:  E(RB3LYP) =  -350.407170965     A.U. after   11 cycles
 SCF Done:  E(RB3LYP) =  -350.407271010     A.U. after   10 cycles
 SCF Done:  E(RB3LYP) =  -350.407292216     A.U. after    9 cycles
 SCF Done:  E(RB3LYP) =  -350.407304769     A.U. after   10 cycles
 SCF Done:  E(RB3LYP) =  -350.407309366     A.U. after    8 cycles
 SCF Done:  E(RB3LYP) =  -350.407311045     A.U. after    8 cycles
 SCF Done:  E(RB3LYP) =  -350.407311083     A.U. after    6 cycles
 Optimization completed.
    -- Stationary point found.
 Normal termination of Gaussian 16 at Sun Jul  3 11:21:55 2022.

 ----------------------------------------------------------------------
 #N Geom=AllCheck Guess=TCheck SCRF=Check GenChk RB3LYP/6-31G(2df,p) Fr
 eq
 ----------------------------------------------------------------------

 Structure from the checkpoint file:  "CdCCCpCppOpCC.chk"
 -------------------
 Title Card Required
 -------------------
 Charge =  0 Multiplicity = 1

                         Standard orientation:
 ---------------------------------------------------------------------
 Center     Atomic      Atomic             Coordinates (Angstroms)
 Number     Number       Type             X           Y           Z
 ---------------------------------------------------------------------
      1          6           0       -3.231079    0.235821   -0.249835
      2          6           0       -2.157826   -0.436534    0.157360
      3          6           0       -0.889766   -0.619079   -0.624840
      4          6           0        0.370112   -0.001315    0.047554
      5          6           0        0.273953    1.529587    0.071206
      6          8           0        0.498358   -0.506911    1.383865
      7          6           0        1.622681   -0.496490   -0.697779
      8          6           0        2.953320    0.030769   -0.153820
      9          1           0       -4.121654    0.320776    0.364318
     10          1           0       -3.266549    0.720434   -1.221918
     11          1           0       -2.175607   -0.917772    1.134592
     12          1           0       -1.005214   -0.196106   -1.629645
     13          1           0       -0.699067   -1.693917   -0.743035
     14          1           0       -0.666270    1.849004    0.533440
     15          1           0        0.297835    1.943114   -0.942471
     16          1           0        1.102248    1.960236    0.638855
     17          1           0       -0.129406   -0.035700    1.940525
     18          1           0        1.518633   -0.240501   -1.759217
     19          1           0        1.620462   -1.591364   -0.637966
     20          1           0        3.068288    1.106576   -0.318553
     21          1           0        3.793154   -0.466561   -0.648733
     22          1           0        3.027919   -0.159488    0.919823
 ---------------------------------------------------------------------

 SCF Done:  E(RB3LYP) =  -350.407311083     A.U. after    1 cycles

 The electronic state is 1-A.
 Alpha  occ. eigenvalues --  -19.12982 -10.23512 -10.18651 -10.17915 -10.17685
 Alpha  occ. eigenvalues --  -10.17424 -10.17151 -10.16520  -1.01309  -0.80364
 Alpha  occ. eigenvalues --   -0.77035  -0.71950  -0.68526  -0.63031  -0.56000
 Alpha  occ. eigenvalues --   -0.55008  -0.48751  -0.46936  -0.45522  -0.43115
 Alpha  occ. eigenvalues --   -0.41831  -0.40939  -0.39144  -0.38132  -0.36117
 Alpha  occ. eigenvalues --   -0.35680  -0.33824  -0.33723  -0.33035  -0.30480
 Alpha  occ. eigenvalues --   -0.27351  -0.24914
 Alpha virt. eigenvalues --    0.01433   0.07835   0.10708   0.11851   0.12394
 Alpha virt. eigenvalues --    0.13712   0.15134   0.15504   0.16257   0.17864
 Alpha virt. eigenvalues --    0.17965   0.18668   0.19181   0.21488   0.21566

 Mulliken charges:
               1
     1  C   -0.318331
     2  C    0.006147
     3  C   -0.244135
     4  C    0.350733
     5  C   -0.435347
     6  O   -0.465202
     7  C   -0.171339
     8  C   -0.397679
     9  H    0.110738
    10  H    0.103372
    11  H    0.089251
    12  H    0.093166
    13  H    0.105378
    14  H    0.114624
    15  H    0.113966
    16  H    0.123148
    17  H    0.278542
    18  H    0.089892
    19  H    0.100946
    20  H    0.111112
    21  H    0.107894
    22  H    0.133124
 Sum of Mulliken charges =   0.00000

 Dipole moment (field-independent basis, Debye):
    X=             -0.6423    Y=              0.8547    Z=             -0.3174  Tot=              1.1152
 Quadrupole moment (field-independent basis, Debye-Ang):
   XX=            -51.9920   YY=            -52.2820   ZZ=            -49.5165
   XY=             -0.2341   XZ=             -2.5392   YZ=              0.8940

  Exact polarizability: 101.933  -6.747  69.469  -0.456  -2.402  71.109
 Approx polarizability: 126.776 -13.741 104.397   2.488  -7.021 108.840

                      1                      2                      3
                      A                      A                      A
 Frequencies --     62.8300                88.3132               111.2443
 Red. masses --      2.4837                 2.6132                 2.0431
 Frc consts  --      0.0058                 0.0120                 0.0149
 IR Inten    --      0.7164                 0.3580                 1.5621

                      4                      5                      6
                      A                      A                      A
 Frequencies --    183.4865               215.6480               263.3681
 Red. masses --      2.3050                 1.0839                 1.4152
 Frc consts  --      0.0457                 0.0297                 0.0578
 IR Inten    --      3.4978                 0.1748                13.7139

                      7                      8                      9
                      A                      A                      A
 Frequencies --    280.3771               308.9847               324.9266
 Red. masses --      1.5885                 1.3035                 2.3217
 Frc consts  --      0.0736                 0.0733                 0.1444
 IR Inten    --     31.4566                55.3277                 2.1351

                     10                     11                     12
                      A                      A                      A
 Frequencies --    358.0571               390.3478               418.0154
 Red. masses --      2.7314                 2.2429                 2.5465
 Frc consts  --      0.2063                 0.2014                 0.2622
 IR Inten    --      6.6180                 0.9952                 1.8623

                     13                     14                     15
                      A                      A                      A
 Frequencies --    455.0013               528.4961               660.9615
 Red. masses --      2.2632                 1.8842                 2.0370
 Frc consts  --      0.2761                 0.3101                 0.5243
 IR Inten    --     10.2920                 1.8998                 7.0383

                     16                     17                     18
                      A                      A                      A
 Frequencies --    777.7708               786.2566               876.0174
 Red. masses --      1.8199                 1.6150                 1.7670
 Frc consts  --      0.6486                 0.5882                 0.7989
 IR Inten    --      1.9935                 5.2262                 2.2869

                     19                     20                     21
                      A                      A                      A
 Frequencies --    891.8449               944.8965               952.6242
 Red. masses --      2.0110                 1.8694                 1.4978
 Frc consts  --      0.9424                 0.9834                 0.8009
 IR Inten    --      4.8426                24.8867                29.4860

                     22                     23                     24
                      A                      A                      A
 Frequencies --    957.6888              1004.8927              1014.4308
 Red. masses --      1.7458                 1.5880                 1.6362
 Frc consts  --      0.9434                 0.9448                 0.9920
 IR Inten    --      1.2114                13.4630                 8.6538

                     25                     26                     27
                      A                      A                      A
 Frequencies --   1054.8290              1069.0219              1109.9551
 Red. masses --      1.1068                 2.0711                 1.5465
 Frc consts  --      0.7255                 1.3945                 1.1226
 IR Inten    --      8.7522                17.1680                 9.7151

                     28                     29                     30
                      A                      A                      A
 Frequencies --   1132.0526              1190.7501              1208.3016
 Red. masses --      1.6439                 2.3425                 2.3338
 Frc consts  --      1.2412                 1.9569                 2.0075
 IR Inten    --     24.2365                40.5833                29.2997

                     31                     32                     33
                      A                      A                      A
 Frequencies --   1263.2860              1296.1709              1315.4520
 Red. masses --      1.2694                 1.3675                 1.2739
 Frc consts  --      1.1936                 1.3536                 1.2988
 IR Inten    --      0.2134                12.3338                 0.3679

                     34                     35                     36
                      A                      A                      A
 Frequencies --   1338.8783              1369.6425              1392.9546
 Red. masses --      1.3269                 1.3138                 1.7156
 Frc consts  --      1.4014                 1.4521                 1.9613
 IR Inten    --      3.0286                 4.1940                18.9223

                     37                     38                     39
                      A                      A                      A
 Frequencies --   1406.4901              1409.9310              1451.2878
 Red. masses --      1.2256                 1.3901                 1.1377
 Frc consts  --      1.4285                 1.6281                 1.4119
 IR Inten    --      5.1193                20.8967                 0.8386

                     40                     41                     42
                      A                      A                      A
 Frequencies --   1468.7185              1478.2000              1491.9707
 Red. masses --      1.1210                 1.0962                 1.0601
 Frc consts  --      1.4247                 1.4113                 1.3904
 IR Inten    --      1.8720                 2.0867                 9.4437

                     43                     44                     45
                      A                      A                      A
 Frequencies --   1498.4047              1505.2825              1513.4449
 Red. masses --      1.0569                 1.0478                 1.0580
 Frc consts  --      1.3981                 1.3989                 1.4277
 IR Inten    --      1.6320                 4.6193                 1.8127

                     46                     47                     48
                      A                      A                      A
 Frequencies --   1712.7175              3014.7139              3027.4302
 Red. masses --      4.8057                 1.0601                 1.0572
 Frc consts  --      8.3057                 5.6765                 5.7088
 IR Inten    --      6.8028                12.8485                37.9346

                     49                     50                     51
                      A                      A                      A
 Frequencies --   3035.5918              3042.1361              3061.1804
 Red. masses --      1.0386                 1.0364                 1.1014
 Frc consts  --      5.6389                 5.6512                 6.0808
 IR Inten    --      6.3196                25.7090                 0.6682

                     52                     53                     54
                      A                      A                      A
 Frequencies --   3069.4934              3099.1185              3103.4482
 Red. masses --      1.1004                 1.1005                 1.1011
 Frc consts  --      6.1087                 6.2278                 6.2483
 IR Inten    --     28.1516                25.1367                37.9734

                     55                     56                     57
                      A                      A                      A
 Frequencies --   3123.0361              3125.6411              3131.8690
 Red. masses --      1.1002                 1.1013                 1.0717
 Frc consts  --      6.3226                 6.3390                 6.1934
 IR Inten    --     23.2340                18.1734                21.2200

                     58                     59                     60
                      A                      A                      A
 Frequencies --   3141.6890              3220.3885              3819.2038
 Red. masses --      1.0776                 1.1143                 1.0661
 Frc consts  --      6.2665                 6.8087                 9.1622
 IR Inten    --      5.1824                16.8650                12.3475

 - Thermochemistry -
 -------------------
 Temperature   298.150 Kelvin.  Pressure   1.00000 Atm.
 Atom     1 has atomic number  6 and mass  12.00000

 Molecular mass:   114.10447 amu.
 Principal axes and moments of inertia in atomic units:
                           1         2         3
     Eigenvalues --   432.986231664.359431679.29301
           X            0.99998   0.00081  -0.00697
           Y            0.00151   0.94527   0.32630
           Z            0.00685  -0.32630   0.94524
 This molecule is an asymmetric top.
 Rotational symmetry number  1.
 Rotational temperatures (Kelvin)      0.20004     0.05204     0.05158
 Rotational constants (GHZ):           4.16813     1.08435     1.07470
 Zero-point vibrational energy     517679.0 (Joules/Mol)
                                  123.72824 (Kcal/Mol)
 Warning -- explicit consideration of  14 degrees of freedom as
           vibrations may cause significant error
 Vibrational temperatures:     90.40   127.06   160.06   264.00   310.27
          (Kelvin)            378.93   403.40   444.56   467.50   515.16
                              561.62   601.43   654.65   760.39   950.98
                             1119.04  1131.25  1260.39  1283.17  1359.50
                             1370.61  1377.90  1445.82  1459.54  1517.66
                             1538.08  1596.98  1628.77  1713.22  1738.48
                             1817.59  1864.90  1892.64  1926.35  1970.61
                             2004.15  2023.63  2028.58  2088.08  2113.16
                             2126.80  2146.61  2155.87  2165.77  2177.51
                             2464.22  4337.50  4355.80  4367.54  4376.96
                             4404.36  4416.32  4458.94  4465.17  4493.35
                             4497.10  4506.06  4520.19  4633.42  5494.98

 Zero-point correction=                           0.197174 (Hartree/Particle)
 Thermal correction to Energy=                    0.207414
 Thermal correction to Enthalpy=                  0.208359
 Thermal correction to Gibbs Free Energy=         0.162388
 Sum of electronic and zero-point Energies=           -350.210138
 Sum of electronic and thermal Energies=              -350.199897
 Sum of electronic and thermal Enthalpies=            -350.198952
 Sum of electronic and thermal Free Energies=         -350.244923

                     E (Thermal)             CV                S
                      KCal/Mol        Cal/Mol-Kelvin    Cal/Mol-Kelvin
 Total                  130.155             37.776             96.753
 Electronic               0.000              0.000              0.000
 Translational            0.889              2.981             40.111
 Rotational               0.889              2.981             28.583
 Vibrational            128.377             31.815             28.058
 Vibration     1          0.597              1.972              4.366
 Vibration     2          0.601              1.957              3.697
 Vibration     3          0.607              1.940              3.247
 Vibration     4          0.631              1.862              2.293
 Vibration     5          0.645              1.817              1.995
 Vibration     6          0.670              1.740              1.639
 Vibration     7          0.680              1.710              1.531
 Vibration     8          0.698              1.657              1.368
 Vibration     9          0.709              1.626              1.285
 Vibration    10          0.733              1.559              1.131
 Vibration    11          0.758              1.491              0.999
 Vibration    12          0.781              1.431              0.899
 Vibration    13          0.813              1.350              0.781
 Vibration    14          0.883              1.187              0.591

 Optimization completed.
    -- Stationary point found.
 Normal termination of Gaussian 16 at Sun Jul  3 11:54:58 2022.
