 Gaussian 16, Revision A.03,
 Gaussian 16:  ES64L-G16RevA.03 25-Dec-2016

 -----------------------------
 # opt freq b3lyp/6-31g(2df,p)
 -----------------------------

 -------------------
 Title Card Required
 -------------------
 Symbolic Z-matrix:
 Charge =  0 Multiplicity = 1

 SCF Done:  E(RB3LYP) =  -403.313876576     A.U. after   14 cycles
 SCF Done:  E(RB3LYP) =  -403.319359298     A.U. after   12 cycles
 SCF Done:  E(RB3LYP) =  -403.320468573     A.U. after   13 cycles
 SCF Done:  E(RB3LYP) =  -403.318877319     A.U. after   13 cycles
 SCF Done:  E(RB3LYP) =  -403.322500896     A.U. after   13 cycles
 SCF Done:  E(RB3LYP) =  -403.323752997     A.U. after   15 cycles
 SCF Done:  E(RB3LYP) =  -403.324388566     A.U. after   13 cycles
 SCF Done:  E(RB3LYP) =  -403.324952426     A.U. after   14 cycles
 SCF Done:  E(RB3LYP) =  -403.325207531     A.U. after   15 cycles
 SCF Done:  E(RB3LYP) =  -403.324955470     A.U. after   15 cycles
 SCF Done:  E(RB3LYP) =  -403.325680227     A.U. after   14 cycles
 SCF Done:  E(RB3LYP) =  -403.325589459     A.U. after   13 cycles
 SCF Done:  E(RB3LYP) =  -403.325754363     A.U. after   13 cycles
 SCF Done:  E(RB3LYP) =  -403.325688500     A.U. after   13 cycles
 SCF Done:  E(RB3LYP) =  -403.325764147     A.U. after   13 cycles
 SCF Done:  E(RB3LYP) =  -403.325760845     A.U. after   11 cycles
 SCF Done:  E(RB3LYP) =  -403.325769442     A.U. after   11 cycles
 SCF Done:  E(RB3LYP) =  -403.325770215     A.U. after    7 cycles
 SCF Done:  E(RB3LYP) =  -403.325770507     A.U. after    7 cycles
 Optimization completed.
    -- Stationary point found.
 Normal termination of Gaussian 16 at Thu Aug  4 11:54:21 2022.

 ----------------------------------------------------------------------
 #N Geom=AllCheck Guess=TCheck SCRF=Check GenChk RB3LYP/6-31G(2df,p) Fr
 eq
 ----------------------------------------------------------------------

 Structure from the checkpoint file:  "CdCC1CCCpCdOpN1.chk"
 -------------------
 Title Card Required
 -------------------
 Charge =  0 Multiplicity = 1

                         Standard orientation:
 ---------------------------------------------------------------------
 Center     Atomic      Atomic             Coordinates (Angstroms)
 Number     Number       Type             X           Y           Z
 ---------------------------------------------------------------------
      1          6           0        3.430016   -0.824973   -0.361201
      2          6           0        2.430923   -0.318001    0.353162
      3          6           0        1.074573    0.021405   -0.190929
      4          6           0        0.686414    1.504706   -0.061917
      5          6           0       -0.845155    1.464920   -0.183760
      6          6           0       -1.247980    0.118662    0.482227
      7          6           0       -2.252606   -0.619775   -0.382313
      8          8           0       -3.396826   -0.845096   -0.086536
      9          7           0        0.017386   -0.617419    0.605535
     10          1           0        4.397230   -1.042706    0.078786
     11          1           0        3.320727   -1.039486   -1.420915
     12          1           0        2.554648   -0.122742    1.417244
     13          1           0        1.041891   -0.259578   -1.258189
     14          1           0        1.162979    2.126532   -0.822640
     15          1           0        0.987716    1.875875    0.923225
     16          1           0       -1.130551    1.460002   -1.242903
     17          1           0       -1.347925    2.313492    0.283313
     18          1           0       -1.707879    0.274079    1.464829
     19          1           0       -1.822381   -0.968816   -1.354396
     20          1           0       -0.060650   -1.615607    0.453572
 ---------------------------------------------------------------------

 SCF Done:  E(RB3LYP) =  -403.325770507     A.U. after    1 cycles

 The electronic state is 1-A.
 Alpha  occ. eigenvalues --  -19.14026 -14.32573 -10.26767 -10.22187 -10.22069
 Alpha  occ. eigenvalues --  -10.19937 -10.19252 -10.18865 -10.18200  -1.04710
 Alpha  occ. eigenvalues --   -0.93005  -0.79165  -0.77453  -0.73021  -0.63383
 Alpha  occ. eigenvalues --   -0.60131  -0.58011  -0.56125  -0.52322  -0.48345
 Alpha  occ. eigenvalues --   -0.46623  -0.44204  -0.42938  -0.42228  -0.40415
 Alpha  occ. eigenvalues --   -0.39074  -0.38070  -0.37055  -0.35377  -0.34748
 Alpha  occ. eigenvalues --   -0.33884  -0.26566  -0.26175  -0.22538
 Alpha virt. eigenvalues --   -0.02536   0.01276   0.08232   0.09695   0.11864
 Alpha virt. eigenvalues --    0.12595   0.12997   0.13302   0.15341   0.16550
 Alpha virt. eigenvalues --    0.16767   0.17682   0.19305   0.19501   0.20169

 Mulliken charges:
               1
     1  C   -0.334036
     2  C    0.034042
     3  C    0.000365
     4  C   -0.202278
     5  C   -0.253770
     6  C   -0.013511
     7  C    0.137999
     8  O   -0.245223
     9  N   -0.325153
    10  H    0.116049
    11  H    0.103349
    12  H    0.093856
    13  H    0.058157
    14  H    0.108384
    15  H    0.111070
    16  H    0.107652
    17  H    0.119540
    18  H    0.092817
    19  H    0.066202
    20  H    0.224491
 Sum of Mulliken charges =  -0.00000

 Dipole moment (field-independent basis, Debye):
    X=              2.4101    Y=              0.8698    Z=             -0.8598  Tot=              2.7027
 Quadrupole moment (field-independent basis, Debye-Ang):
   XX=            -65.9857   YY=            -52.4080   ZZ=            -53.4166
   XY=             -3.8713   XZ=              0.2695   YZ=              0.9292

  Exact polarizability: 112.576  -5.456  70.558  -5.512   4.681  70.870
 Approx polarizability: 150.035  -6.523 102.571 -12.944   7.642 112.969

                      1                      2                      3
                      A                      A                      A
 Frequencies --     49.6229                72.3668               102.9646
 Red. masses --      4.4981                 4.3314                 2.8974
 Frc consts  --      0.0065                 0.0134                 0.0181
 IR Inten    --      1.1378                 5.3805                 0.4037

                      4                      5                      6
                      A                      A                      A
 Frequencies --    149.1647               263.4857               334.9865
 Red. masses --      2.1584                 1.8996                 1.9960
 Frc consts  --      0.0283                 0.0777                 0.1320
 IR Inten    --      0.5046                 1.5418                 0.1728

                      7                      8                      9
                      A                      A                      A
 Frequencies --    340.8879               358.8532               395.6114
 Red. masses --      2.5912                 2.3270                 5.5013
 Frc consts  --      0.1774                 0.1766                 0.5073
 IR Inten    --      6.0053                 2.1211                 6.3889

                     10                     11                     12
                      A                      A                      A
 Frequencies --    480.0437               540.8144               618.7107
 Red. masses --      2.8717                 2.2080                 1.9292
 Frc consts  --      0.3899                 0.3805                 0.4351
 IR Inten    --     16.4881                48.6324                 5.7594

                     13                     14                     15
                      A                      A                      A
 Frequencies --    697.2688               763.9743               854.3839
 Red. masses --      1.8799                 1.8768                 1.9599
 Frc consts  --      0.5385                 0.6454                 0.8429
 IR Inten    --      8.8238                38.7066                 2.4494

                     16                     17                     18
                      A                      A                      A
 Frequencies --    892.3913               905.3281               954.7527
 Red. masses --      2.6307                 2.1387                 1.3966
 Frc consts  --      1.2343                 1.0328                 0.7501
 IR Inten    --      1.5490                 5.7300                24.0631

                     19                     20                     21
                      A                      A                      A
 Frequencies --    958.7040               980.4374              1008.2733
 Red. masses --      1.6724                 1.7300                 2.0714
 Frc consts  --      0.9057                 0.9798                 1.2407
 IR Inten    --      7.8409                 1.1341                 1.3302

                     22                     23                     24
                      A                      A                      A
 Frequencies --   1014.8702              1040.6453              1071.6346
 Red. masses --      2.3129                 1.1284                 2.2101
 Frc consts  --      1.4036                 0.7200                 1.4954
 IR Inten    --     14.2612                13.2045                15.6924

                     25                     26                     27
                      A                      A                      A
 Frequencies --   1121.2604              1132.5511              1163.0195
 Red. masses --      2.5982                 3.7013                 2.0459
 Frc consts  --      1.9246                 2.7972                 1.6305
 IR Inten    --      8.2267                37.9423                12.4157

                     28                     29                     30
                      A                      A                      A
 Frequencies --   1194.3669              1218.6589              1296.4414
 Red. masses --      1.6812                 1.4412                 1.2640
 Frc consts  --      1.4130                 1.2610                 1.2517
 IR Inten    --      0.8450                 1.5951                 3.9075

                     31                     32                     33
                      A                      A                      A
 Frequencies --   1300.4763              1306.2750              1323.1793
 Red. masses --      1.3188                 1.2493                 1.2531
 Frc consts  --      1.3141                 1.2560                 1.2926
 IR Inten    --      0.3880                15.7803                 7.4670

                     34                     35                     36
                      A                      A                      A
 Frequencies --   1332.6435              1349.0801              1360.4236
 Red. masses --      1.2941                 1.2407                 1.3399
 Frc consts  --      1.3540                 1.3304                 1.4610
 IR Inten    --      0.7032                 6.9308                 3.8293

                     37                     38                     39
                      A                      A                      A
 Frequencies --   1415.7847              1437.1237              1461.7196
 Red. masses --      1.1888                 1.3930                 1.2219
 Frc consts  --      1.4039                 1.6951                 1.5382
 IR Inten    --      1.4406                10.3211                 9.0099

                     40                     41                     42
                      A                      A                      A
 Frequencies --   1485.2124              1499.0070              1716.8895
 Red. masses --      1.0866                 1.1023                 4.8756
 Frc consts  --      1.4121                 1.4594                 8.4677
 IR Inten    --      2.5357                 1.8259                 5.0814

                     43                     44                     45
                      A                      A                      A
 Frequencies --   1830.6881              2823.1462              2937.7246
 Red. masses --     10.5405                 1.0808                 1.0819
 Frc consts  --     20.8133                 5.0755                 5.5011
 IR Inten    --    234.4770                88.3000                46.8637

                     46                     47                     48
                      A                      A                      A
 Frequencies --   3031.7888              3038.6226              3055.0328
 Red. masses --      1.0732                 1.0821                 1.0622
 Frc consts  --      5.8120                 5.8869                 5.8409
 IR Inten    --     17.5611                34.4711                22.8333

                     49                     50                     51
                      A                      A                      A
 Frequencies --   3111.4852              3118.2660              3137.9989
 Red. masses --      1.0953                 1.1021                 1.0615
 Frc consts  --      6.2476                 6.3141                 6.1585
 IR Inten    --     18.7509                25.0019                14.1366

                     52                     53                     54
                      A                      A                      A
 Frequencies --   3148.9270              3224.6092              3555.4371
 Red. masses --      1.0897                 1.1139                 1.0755
 Frc consts  --      6.3662                 6.8244                 8.0100
 IR Inten    --      4.3707                14.1466                 2.2835

 - Thermochemistry -
 -------------------
 Temperature   298.150 Kelvin.  Pressure   1.00000 Atm.
 Atom     1 has atomic number  6 and mass  12.00000

 Molecular mass:   125.08406 amu.
 Principal axes and moments of inertia in atomic units:
                           1         2         3
     Eigenvalues --   471.410562074.094282354.34216
           X            0.99986  -0.01649  -0.00255
           Y            0.01653   0.99972   0.01688
           Z            0.00227  -0.01692   0.99985
 This molecule is an asymmetric top.
 Rotational symmetry number  1.
 Warning -- assumption of classical behavior for rotation
           may cause significant error
 Rotational temperatures (Kelvin)      0.18373     0.04176     0.03679
 Rotational constants (GHZ):           3.82839     0.87013     0.76656
 Zero-point vibrational energy     448468.1 (Joules/Mol)
                                  107.18645 (Kcal/Mol)
 Warning -- explicit consideration of  12 degrees of freedom as
           vibrations may cause significant error
 Vibrational temperatures:     71.40   104.12   148.14   214.61   379.10
          (Kelvin)            481.97   490.46   516.31   569.20   690.68
                              778.11   890.19  1003.21  1099.19  1229.27
                             1283.95  1302.57  1373.68  1379.36  1410.63
                             1450.68  1460.17  1497.26  1541.84  1613.24
                             1629.49  1673.33  1718.43  1753.38  1865.29
                             1871.10  1879.44  1903.76  1917.38  1941.03
                             1957.35  2037.00  2067.70  2103.09  2136.89
                             2156.74  2470.22  2633.95  4061.88  4226.73
                             4362.07  4371.90  4395.51  4476.73  4486.49
                             4514.88  4530.60  4639.49  5115.48

 Zero-point correction=                           0.170812 (Hartree/Particle)
 Thermal correction to Energy=                    0.179944
 Thermal correction to Enthalpy=                  0.180888
 Thermal correction to Gibbs Free Energy=         0.135927
 Sum of electronic and zero-point Energies=           -403.154958
 Sum of electronic and thermal Energies=              -403.145826
 Sum of electronic and thermal Enthalpies=            -403.144882
 Sum of electronic and thermal Free Energies=         -403.189843

                     E (Thermal)             CV                S
                      KCal/Mol        Cal/Mol-Kelvin    Cal/Mol-Kelvin
 Total                  112.917             33.515             94.628
 Electronic               0.000              0.000              0.000
 Translational            0.889              2.981             40.385
 Rotational               0.889              2.981             29.222
 Vibrational            111.139             27.554             25.021
 Vibration     1          0.595              1.978              4.832
 Vibration     2          0.598              1.967              4.088
 Vibration     3          0.605              1.947              3.397
 Vibration     4          0.618              1.904              2.683
 Vibration     5          0.670              1.740              1.639
 Vibration     6          0.716              1.606              1.236
 Vibration     7          0.720              1.594              1.208
 Vibration     8          0.734              1.557              1.127
 Vibration     9          0.762              1.480              0.979
 Vibration    10          0.836              1.294              0.710
 Vibration    11          0.896              1.160              0.564
 Vibration    12          0.979              0.992              0.419

                           ! Non-Optimized Parameters !
 Normal termination of Gaussian 16 at Thu Aug  4 12:25:57 2022.
