 Gaussian 16, Revision A.03,
 Gaussian 16:  ES64L-G16RevA.03 25-Dec-2016

 -----------------------------
 # opt freq b3lyp/6-31g(2df,p)
 -----------------------------

 -------------------
 Title Card Required
 -------------------
 Symbolic Z-matrix:
 Charge =  0 Multiplicity = 1

 SCF Done:  E(RB3LYP) =  -366.412881307     A.U. after   13 cycles
 SCF Done:  E(RB3LYP) =  -366.418069893     A.U. after   12 cycles
 SCF Done:  E(RB3LYP) =  -366.420473926     A.U. after   11 cycles
 SCF Done:  E(RB3LYP) =  -366.422406917     A.U. after   12 cycles
 SCF Done:  E(RB3LYP) =  -366.423330034     A.U. after   12 cycles
 SCF Done:  E(RB3LYP) =  -366.423625739     A.U. after   10 cycles
 SCF Done:  E(RB3LYP) =  -366.423697553     A.U. after    9 cycles
 SCF Done:  E(RB3LYP) =  -366.423721323     A.U. after    9 cycles
 SCF Done:  E(RB3LYP) =  -366.423735917     A.U. after    9 cycles
 SCF Done:  E(RB3LYP) =  -366.423761732     A.U. after    9 cycles
 SCF Done:  E(RB3LYP) =  -366.423789725     A.U. after   10 cycles
 SCF Done:  E(RB3LYP) =  -366.423799445     A.U. after    9 cycles
 SCF Done:  E(RB3LYP) =  -366.423802318     A.U. after    9 cycles
 SCF Done:  E(RB3LYP) =  -366.423802763     A.U. after    8 cycles
 SCF Done:  E(RB3LYP) =  -366.423803178     A.U. after    8 cycles
 SCF Done:  E(RB3LYP) =  -366.423803208     A.U. after    6 cycles
 Optimization completed.
    -- Stationary point found.
 Normal termination of Gaussian 16 at Sun Jul  3 14:33:47 2022.

 ----------------------------------------------------------------------
 #N Geom=AllCheck Guess=TCheck SCRF=Check GenChk RB3LYP/6-31G(2df,p) Fr
 eq
 ----------------------------------------------------------------------

 Structure from the checkpoint file:  "CdCCpNCpOCC.chk"
 -------------------
 Title Card Required
 -------------------
 Charge =  0 Multiplicity = 1

                         Standard orientation:
 ---------------------------------------------------------------------
 Center     Atomic      Atomic             Coordinates (Angstroms)
 Number     Number       Type             X           Y           Z
 ---------------------------------------------------------------------
      1          6           0        2.071129   -1.909643    0.319773
      2          6           0        1.259780   -1.182135   -0.438072
      3          6           0        0.389990   -0.065980    0.075385
      4          7           0        0.831138    1.208850   -0.494961
      5          6           0        1.984327    1.789472    0.180659
      6          8           0       -0.932828   -0.333015   -0.338148
      7          6           0       -1.943732    0.225934    0.483676
      8          6           0       -3.293678   -0.185722   -0.078701
      9          1           0        2.691828   -2.697259   -0.094228
     10          1           0        2.146354   -1.747097    1.391636
     11          1           0        1.187827   -1.342584   -1.510915
     12          1           0        0.433869   -0.053261    1.185206
     13          1           0        0.051106    1.856728   -0.475366
     14          1           0        2.853091    1.137056    0.048245
     15          1           0        1.845603    1.939398    1.267317
     16          1           0        2.220669    2.756889   -0.270893
     17          1           0       -1.867530    1.325421    0.516214
     18          1           0       -1.827365   -0.134310    1.518472
     19          1           0       -3.414197    0.186995   -1.099719
     20          1           0       -4.102437    0.218161    0.537660
     21          1           0       -3.381056   -1.275524   -0.100036
 ---------------------------------------------------------------------

 SCF Done:  E(RB3LYP) =  -366.423803208     A.U. after    1 cycles

 The electronic state is 1-A.
 Alpha  occ. eigenvalues --  -19.13858 -14.30887 -10.25374 -10.23134 -10.19708
 Alpha  occ. eigenvalues --  -10.17982 -10.17733 -10.17661  -1.03834  -0.89075
 Alpha  occ. eigenvalues --   -0.77949  -0.74873  -0.67882  -0.63654  -0.60270
 Alpha  occ. eigenvalues --   -0.55531  -0.51135  -0.48681  -0.46716  -0.45535
 Alpha  occ. eigenvalues --   -0.42902  -0.41472  -0.40673  -0.38477  -0.37971
 Alpha  occ. eigenvalues --   -0.36918  -0.35869  -0.34212  -0.31340  -0.26750
 Alpha  occ. eigenvalues --   -0.25808  -0.22173
 Alpha virt. eigenvalues --    0.01698   0.08236   0.11066   0.11646   0.12406
 Alpha virt. eigenvalues --    0.13635   0.14849   0.15615   0.16551   0.17152
 Alpha virt. eigenvalues --    0.17577   0.18438   0.19715   0.20061   0.21361

 Mulliken charges:
               1
     1  C   -0.330064
     2  C    0.054233
     3  C    0.111842
     4  N   -0.294989
     5  C   -0.320012
     6  O   -0.261435
     7  C   -0.042311
     8  C   -0.382930
     9  H    0.114800
    10  H    0.103881
    11  H    0.102477
    12  H    0.040605
    13  H    0.217382
    14  H    0.131169
    15  H    0.090195
    16  H    0.118898
    17  H    0.080395
    18  H    0.092916
    19  H    0.128664
    20  H    0.114275
    21  H    0.130009
 Sum of Mulliken charges =  -0.00000

 Dipole moment (field-independent basis, Debye):
    X=             -0.4326    Y=              0.8638    Z=              1.4116  Tot=              1.7106
 Quadrupole moment (field-independent basis, Debye-Ang):
   XX=            -47.7061   YY=            -48.4615   ZZ=            -51.3154
   XY=             -2.1038   XZ=             -0.1672   YZ=              0.5822

  Exact polarizability:  90.031  -7.746  78.514   3.713  -1.815  67.460
 Approx polarizability: 109.970 -12.877 106.521   8.647  -5.721 105.562

                      1                      2                      3
                      A                      A                      A
 Frequencies --     40.6787                66.0511                80.6517
 Red. masses --      1.8567                 2.6233                 2.5307
 Frc consts  --      0.0018                 0.0067                 0.0097
 IR Inten    --      0.0525                 2.1735                 0.7068

                      4                      5                      6
                      A                      A                      A
 Frequencies --    107.9966               169.9507               213.2572
 Red. masses --      2.7205                 2.0452                 1.2120
 Frc consts  --      0.0187                 0.0348                 0.0325
 IR Inten    --      0.7311                 1.5762                 0.6309

                      7                      8                      9
                      A                      A                      A
 Frequencies --    244.7189               286.0327               319.9699
 Red. masses --      1.1495                 2.9745                 2.0954
 Frc consts  --      0.0406                 0.1434                 0.1264
 IR Inten    --      0.1929                 0.3397                 3.4000

                     10                     11                     12
                      A                      A                      A
 Frequencies --    359.8041               394.0692               469.2588
 Red. masses --      2.5818                 3.0756                 3.1964
 Frc consts  --      0.1969                 0.2814                 0.4147
 IR Inten    --      4.4587                 3.8141                14.9104

                     13                     14                     15
                      A                      A                      A
 Frequencies --    581.1571               690.5079               754.1702
 Red. masses --      3.7681                 1.6453                 1.4511
 Frc consts  --      0.7498                 0.4622                 0.4863
 IR Inten    --      4.9400                25.7798                64.9076

                     16                     17                     18
                      A                      A                      A
 Frequencies --    817.7299               907.8867               914.3145
 Red. masses --      1.0892                 2.1616                 1.6759
 Frc consts  --      0.4291                 1.0497                 0.8254
 IR Inten    --      1.3711                 2.0030                 5.8358

                     19                     20                     21
                      A                      A                      A
 Frequencies --    960.9664              1003.9004              1033.8587
 Red. masses --      1.3594                 1.9115                 1.1363
 Frc consts  --      0.7396                 1.1350                 0.7156
 IR Inten    --     29.7960                30.7973                20.3708

                     22                     23                     24
                      A                      A                      A
 Frequencies --   1041.7754              1108.4634              1125.0142
 Red. masses --      3.0791                 2.0345                 2.8826
 Frc consts  --      1.9689                 1.4728                 2.1496
 IR Inten    --      6.5127                49.7297                24.6294

                     25                     26                     27
                      A                      A                      A
 Frequencies --   1136.1893              1156.8795              1184.2111
 Red. masses --      3.7185                 2.0010                 1.7447
 Frc consts  --      2.8282                 1.5779                 1.4416
 IR Inten    --    196.1398                44.9775                 9.5275

                     28                     29                     30
                      A                      A                      A
 Frequencies --   1192.6036              1216.6438              1295.9654
 Red. masses --      1.9923                 1.8028                 1.1081
 Frc consts  --      1.6695                 1.5723                 1.0965
 IR Inten    --     11.6161                22.1192                 1.0045

                     31                     32                     33
                      A                      A                      A
 Frequencies --   1304.1814              1348.7049              1354.5501
 Red. masses --      1.3098                 1.2513                 1.2005
 Frc consts  --      1.3126                 1.3410                 1.2978
 IR Inten    --      0.5052                43.0220                44.4328

                     34                     35                     36
                      A                      A                      A
 Frequencies --   1401.6020              1429.9396              1443.1226
 Red. masses --      1.2296                 1.3519                 1.1946
 Frc consts  --      1.4232                 1.6286                 1.4658
 IR Inten    --      0.1931                25.0271                12.2272

                     37                     38                     39
                      A                      A                      A
 Frequencies --   1456.3619              1482.7465              1486.4056
 Red. masses --      1.1758                 1.0411                 1.2676
 Frc consts  --      1.4694                 1.3485                 1.6501
 IR Inten    --      0.9145                 4.9108                27.4537

                     40                     41                     42
                      A                      A                      A
 Frequencies --   1492.4324              1499.3745              1519.8879
 Red. masses --      1.0829                 1.0444                 1.0631
 Frc consts  --      1.4211                 1.3834                 1.4469
 IR Inten    --      2.8807                 2.8223                 9.3689

                     43                     44                     45
                      A                      A                      A
 Frequencies --   1529.1233              1721.1924              2866.6249
 Red. masses --      1.0882                 4.9405                 1.0804
 Frc consts  --      1.4992                 8.6235                 5.2308
 IR Inten    --      3.8578                 1.2200                55.7563

                     46                     47                     48
                      A                      A                      A
 Frequencies --   2935.5437              2959.7252              2989.2398
 Red. masses --      1.0607                 1.0574                 1.1026
 Frc consts  --      5.3854                 5.4575                 5.8047
 IR Inten    --     81.5226                57.9398                49.5273

                     49                     50                     51
                      A                      A                      A
 Frequencies --   3045.1984              3068.0151              3112.2368
 Red. masses --      1.0347                 1.0708                 1.1026
 Frc consts  --      5.6530                 5.9387                 6.2924
 IR Inten    --     18.4905                33.6758                21.0708

                     52                     53                     54
                      A                      A                      A
 Frequencies --   3119.6020              3123.3958              3138.9942
 Red. masses --      1.1015                 1.1028                 1.0597
 Frc consts  --      6.3158                 6.3385                 6.1518
 IR Inten    --     23.8478                23.9335                 9.6084

                     55                     56                     57
                      A                      A                      A
 Frequencies --   3168.5530              3222.8571              3531.7096
 Red. masses --      1.0923                 1.1140                 1.0736
 Frc consts  --      6.4611                 6.8172                 7.8895
 IR Inten    --      3.4189                14.6283                 0.0755

 - Thermochemistry -
 -------------------
 Temperature   298.150 Kelvin.  Pressure   1.00000 Atm.
 Atom     1 has atomic number  6 and mass  12.00000

 Molecular mass:   115.09971 amu.
 Principal axes and moments of inertia in atomic units:
                           1         2         3
     Eigenvalues --   635.511831498.889941964.75009
           X            0.99999   0.00379   0.00382
           Y           -0.00383   0.99995   0.00952
           Z           -0.00379  -0.00953   0.99995
 This molecule is an asymmetric top.
 Rotational symmetry number  1.
 Warning -- assumption of classical behavior for rotation
           may cause significant error
 Rotational temperatures (Kelvin)      0.13629     0.05779     0.04408
 Rotational constants (GHZ):           2.83982     1.20405     0.91856
 Zero-point vibrational energy     488231.9 (Joules/Mol)
                                  116.69022 (Kcal/Mol)
 Warning -- explicit consideration of  13 degrees of freedom as
           vibrations may cause significant error
 Vibrational temperatures:     58.53    95.03   116.04   155.38   244.52
          (Kelvin)            306.83   352.10   411.54   460.37   517.68
                              566.98   675.16   836.16   993.49  1085.08
                             1176.53  1306.25  1315.49  1382.62  1444.39
                             1487.49  1498.88  1594.83  1618.64  1634.72
                             1664.49  1703.82  1715.89  1750.48  1864.61
                             1876.43  1940.49  1948.90  2016.59  2057.36
                             2076.33  2095.38  2133.34  2138.61  2147.28
                             2157.27  2186.78  2200.07  2476.41  4124.43
                             4223.59  4258.38  4300.85  4381.36  4414.19
                             4477.81  4488.41  4493.87  4516.31  4558.84
                             4636.97  5081.34

 Zero-point correction=                           0.185958 (Hartree/Particle)
 Thermal correction to Energy=                    0.196266
 Thermal correction to Enthalpy=                  0.197210
 Thermal correction to Gibbs Free Energy=         0.149623
 Sum of electronic and zero-point Energies=           -366.237846
 Sum of electronic and thermal Energies=              -366.227538
 Sum of electronic and thermal Enthalpies=            -366.226593
 Sum of electronic and thermal Free Energies=         -366.274180

                     E (Thermal)             CV                S
                      KCal/Mol        Cal/Mol-Kelvin    Cal/Mol-Kelvin
 Total                  123.159             35.737            100.154
 Electronic               0.000              0.000              0.000
 Translational            0.889              2.981             40.137
 Rotational               0.889              2.981             29.016
 Vibrational            121.381             29.775             31.001
 Vibration     1          0.594              1.981              5.226
 Vibration     2          0.597              1.970              4.268
 Vibration     3          0.600              1.962              3.875
 Vibration     4          0.606              1.943              3.305
 Vibration     5          0.625              1.879              2.436
 Vibration     6          0.644              1.821              2.016
 Vibration     7          0.660              1.772              1.768
 Vibration     8          0.684              1.700              1.497
 Vibration     9          0.706              1.635              1.310
 Vibration    10          0.734              1.555              1.123
 Vibration    11          0.761              1.483              0.985
 Vibration    12          0.826              1.318              0.740
 Vibration    13          0.938              1.072              0.483

 Optimization completed.
    -- Stationary point found.
 Normal termination of Gaussian 16 at Sun Jul  3 14:56:27 2022.
