 Gaussian 16, Revision A.03,
 Gaussian 16:  ES64L-G16RevA.03 25-Dec-2016

 -----------------------------
 # opt freq b3lyp/6-31g(2df,p)
 -----------------------------

 -------------------
 Title Card Required
 -------------------
 Symbolic Z-matrix:
 Charge =  0 Multiplicity = 1

 SCF Done:  E(RB3LYP) =  -383.832738903     A.U. after   14 cycles
 SCF Done:  E(RB3LYP) =  -383.855152906     A.U. after   14 cycles
 SCF Done:  E(RB3LYP) =  -383.863653107     A.U. after   12 cycles
 SCF Done:  E(RB3LYP) =  -383.866561376     A.U. after   12 cycles
 SCF Done:  E(RB3LYP) =  -383.868618654     A.U. after   13 cycles
 SCF Done:  E(RB3LYP) =  -383.869363414     A.U. after   12 cycles
 SCF Done:  E(RB3LYP) =  -383.870670286     A.U. after   14 cycles
 SCF Done:  E(RB3LYP) =  -383.870906524     A.U. after   11 cycles
 SCF Done:  E(RB3LYP) =  -383.870983637     A.U. after   11 cycles
 SCF Done:  E(RB3LYP) =  -383.870987330     A.U. after    9 cycles
 SCF Done:  E(RB3LYP) =  -383.870988556     A.U. after    8 cycles
 SCF Done:  E(RB3LYP) =  -383.870989396     A.U. after    8 cycles
 SCF Done:  E(RB3LYP) =  -383.870989527     A.U. after    6 cycles
 SCF Done:  E(RB3LYP) =  -383.870989585     A.U. after    7 cycles
 Optimization completed.
    -- Stationary point found.
 Normal termination of Gaussian 16 at Thu Aug  4 11:33:13 2022.

 ----------------------------------------------------------------------
 #N Geom=AllCheck Guess=TCheck SCRF=Check GenChk RB3LYP/6-31G(2df,p) Fr
 eq
 ----------------------------------------------------------------------

 Structure from the checkpoint file:  "CdCCC1pCpOC1dO.chk"
 -------------------
 Title Card Required
 -------------------
 Charge =  0 Multiplicity = 1

                         Standard orientation:
 ---------------------------------------------------------------------
 Center     Atomic      Atomic             Coordinates (Angstroms)
 Number     Number       Type             X           Y           Z
 ---------------------------------------------------------------------
      1          6           0        2.874267    0.182990   -0.326391
      2          6           0        1.806690   -0.108390    0.408302
      3          6           0        0.729199   -1.074027   -0.000450
      4          6           0       -0.671625   -0.491683   -0.053968
      5          6           0       -1.784677   -1.448130   -0.394320
      6          8           0       -1.007746    0.431245    1.146662
      7          6           0       -0.901162    0.945730   -0.078911
      8          8           0       -1.007536    2.005367   -0.604918
      9          1           0        3.629263    0.881036    0.018432
     10          1           0        3.038481   -0.264388   -1.302853
     11          1           0        1.671798    0.359627    1.380282
     12          1           0        0.700317   -1.925399    0.696333
     13          1           0        0.948988   -1.491076   -0.990854
     14          1           0       -1.783211   -2.298997    0.295577
     15          1           0       -1.640709   -1.834938   -1.408631
     16          1           0       -2.758825   -0.957695   -0.347805
 ---------------------------------------------------------------------

 SCF Done:  E(RB3LYP) =  -383.870989585     A.U. after    1 cycles

 The electronic state is 1-A.
 Alpha  occ. eigenvalues --  -19.18861 -19.14374 -10.31527 -10.27424 -10.21384
 Alpha  occ. eigenvalues --  -10.20641 -10.19824 -10.18811  -1.12055  -1.04159
 Alpha  occ. eigenvalues --   -0.82328  -0.77469  -0.70785  -0.64241  -0.57578
 Alpha  occ. eigenvalues --   -0.54386  -0.49970  -0.48149  -0.47315  -0.45603
 Alpha  occ. eigenvalues --   -0.44231  -0.42504  -0.41249  -0.40131  -0.38081
 Alpha  occ. eigenvalues --   -0.35629  -0.35242  -0.31380  -0.27328  -0.26231
 Alpha virt. eigenvalues --    0.00086   0.01545   0.04306   0.08301   0.11410
 Alpha virt. eigenvalues --    0.11884   0.13285   0.15537   0.15920   0.17578
 Alpha virt. eigenvalues --    0.18376   0.19146   0.22567   0.24792   0.25923

 Mulliken charges:
               1
     1  C   -0.313900
     2  C    0.015995
     3  C   -0.296174
     4  C    0.167358
     5  C   -0.449095
     6  O   -0.265961
     7  C    0.456880
     8  O   -0.338196
     9  H    0.122870
    10  H    0.108974
    11  H    0.114664
    12  H    0.125005
    13  H    0.123259
    14  H    0.138579
    15  H    0.142530
    16  H    0.147212
 Sum of Mulliken charges =  -0.00000

 Dipole moment (field-independent basis, Debye):
    X=              0.7288    Y=             -3.5552    Z=             -0.4489  Tot=              3.6568
 Quadrupole moment (field-independent basis, Debye-Ang):
   XX=            -44.3972   YY=            -50.3128   ZZ=            -47.7878
   XY=              4.5290   XZ=              0.4254   YZ=              2.5743

  Exact polarizability:  75.790   5.610  68.856  -5.251   0.764  57.106
 Approx polarizability:  97.876   5.353 103.739 -13.118  -3.141  98.699

                      1                      2                      3
                      A                      A                      A
 Frequencies --     58.5124                76.8413               156.4875
 Red. masses --      2.4137                 3.7881                 3.1887
 Frc consts  --      0.0049                 0.0132                 0.0460
 IR Inten    --      0.2214                 0.1291                 3.0196

                      4                      5                      6
                      A                      A                      A
 Frequencies --    166.6445               227.5324               285.2309
 Red. masses --      1.0960                 2.8476                 3.7552
 Frc consts  --      0.0179                 0.0869                 0.1800
 IR Inten    --      0.4597                 0.3292                 0.6950

                      7                      8                      9
                      A                      A                      A
 Frequencies --    336.2631               403.9581               444.4531
 Red. masses --      2.9389                 2.4440                 2.4686
 Frc consts  --      0.1958                 0.2350                 0.2873
 IR Inten    --      1.5165                 0.8801                 6.4643

                     10                     11                     12
                      A                      A                      A
 Frequencies --    551.9835               601.5350               656.8794
 Red. masses --      3.2669                 4.2723                 2.8228
 Frc consts  --      0.5865                 0.9108                 0.7176
 IR Inten    --      0.2196                22.0810                46.7327

                     13                     14                     15
                      A                      A                      A
 Frequencies --    698.6504               798.2874               901.6915
 Red. masses --      4.6244                 4.2309                 1.6065
 Frc consts  --      1.3299                 1.5886                 0.7696
 IR Inten    --      9.3184                14.3584                 1.4344

                     16                     17                     18
                      A                      A                      A
 Frequencies --    941.0434               964.8161               989.2638
 Red. masses --      2.1874                 1.3719                 1.5373
 Frc consts  --      1.1413                 0.7524                 0.8864
 IR Inten    --      3.4175                26.7274                 1.8203

                     19                     20                     21
                      A                      A                      A
 Frequencies --   1013.3758              1044.7441              1108.1413
 Red. masses --      1.7993                 1.0997                 2.1599
 Frc consts  --      1.0887                 0.7072                 1.5627
 IR Inten    --      9.0055                13.9890                35.3480

                     22                     23                     24
                      A                      A                      A
 Frequencies --   1177.7427              1181.8680              1238.1362
 Red. masses --      2.7061                 3.0761                 1.8925
 Frc consts  --      2.2115                 2.5316                 1.7094
 IR Inten    --     21.1558                39.4722                24.6881

                     25                     26                     27
                      A                      A                      A
 Frequencies --   1293.4852              1325.9383              1361.3758
 Red. masses --      2.1587                 1.2444                 1.6681
 Frc consts  --      2.1280                 1.2891                 1.8215
 IR Inten    --      9.6428                 1.1386                 7.3921

                     28                     29                     30
                      A                      A                      A
 Frequencies --   1411.4544              1451.1045              1466.4804
 Red. masses --      1.2526                 1.1154                 1.1588
 Frc consts  --      1.4702                 1.3838                 1.4683
 IR Inten    --      5.6875                 0.4968                 6.1829

                     31                     32                     33
                      A                      A                      A
 Frequencies --   1482.3131              1488.6439              1719.8860
 Red. masses --      1.0602                 1.0551                 4.8389
 Frc consts  --      1.3726                 1.3776                 8.4333
 IR Inten    --      3.0914                 4.1375                 4.0992

                     34                     35                     36
                      A                      A                      A
 Frequencies --   2009.0747              2998.5291              3038.2885
 Red. masses --     12.6883                 1.0658                 1.0370
 Frc consts  --     30.1749                 5.6459                 5.6403
 IR Inten    --    421.1571                19.6251                11.8969

                     37                     38                     39
                      A                      A                      A
 Frequencies --   3059.3254              3103.8852              3135.5965
 Red. masses --      1.0929                 1.1003                 1.1012
 Frc consts  --      6.0268                 6.2456                 6.3792
 IR Inten    --      8.4323                10.7505                 8.6380

                     40                     41                     42
                      A                      A                      A
 Frequencies --   3143.3832              3166.0376              3229.0492
 Red. masses --      1.0604                 1.0913                 1.1141
 Frc consts  --      6.1735                 6.4448                 6.8441
 IR Inten    --      7.0460                 2.8612                11.3121

 - Thermochemistry -
 -------------------
 Temperature   298.150 Kelvin.  Pressure   1.00000 Atm.
 Atom     1 has atomic number  6 and mass  12.00000

 Molecular mass:   112.05243 amu.
 Principal axes and moments of inertia in atomic units:
                           1         2         3
     Eigenvalues --   626.124731109.931511455.25606
           X            0.99746   0.07115   0.00421
           Y           -0.07125   0.99686   0.03445
           Z           -0.00175  -0.03466   0.99940
 This molecule is an asymmetric top.
 Rotational symmetry number  1.
 Warning -- assumption of classical behavior for rotation
           may cause significant error
 Rotational temperatures (Kelvin)      0.13833     0.07804     0.05952
 Rotational constants (GHZ):           2.88240     1.62599     1.24015
 Zero-point vibrational energy     334403.7 (Joules/Mol)
                                   79.92440 (Kcal/Mol)
 Warning -- explicit consideration of  11 degrees of freedom as
           vibrations may cause significant error
 Vibrational temperatures:     84.19   110.56   225.15   239.76   327.37
          (Kelvin)            410.38   483.81   581.21   639.47   794.18
                              865.47   945.10  1005.20  1148.56  1297.33
                             1353.95  1388.16  1423.33  1458.02  1503.15
                             1594.37  1694.51  1700.44  1781.40  1861.04
                             1907.73  1958.72  2030.77  2087.82  2109.94
                             2132.72  2141.83  2474.53  2890.61  4314.21
                             4371.42  4401.69  4465.80  4511.42  4522.63
                             4555.22  4645.88

 Zero-point correction=                           0.127368 (Hartree/Particle)
 Thermal correction to Energy=                    0.136007
 Thermal correction to Enthalpy=                  0.136951
 Thermal correction to Gibbs Free Energy=         0.093608
 Sum of electronic and zero-point Energies=           -383.743622
 Sum of electronic and thermal Energies=              -383.734983
 Sum of electronic and thermal Enthalpies=            -383.734038
 Sum of electronic and thermal Free Energies=         -383.777382

                     E (Thermal)             CV                S
                      KCal/Mol        Cal/Mol-Kelvin    Cal/Mol-Kelvin
 Total                   85.346             30.402             91.224
 Electronic               0.000              0.000              0.000
 Translational            0.889              2.981             40.057
 Rotational               0.889              2.981             28.405
 Vibrational             83.568             24.441             22.762
 Vibration     1          0.596              1.974              4.507
 Vibration     2          0.599              1.965              3.970
 Vibration     3          0.620              1.895              2.592
 Vibration     4          0.624              1.883              2.473
 Vibration     5          0.651              1.799              1.898
 Vibration     6          0.683              1.701              1.502
 Vibration     7          0.717              1.603              1.230
 Vibration     8          0.769              1.462              0.948
 Vibration     9          0.804              1.373              0.813
 Vibration    10          0.907              1.135              0.540
 Vibration    11          0.960              1.029              0.447

                           ! Non-Optimized Parameters !
 Normal termination of Gaussian 16 at Thu Aug  4 11:50:48 2022.
