 Gaussian 16, Revision A.03,
 Gaussian 16:  ES64L-G16RevA.03 25-Dec-2016

 -----------------------------
 # opt freq b3lyp/6-31g(2df,p)
 -----------------------------

 -------------------
 Title Card Required
 -------------------
 Symbolic Z-matrix:
 Charge =  0 Multiplicity = 1

 SCF Done:  E(RB3LYP) =  -351.332407746     A.U. after   13 cycles
 SCF Done:  E(RB3LYP) =  -351.334344945     A.U. after   12 cycles
 SCF Done:  E(RB3LYP) =  -351.334003626     A.U. after   12 cycles
 SCF Done:  E(RB3LYP) =  -351.335351498     A.U. after   10 cycles
 SCF Done:  E(RB3LYP) =  -351.335968762     A.U. after   11 cycles
 SCF Done:  E(RB3LYP) =  -351.336792653     A.U. after   11 cycles
 SCF Done:  E(RB3LYP) =  -351.304093183     A.U. after   15 cycles
 SCF Done:  E(RB3LYP) =  -351.337953556     A.U. after   12 cycles
 SCF Done:  E(RB3LYP) =  -351.338824993     A.U. after   12 cycles
 SCF Done:  E(RB3LYP) =  -351.339161114     A.U. after   11 cycles
 SCF Done:  E(RB3LYP) =  -351.339248426     A.U. after   10 cycles
 SCF Done:  E(RB3LYP) =  -351.339258703     A.U. after   10 cycles
 SCF Done:  E(RB3LYP) =  -351.339262735     A.U. after    9 cycles
 SCF Done:  E(RB3LYP) =  -351.339262801     A.U. after    6 cycles
 Optimization completed.
    -- Stationary point found.
 Normal termination of Gaussian 16 at Sun Jul  3 09:49:23 2022.

 ----------------------------------------------------------------------
 #N Geom=AllCheck Guess=TCheck SCRF=Check GenChk RB3LYP/6-31G(2df,p) Fr
 eq
 ----------------------------------------------------------------------

 Structure from the checkpoint file:  "CdCCpCpCtCCCC.chk"
 -------------------
 Title Card Required
 -------------------
 Charge =  0 Multiplicity = 1

                         Standard orientation:
 ---------------------------------------------------------------------
 Center     Atomic      Atomic             Coordinates (Angstroms)
 Number     Number       Type             X           Y           Z
 ---------------------------------------------------------------------
      1          6           0        3.138952   -1.864440    0.091363
      2          6           0        2.470350   -0.844999   -0.434445
      3          6           0        1.965245    0.353010    0.342072
      4          6           0        2.690283    1.643922   -0.106729
      5          6           0        0.513530    0.490724    0.192311
      6          6           0       -0.675932    0.615005    0.043043
      7          6           0       -2.121715    0.727321   -0.118747
      8          6           0       -2.867956   -0.601499    0.119128
      9          6           0       -4.381010   -0.459777   -0.056614
     10          1           0        3.491677   -2.690728   -0.516631
     11          1           0        3.359323   -1.916117    1.154113
     12          1           0        2.256368   -0.822916   -1.501872
     13          1           0        2.193968    0.187510    1.403481
     14          1           0        2.514348    1.834134   -1.169714
     15          1           0        3.767698    1.546028    0.054237
     16          1           0        2.323419    2.506037    0.456801
     17          1           0       -2.352158    1.094815   -1.128247
     18          1           0       -2.511372    1.488479    0.571257
     19          1           0       -2.636668   -0.960603    1.128140
     20          1           0       -2.476081   -1.355418   -0.572680
     21          1           0       -4.796304    0.271845    0.645655
     22          1           0       -4.890311   -1.412580    0.116395
     23          1           0       -4.634389   -0.126092   -1.069225
 ---------------------------------------------------------------------

 SCF Done:  E(RB3LYP) =  -351.339262801     A.U. after    1 cycles

 The electronic state is 1-A.
 Alpha  occ. eigenvalues --  -10.20954 -10.19936 -10.18620 -10.18329 -10.17767
 Alpha  occ. eigenvalues --  -10.17481 -10.17430 -10.16434 -10.16130  -0.81814
 Alpha  occ. eigenvalues --   -0.79759  -0.74111  -0.72322  -0.67937  -0.63036
 Alpha  occ. eigenvalues --   -0.59312  -0.55886  -0.49681  -0.46521  -0.46189
 Alpha  occ. eigenvalues --   -0.44594  -0.42758  -0.41309  -0.39495  -0.39351
 Alpha  occ. eigenvalues --   -0.38121  -0.36111  -0.35670  -0.34524  -0.34034
 Alpha  occ. eigenvalues --   -0.33338  -0.26193  -0.24199  -0.24015
 Alpha virt. eigenvalues --    0.01688   0.06105   0.07365   0.10037   0.11979
 Alpha virt. eigenvalues --    0.12431   0.13610   0.14256   0.14295   0.15187
 Alpha virt. eigenvalues --    0.17248   0.17694   0.17836   0.18517   0.19037

 Mulliken charges:
               1
     1  C   -0.333021
     2  C    0.055768
     3  C   -0.188766
     4  C   -0.378992
     5  C    0.152120
     6  C   -0.017813
     7  C   -0.334479
     8  C   -0.151157
     9  C   -0.381615
    10  H    0.112358
    11  H    0.103726
    12  H    0.093454
    13  H    0.099620
    14  H    0.123219
    15  H    0.117225
    16  H    0.122970
    17  H    0.122186
    18  H    0.122699
    19  H    0.108258
    20  H    0.108564
    21  H    0.114847
    22  H    0.114031
    23  H    0.114799
 Sum of Mulliken charges =   0.00000

 Dipole moment (field-independent basis, Debye):
    X=             -0.3166    Y=              0.0972    Z=             -0.0506  Tot=              0.3350
 Quadrupole moment (field-independent basis, Debye-Ang):
   XX=            -52.2763   YY=            -56.1907   ZZ=            -54.9060
   XY=             -0.5848   XZ=              0.7761   YZ=              0.2461

  Exact polarizability: 132.124 -10.380  91.675   5.225  -2.006  75.331
 Approx polarizability: 168.645 -19.421 127.650  11.716  -5.649 115.421

 ******    1 imaginary frequencies (negative Signs) ******

                      1                      2                      3
                      A                      A                      A
 Frequencies --     -6.7559                50.3347                71.1769
 Red. masses --      2.1084                 3.5377                 2.1238
 Frc consts  --      0.0001                 0.0053                 0.0063
 IR Inten    --      0.0263                 0.2908                 0.2746

                      4                      5                      6
                      A                      A                      A
 Frequencies --    104.3167               141.4076               169.3975
 Red. masses --      2.8498                 2.7731                 3.1965
 Frc consts  --      0.0183                 0.0327                 0.0540
 IR Inten    --      0.2856                 1.2640                 0.2252

                      7                      8                      9
                      A                      A                      A
 Frequencies --    238.0470               240.2672               275.4471
 Red. masses --      1.0509                 1.0817                 2.2911
 Frc consts  --      0.0351                 0.0368                 0.1024
 IR Inten    --      0.0169                 0.0310                 1.2789

                     10                     11                     12
                      A                      A                      A
 Frequencies --    317.5082               327.6247               384.5185
 Red. masses --      2.8146                 2.2836                 3.3329
 Frc consts  --      0.1672                 0.1444                 0.2903
 IR Inten    --      3.6406                 0.3265                 1.0748

                     13                     14                     15
                      A                      A                      A
 Frequencies --    446.2124               521.0279               542.7049
 Red. masses --      4.3253                 4.0154                 4.6103
 Frc consts  --      0.5074                 0.6422                 0.8000
 IR Inten    --      3.9145                 0.5809                 1.4256

                     16                     17                     18
                      A                      A                      A
 Frequencies --    685.8924               742.4304               772.3118
 Red. masses --      1.9263                 1.1027                 2.3638
 Frc consts  --      0.5339                 0.3581                 0.8307
 IR Inten    --      8.7283                 2.3593                 3.0850

                     19                     20                     21
                      A                      A                      A
 Frequencies --    863.4944               871.9416               896.0937
 Red. masses --      2.0295                 1.2283                 1.9709
 Frc consts  --      0.8916                 0.5502                 0.9325
 IR Inten    --      1.9277                 0.3694                 0.9694

                     22                     23                     24
                      A                      A                      A
 Frequencies --    948.1005               975.7316              1023.0789
 Red. masses --      1.3562                 1.3661                 1.8242
 Frc consts  --      0.7183                 0.7663                 1.1249
 IR Inten    --     32.1222                 1.5984                 3.9146

                     25                     26                     27
                      A                      A                      A
 Frequencies --   1038.8547              1045.1056              1083.4524
 Red. masses --      1.2331                 2.5667                 2.1308
 Frc consts  --      0.7841                 1.6517                 1.4737
 IR Inten    --      8.4376                 7.2281                 3.6800

                     28                     29                     30
                      A                      A                      A
 Frequencies --   1108.5718              1121.3773              1156.1410
 Red. masses --      2.0485                 1.4500                 2.2548
 Frc consts  --      1.4832                 1.0743                 1.7757
 IR Inten    --      1.7781                 0.1394                 0.2331

                     31                     32                     33
                      A                      A                      A
 Frequencies --   1194.6197              1258.6370              1297.8142
 Red. masses --      2.1672                 1.3032                 1.3161
 Frc consts  --      1.8223                 1.2163                 1.3061
 IR Inten    --      0.9264                 0.0611                 7.8102

                     34                     35                     36
                      A                      A                      A
 Frequencies --   1305.9761              1317.2864              1321.3723
 Red. masses --      1.3909                 1.3080                 1.0811
 Frc consts  --      1.3977                 1.3373                 1.1122
 IR Inten    --     20.6858                11.6289                 0.0109

                     37                     38                     39
                      A                      A                      A
 Frequencies --   1330.7551              1381.2037              1400.2638
 Red. masses --      1.3620                 1.5136                 1.2074
 Frc consts  --      1.4211                 1.7013                 1.3948
 IR Inten    --     15.6459                 2.4344                 0.8324

                     40                     41                     42
                      A                      A                      A
 Frequencies --   1412.3737              1455.1146              1473.5147
 Red. masses --      1.2373                 1.1773                 1.0826
 Frc consts  --      1.4542                 1.4687                 1.3849
 IR Inten    --      0.5673                 3.5430                 2.3129

                     43                     44                     45
                      A                      A                      A
 Frequencies --   1491.0651              1491.7171              1497.1383
 Red. masses --      1.0440                 1.0542                 1.0555
 Frc consts  --      1.3676                 1.3821                 1.3939
 IR Inten    --      5.1700                 0.3392                 0.5641

                     46                     47                     48
                      A                      A                      A
 Frequencies --   1498.9658              1508.8862              1714.9240
 Red. masses --      1.0400                 1.0798                 4.8823
 Frc consts  --      1.3769                 1.4484                 8.4598
 IR Inten    --      5.3079                 3.1804                 7.6935

                     49                     50                     51
                      A                      A                      A
 Frequencies --   2360.8121              3005.6215              3013.0128
 Red. masses --     11.8839                 1.0579                 1.0818
 Frc consts  --     39.0240                 5.6306                 5.7865
 IR Inten    --      1.1405                24.7190                14.4904

                     52                     53                     54
                      A                      A                      A
 Frequencies --   3028.5090              3031.5361              3039.7296
 Red. masses --      1.0365                 1.1003                 1.0333
 Frc consts  --      5.6012                 5.9576                 5.6256
 IR Inten    --     28.8882                 8.0825                26.0660

                     55                     56                     57
                      A                      A                      A
 Frequencies --   3041.0267              3072.1858              3098.9730
 Red. masses --      1.0592                 1.1025                 1.1034
 Frc consts  --      5.7712                 6.1308                 6.2432
 IR Inten    --     28.1993                 2.7505                57.5766

                     58                     59                     60
                      A                      A                      A
 Frequencies --   3104.3787              3116.4653              3120.6927
 Red. masses --      1.1004                 1.1023                 1.1030
 Frc consts  --      6.2481                 6.3077                 6.3292
 IR Inten    --     32.2389                22.0714                25.6471

                     61                     62                     63
                      A                      A                      A
 Frequencies --   3137.0977              3147.8434              3223.1401
 Red. masses --      1.0626                 1.0882                 1.1142
 Frc consts  --      6.1616                 6.3532                 6.8197
 IR Inten    --     14.7525                 4.9304                15.0251

 - Thermochemistry -
 -------------------
 Temperature   298.150 Kelvin.  Pressure   1.00000 Atm.
 Atom     1 has atomic number  6 and mass  12.00000

 Molecular mass:   122.10955 amu.
 Principal axes and moments of inertia in atomic units:
                           1         2         3
     Eigenvalues --   550.008213167.737183596.22069
           X            0.99998   0.00645   0.00119
           Y           -0.00644   0.99996  -0.00644
           Z           -0.00123   0.00643   0.99998
 This molecule is an asymmetric top.
 Rotational symmetry number  1.
 Warning -- assumption of classical behavior for rotation
           may cause significant error
 Rotational temperatures (Kelvin)      0.15748     0.02734     0.02408
 Rotational constants (GHZ):           3.28130     0.56973     0.50184
    1 imaginary frequencies ignored.
 Zero-point vibrational energy     532668.5 (Joules/Mol)
                                  127.31083 (Kcal/Mol)
 Warning -- explicit consideration of  14 degrees of freedom as
           vibrations may cause significant error
 Vibrational temperatures:     72.42   102.41   150.09   203.45   243.73
          (Kelvin)            342.50   345.69   396.31   456.82   471.38
                              553.24   642.00   749.64   780.83   986.85
                             1068.19  1111.18  1242.38  1254.53  1289.28
                             1364.11  1403.86  1471.98  1494.68  1503.67
                             1558.85  1594.99  1613.41  1663.43  1718.79
                             1810.90  1867.27  1879.01  1895.28  1901.16
                             1914.66  1987.24  2014.67  2032.09  2093.59
                             2120.06  2145.31  2146.25  2154.05  2156.68
                             2170.95  2467.39  3396.68  4324.42  4335.05
                             4357.35  4361.70  4373.49  4375.36  4420.19
                             4458.73  4466.51  4483.90  4489.98  4513.58
                             4529.04  4637.38

 Zero-point correction=                           0.202883 (Hartree/Particle)
 Thermal correction to Energy=                    0.213470
 Thermal correction to Enthalpy=                  0.214414
 Thermal correction to Gibbs Free Energy=         0.166358
 Sum of electronic and zero-point Energies=           -351.136380
 Sum of electronic and thermal Energies=              -351.125793
 Sum of electronic and thermal Enthalpies=            -351.124849
 Sum of electronic and thermal Free Energies=         -351.172905

                     E (Thermal)             CV                S
                      KCal/Mol        Cal/Mol-Kelvin    Cal/Mol-Kelvin
 Total                  133.954             38.235            101.142
 Electronic               0.000              0.000              0.000
 Translational            0.889              2.981             40.313
 Rotational               0.889              2.981             30.217
 Vibrational            132.177             32.273             30.612
 Vibration     1          0.595              1.977              4.804
 Vibration     2          0.598              1.968              4.121
 Vibration     3          0.605              1.946              3.372
 Vibration     4          0.615              1.912              2.785
 Vibration     5          0.625              1.880              2.442
 Vibration     6          0.656              1.782              1.817
 Vibration     7          0.657              1.779              1.801
 Vibration     8          0.677              1.719              1.562
 Vibration     9          0.704              1.640              1.323
 Vibration    10          0.711              1.620              1.272
 Vibration    11          0.753              1.503              1.021
 Vibration    12          0.805              1.369              0.807
 Vibration    13          0.876              1.203              0.608
 Vibration    14          0.898              1.156              0.559

                           ! Non-Optimized Parameters !
 Normal termination of Gaussian 16 at Sun Jul  3 10:17:02 2022.
