 Gaussian 16, Revision A.03,
 Gaussian 16:  ES64L-G16RevA.03 25-Dec-2016

 -----------------------------
 # opt freq b3lyp/6-31g(2df,p)
 -----------------------------

 -------------------
 Title Card Required
 -------------------
 Symbolic Z-matrix:
 Charge =  0 Multiplicity = 1

 SCF Done:  E(RB3LYP) =  -369.819209892     A.U. after   12 cycles
 SCF Done:  E(RB3LYP) =  -369.831065000     A.U. after   12 cycles
 SCF Done:  E(RB3LYP) =  -369.835313602     A.U. after   10 cycles
 SCF Done:  E(RB3LYP) =  -369.838237241     A.U. after   11 cycles
 SCF Done:  E(RB3LYP) =  -369.839974954     A.U. after   12 cycles
 SCF Done:  E(RB3LYP) =  -369.842124520     A.U. after   13 cycles
 SCF Done:  E(RB3LYP) =  -369.843207234     A.U. after   11 cycles
 SCF Done:  E(RB3LYP) =  -369.844225674     A.U. after   12 cycles
 SCF Done:  E(RB3LYP) =  -369.844471899     A.U. after   11 cycles
 SCF Done:  E(RB3LYP) =  -369.844590291     A.U. after   11 cycles
 SCF Done:  E(RB3LYP) =  -369.844694347     A.U. after    9 cycles
 SCF Done:  E(RB3LYP) =  -369.844735435     A.U. after    9 cycles
 SCF Done:  E(RB3LYP) =  -369.844740947     A.U. after    8 cycles
 SCF Done:  E(RB3LYP) =  -369.844742365     A.U. after    8 cycles
 SCF Done:  E(RB3LYP) =  -369.844741863     A.U. after    8 cycles
 SCF Done:  E(RB3LYP) =  -369.844743283     A.U. after    8 cycles
 SCF Done:  E(RB3LYP) =  -369.844743560     A.U. after    7 cycles
 SCF Done:  E(RB3LYP) =  -369.844743632     A.U. after    7 cycles
 Optimization completed.
    -- Stationary point found.
 Normal termination of Gaussian 16 at Thu Aug  4 10:54:06 2022.

 ----------------------------------------------------------------------
 #N Geom=AllCheck Guess=TCheck SCRF=Check GenChk RB3LYP/6-31G(2df,p) Fr
 eq
 ----------------------------------------------------------------------

 Structure from the checkpoint file:  "CdCCpCpNCpCpCC.chk"
 -------------------
 Title Card Required
 -------------------
 Charge =  0 Multiplicity = 1

                         Standard orientation:
 ---------------------------------------------------------------------
 Center     Atomic      Atomic             Coordinates (Angstroms)
 Number     Number       Type             X           Y           Z
 ---------------------------------------------------------------------
      1          6           0        3.377712   -1.337635    0.071093
      2          6           0        2.580530   -0.389077   -0.408309
      3          6           0        1.371229    0.165638    0.298213
      4          6           0        1.571404    1.659601    0.598584
      5          7           0        0.199886   -0.050972   -0.561958
      6          6           0       -1.119668    0.205004    0.047741
      7          6           0       -1.735887    1.484742   -0.535311
      8          6           0       -2.025295   -1.022385   -0.156971
      9          6           0       -3.415557   -0.918629    0.476274
     10          1           0        4.241767   -1.693601   -0.480352
     11          1           0        3.201270   -1.794172    1.041370
     12          1           0        2.776256    0.047585   -1.387083
     13          1           0        1.267630   -0.359754    1.267231
     14          1           0        1.693477    2.222759   -0.332124
     15          1           0        2.462656    1.803011    1.216377
     16          1           0        0.716746    2.075529    1.139823
     17          1           0        0.233429   -1.008871   -0.892011
     18          1           0       -0.999496    0.342996    1.135688
     19          1           0       -1.943931    1.351149   -1.602507
     20          1           0       -1.045438    2.325732   -0.438133
     21          1           0       -2.668964    1.753627   -0.029717
     22          1           0       -1.508219   -1.897914    0.257710
     23          1           0       -2.124807   -1.203394   -1.236577
     24          1           0       -3.347260   -0.708373    1.549615
     25          1           0       -3.966204   -1.856944    0.357328
     26          1           0       -4.014920   -0.126112    0.019179
 ---------------------------------------------------------------------

 SCF Done:  E(RB3LYP) =  -369.844743632     A.U. after    1 cycles

 The electronic state is 1-A.
 Alpha  occ. eigenvalues --  -14.30161 -10.20919 -10.20468 -10.18086 -10.17981
 Alpha  occ. eigenvalues --  -10.17512 -10.17386 -10.16891 -10.16220  -0.89940
 Alpha  occ. eigenvalues --   -0.79678  -0.75780  -0.71847  -0.70747  -0.63746
 Alpha  occ. eigenvalues --   -0.60462  -0.56462  -0.54661  -0.48362  -0.46596
 Alpha  occ. eigenvalues --   -0.45831  -0.43719  -0.42810  -0.40704  -0.38675
 Alpha  occ. eigenvalues --   -0.38109  -0.37727  -0.36977  -0.36732  -0.35130
 Alpha  occ. eigenvalues --   -0.34327  -0.32851  -0.31982  -0.31114  -0.25848
 Alpha  occ. eigenvalues --   -0.21490
 Alpha virt. eigenvalues --    0.01906   0.08778   0.10974   0.11347   0.12038
 Alpha virt. eigenvalues --    0.12904   0.13749   0.15036   0.15463   0.16289
 Alpha virt. eigenvalues --    0.17363   0.17415   0.18394   0.18474   0.19158

 Mulliken charges:
               1
     1  C   -0.331066
     2  C    0.019125
     3  C    0.021501
     4  C   -0.375084
     5  N   -0.322818
     6  C    0.081205
     7  C   -0.366924
     8  C   -0.187337
     9  C   -0.389021
    10  H    0.111660
    11  H    0.102820
    12  H    0.093672
    13  H    0.050833
    14  H    0.119300
    15  H    0.113520
    16  H    0.116135
    17  H    0.209926
    18  H    0.061437
    19  H    0.111447
    20  H    0.114191
    21  H    0.104120
    22  H    0.091790
    23  H    0.099496
    24  H    0.114737
    25  H    0.112985
    26  H    0.122350
 Sum of Mulliken charges =  -0.00000

 Dipole moment (field-independent basis, Debye):
    X=             -0.2934    Y=             -0.5994    Z=              0.5092  Tot=              0.8394
 Quadrupole moment (field-independent basis, Debye-Ang):
   XX=            -58.1954   YY=            -58.4147   ZZ=            -58.9333
   XY=             -0.1782   XZ=             -0.3022   YZ=              0.4533

  Exact polarizability: 116.081  -9.543  93.658   0.311  -2.946  80.862
 Approx polarizability: 139.398 -15.666 133.154   2.655  -6.288 126.954

                      1                      2                      3
                      A                      A                      A
 Frequencies --     44.6497                59.0724                84.4699
 Red. masses --      2.8916                 3.0074                 2.3946
 Frc consts  --      0.0034                 0.0062                 0.0101
 IR Inten    --      0.1552                 0.1966                 0.1251

                      4                      5                      6
                      A                      A                      A
 Frequencies --    107.8012               165.4262               211.2258
 Red. masses --      2.0904                 2.0423                 1.0393
 Frc consts  --      0.0143                 0.0329                 0.0273
 IR Inten    --      0.2093                 0.2316                 0.0711

                      7                      8                      9
                      A                      A                      A
 Frequencies --    249.0510               265.7045               273.5562
 Red. masses --      1.6732                 1.2642                 1.4639
 Frc consts  --      0.0611                 0.0526                 0.0645
 IR Inten    --      0.0506                 0.1341                 0.2640

                     10                     11                     12
                      A                      A                      A
 Frequencies --    287.7345               309.9834               360.7920
 Red. masses --      1.9171                 2.4079                 2.2100
 Frc consts  --      0.0935                 0.1363                 0.1695
 IR Inten    --      0.2483                 1.0141                 0.1094

                     13                     14                     15
                      A                      A                      A
 Frequencies --    398.5111               460.3034               485.1901
 Red. masses --      2.8074                 2.0714                 2.4033
 Frc consts  --      0.2627                 0.2586                 0.3333
 IR Inten    --      1.3542                 6.4287                 4.6175

                     16                     17                     18
                      A                      A                      A
 Frequencies --    542.9873               695.2500               753.0661
 Red. masses --      2.4472                 1.7934                 1.5613
 Frc consts  --      0.4251                 0.5107                 0.5217
 IR Inten    --      5.6259                 6.9414                45.0381

                     19                     20                     21
                      A                      A                      A
 Frequencies --    783.8006               831.7559               860.0989
 Red. masses --      1.2840                 1.9910                 1.7829
 Frc consts  --      0.4648                 0.8116                 0.7771
 IR Inten    --      3.5236                 1.3605                 2.2115

                     22                     23                     24
                      A                      A                      A
 Frequencies --    907.2759               955.5122               958.4980
 Red. masses --      2.0077                 1.3661                 1.6547
 Frc consts  --      0.9737                 0.7349                 0.8957
 IR Inten    --      0.3294                25.0770                 6.8855

                     25                     26                     27
                      A                      A                      A
 Frequencies --    973.1214               992.5110              1023.0721
 Red. masses --      1.2144                 1.2501                 1.6888
 Frc consts  --      0.6775                 0.7255                 1.0415
 IR Inten    --      1.0962                 4.8740                 2.7380

                     28                     29                     30
                      A                      A                      A
 Frequencies --   1041.8531              1055.0111              1092.5488
 Red. masses --      1.2014                 2.3615                 2.2071
 Frc consts  --      0.7683                 1.5486                 1.5523
 IR Inten    --     13.9377                 2.3746                12.0635

                     31                     32                     33
                      A                      A                      A
 Frequencies --   1132.9162              1146.8482              1175.3114
 Red. masses --      1.9271                 2.4075                 2.3953
 Frc consts  --      1.4573                 1.8657                 1.9495
 IR Inten    --      7.4288                32.5114                14.5186

                     34                     35                     36
                      A                      A                      A
 Frequencies --   1189.4613              1217.4325              1292.9353
 Red. masses --      2.1665                 2.0721                 1.2523
 Frc consts  --      1.8059                 1.8095                 1.2335
 IR Inten    --     28.2264                 0.5562                 2.9538

                     37                     38                     39
                      A                      A                      A
 Frequencies --   1308.3332              1324.1080              1343.1752
 Red. masses --      1.2795                 1.1885                 1.3007
 Frc consts  --      1.2904                 1.2277                 1.3826
 IR Inten    --      8.3371                10.0593                11.1717

                     40                     41                     42
                      A                      A                      A
 Frequencies --   1349.4472              1372.5721              1387.9783
 Red. masses --      1.2637                 1.4097                 1.2651
 Frc consts  --      1.3558                 1.5647                 1.4359
 IR Inten    --     38.6476                 6.4177                 2.3701

                     43                     44                     45
                      A                      A                      A
 Frequencies --   1399.4414              1409.9466              1412.9086
 Red. masses --      1.2491                 1.3305                 1.2198
 Frc consts  --      1.4413                 1.5584                 1.4348
 IR Inten    --      8.0403                12.4330                 2.4618

                     46                     47                     48
                      A                      A                      A
 Frequencies --   1457.7806              1482.2946              1484.7232
 Red. masses --      1.1779                 1.0756                 1.0645
 Frc consts  --      1.4748                 1.3925                 1.3825
 IR Inten    --      3.4712                 7.3851                 3.6659

                     49                     50                     51
                      A                      A                      A
 Frequencies --   1490.9568              1496.0650              1499.3558
 Red. masses --      1.0682                 1.0601                 1.0675
 Frc consts  --      1.3990                 1.3979                 1.4139
 IR Inten    --      4.6830                11.0276                 2.7169

                     52                     53                     54
                      A                      A                      A
 Frequencies --   1504.5313              1509.1914              1513.8092
 Red. masses --      1.0601                 1.0781                 1.1472
 Frc consts  --      1.4138                 1.4467                 1.5490
 IR Inten    --      1.9420                 3.4951                15.5659

                     55                     56                     57
                      A                      A                      A
 Frequencies --   1717.7149              2904.4677              2951.4313
 Red. masses --      4.9326                 1.0809                 1.0817
 Frc consts  --      8.5749                 5.3724                 5.5517
 IR Inten    --      4.1532                51.8154                32.6022

                     58                     59                     60
                      A                      A                      A
 Frequencies --   3005.5090              3033.0013              3035.9458
 Red. masses --      1.0588                 1.0393                 1.0375
 Frc consts  --      5.6350                 5.6328                 5.6342
 IR Inten    --     28.1417                14.1314                23.8601

                     61                     62                     63
                      A                      A                      A
 Frequencies --   3037.5592              3041.9658              3098.1590
 Red. masses --      1.0350                 1.0976                 1.1007
 Frc consts  --      5.6263                 5.9843                 6.2247
 IR Inten    --     26.9032                24.7569                31.5259

                     64                     65                     66
                      A                      A                      A
 Frequencies --   3102.1200              3110.9000              3112.0475
 Red. masses --      1.1015                 1.1010                 1.1009
 Frc consts  --      6.2455                 6.2778                 6.2817
 IR Inten    --     38.5716                31.5645                36.0365

                     67                     68                     69
                      A                      A                      A
 Frequencies --   3114.4028              3122.7869              3133.7419
 Red. masses --      1.1021                 1.0992                 1.0660
 Frc consts  --      6.2980                 6.3156                 6.1680
 IR Inten    --     33.8143                16.0512                16.9277

                     70                     71                     72
                      A                      A                      A
 Frequencies --   3144.1640              3220.6347              3525.9212
 Red. masses --      1.0839                 1.1142                 1.0743
 Frc consts  --      6.3133                 6.8090                 7.8691
 IR Inten    --      4.3624                16.7324                 0.1191

 - Thermochemistry -
 -------------------
 Temperature   298.150 Kelvin.  Pressure   1.00000 Atm.
 Atom     1 has atomic number  6 and mass  12.00000

 Molecular mass:   127.13610 amu.
 Principal axes and moments of inertia in atomic units:
                           1         2         3
     Eigenvalues --   646.185852341.555822736.70516
           X            0.99999   0.00363   0.00017
           Y           -0.00363   0.99999  -0.00405
           Z           -0.00018   0.00405   0.99999
 This molecule is an asymmetric top.
 Rotational symmetry number  1.
 Warning -- assumption of classical behavior for rotation
           may cause significant error
 Rotational temperatures (Kelvin)      0.13404     0.03699     0.03165
 Rotational constants (GHZ):           2.79291     0.77074     0.65946
 Zero-point vibrational energy     625311.0 (Joules/Mol)
                                  149.45291 (Kcal/Mol)
 Warning -- explicit consideration of  16 degrees of freedom as
           vibrations may cause significant error
 Vibrational temperatures:     64.24    84.99   121.53   155.10   238.01
          (Kelvin)            303.91   358.33   382.29   393.59   413.99
                              446.00   519.10   573.37   662.27   698.08
                              781.24  1000.31  1083.49  1127.71  1196.71
                             1237.49  1305.37  1374.77  1379.06  1400.10
                             1428.00  1471.97  1498.99  1517.93  1571.93
                             1630.01  1650.06  1691.01  1711.37  1751.61
                             1860.25  1882.40  1905.10  1932.53  1941.55
                             1974.83  1996.99  2013.48  2028.60  2032.86
                             2097.42  2132.69  2136.19  2145.15  2152.50
                             2157.24  2164.68  2171.39  2178.03  2471.41
                             4178.88  4246.45  4324.26  4363.81  4368.05
                             4370.37  4376.71  4457.56  4463.26  4475.89
                             4477.54  4480.93  4492.99  4508.76  4523.75
                             4633.78  5073.01

 Zero-point correction=                           0.238168 (Hartree/Particle)
 Thermal correction to Energy=                    0.249896
 Thermal correction to Enthalpy=                  0.250840
 Thermal correction to Gibbs Free Energy=         0.200559
 Sum of electronic and zero-point Energies=           -369.606575
 Sum of electronic and thermal Energies=              -369.594848
 Sum of electronic and thermal Enthalpies=            -369.593904
 Sum of electronic and thermal Free Energies=         -369.644185

                     E (Thermal)             CV                S
                      KCal/Mol        Cal/Mol-Kelvin    Cal/Mol-Kelvin
 Total                  156.812             42.809            105.826
 Electronic               0.000              0.000              0.000
 Translational            0.889              2.981             40.434
 Rotational               0.889              2.981             29.805
 Vibrational            155.035             36.848             35.587
 Vibration     1          0.595              1.980              5.041
 Vibration     2          0.596              1.974              4.488
 Vibration     3          0.601              1.960              3.784
 Vibration     4          0.606              1.943              3.308
 Vibration     5          0.624              1.885              2.487
 Vibration     6          0.643              1.824              2.033
 Vibration     7          0.662              1.764              1.737
 Vibration     8          0.672              1.736              1.624
 Vibration     9          0.676              1.722              1.574
 Vibration    10          0.685              1.697              1.487
 Vibration    11          0.699              1.655              1.362
 Vibration    12          0.735              1.553              1.119
 Vibration    13          0.765              1.473              0.968
 Vibration    14          0.818              1.338              0.765
 Vibration    15          0.841              1.283              0.696
 Vibration    16          0.898              1.155              0.559

 Optimization completed.
    -- Stationary point found.
 Normal termination of Gaussian 16 at Thu Aug  4 11:31:26 2022.
