 Gaussian 16, Revision A.03,
 Gaussian 16:  ES64L-G16RevA.03 25-Dec-2016

 -----------------------------
 # opt freq b3lyp/6-31g(2df,p)
 -----------------------------

 -------------------
 Title Card Required
 -------------------
 Symbolic Z-matrix:
 Charge =  0 Multiplicity = 1

 SCF Done:  E(RB3LYP) =  -404.583111806     A.U. after   14 cycles
 SCF Done:  E(RB3LYP) =  -404.586613797     A.U. after   12 cycles
 SCF Done:  E(RB3LYP) =  -404.587064535     A.U. after   12 cycles
 SCF Done:  E(RB3LYP) =  -404.587276503     A.U. after   12 cycles
 SCF Done:  E(RB3LYP) =  -404.587499228     A.U. after   10 cycles
 SCF Done:  E(RB3LYP) =  -404.587547471     A.U. after    9 cycles
 SCF Done:  E(RB3LYP) =  -404.587593844     A.U. after   10 cycles
 SCF Done:  E(RB3LYP) =  -404.587623449     A.U. after   11 cycles
 SCF Done:  E(RB3LYP) =  -404.587633249     A.U. after    9 cycles
 SCF Done:  E(RB3LYP) =  -404.587638275     A.U. after    9 cycles
 SCF Done:  E(RB3LYP) =  -404.587638464     A.U. after    8 cycles
 Optimization completed.
    -- Stationary point found.
 Normal termination of Gaussian 16 at Thu Aug  4 16:39:47 2022.

 ----------------------------------------------------------------------
 #N Geom=AllCheck Guess=TCheck SCRF=Check GenChk RB3LYP/6-31G(2df,p) Fr
 eq
 ----------------------------------------------------------------------

 Structure from the checkpoint file:  "CdCNCpdOpCCpCpC.chk"
 -------------------
 Title Card Required
 -------------------
 Charge =  0 Multiplicity = 1

                         Standard orientation:
 ---------------------------------------------------------------------
 Center     Atomic      Atomic             Coordinates (Angstroms)
 Number     Number       Type             X           Y           Z
 ---------------------------------------------------------------------
      1          6           0       -3.988131   -0.359070    0.437994
      2          6           0       -2.850122    0.153363   -0.027199
      3          7           0       -1.596733   -0.438776    0.105647
      4          6           0       -0.437111    0.118098   -0.394862
      5          8           0       -0.429284    1.188267   -0.971799
      6          6           0        0.811806   -0.734466   -0.196118
      7          6           0        2.104151    0.094823   -0.134072
      8          6           0        2.151933    0.964104    1.129416
      9          6           0        3.335154   -0.813955   -0.232114
     10          1           0       -4.922310    0.166315    0.292473
     11          1           0       -4.027443   -1.303690    0.971130
     12          1           0       -2.800121    1.095435   -0.560146
     13          1           0       -1.535608   -1.324636    0.583372
     14          1           0        0.859582   -1.428457   -1.046880
     15          1           0        0.710802   -1.357238    0.702894
     16          1           0        2.087589    0.763245   -1.002100
     17          1           0        2.145739    0.344434    2.035025
     18          1           0        1.297987    1.645481    1.173114
     19          1           0        3.063614    1.569640    1.150960
     20          1           0        3.381222   -1.513319    0.611796
     21          1           0        4.257315   -0.224184   -0.220790
     22          1           0        3.326947   -1.405109   -1.154255
 ---------------------------------------------------------------------

 SCF Done:  E(RB3LYP) =  -404.587638464     A.U. after    1 cycles

 The electronic state is 1-A.
 Alpha  occ. eigenvalues --  -19.10987 -14.36901 -10.28485 -10.22107 -10.19514
 Alpha  occ. eigenvalues --  -10.18908 -10.17432 -10.17302 -10.16956  -1.03995
 Alpha  occ. eigenvalues --   -0.93588  -0.81147  -0.76190  -0.70849  -0.68178
 Alpha  occ. eigenvalues --   -0.61363  -0.59618  -0.55797  -0.49819  -0.48615
 Alpha  occ. eigenvalues --   -0.46828  -0.43948  -0.43071  -0.42368  -0.40863
 Alpha  occ. eigenvalues --   -0.39010  -0.38396  -0.37762  -0.36908  -0.33542
 Alpha  occ. eigenvalues --   -0.33353  -0.32434  -0.32038  -0.25505  -0.22514
 Alpha virt. eigenvalues --   -0.00206   0.06170   0.07180   0.08950   0.12404
 Alpha virt. eigenvalues --    0.13354   0.14144   0.14711   0.15101   0.15753
 Alpha virt. eigenvalues --    0.17248   0.18667   0.19014   0.19596   0.19927

 Mulliken charges:
               1
     1  C   -0.405889
     2  C    0.116844
     3  N   -0.335900
     4  C    0.426792
     5  O   -0.363352
     6  C   -0.329906
     7  C    0.062632
     8  C   -0.390271
     9  C   -0.399037
    10  H    0.122028
    11  H    0.094495
    12  H    0.143587
    13  H    0.250684
    14  H    0.127129
    15  H    0.095614
    16  H    0.103657
    17  H    0.103320
    18  H    0.132057
    19  H    0.112942
    20  H    0.108590
    21  H    0.114432
    22  H    0.109553
 Sum of Mulliken charges =  -0.00000

 Dipole moment (field-independent basis, Debye):
    X=              0.2140    Y=             -2.6246    Z=              1.3072  Tot=              2.9399
 Quadrupole moment (field-independent basis, Debye-Ang):
   XX=            -53.7594   YY=            -55.9182   ZZ=            -57.6404
   XY=              1.2820   XZ=             -1.2691   YZ=              0.3621

  Exact polarizability: 127.437   4.255  76.615  -8.993  -6.302  66.812
 Approx polarizability: 155.453  12.313 121.219 -16.616 -18.117 103.927

                      1                      2                      3
                      A                      A                      A
 Frequencies --     19.7502                73.6169               113.7353
 Red. masses --      3.6228                 2.7652                 3.7624
 Frc consts  --      0.0008                 0.0088                 0.0287
 IR Inten    --      1.0684                 1.9876                 0.9373

                      4                      5                      6
                      A                      A                      A
 Frequencies --    134.2453               175.8127               223.4909
 Red. masses --      2.9458                 2.1088                 2.5630
 Frc consts  --      0.0313                 0.0384                 0.0754
 IR Inten    --      0.0204                 2.2664                10.2782

                      7                      8                      9
                      A                      A                      A
 Frequencies --    230.6535               255.8476               305.7279
 Red. masses --      1.0770                 1.1954                 2.6720
 Frc consts  --      0.0338                 0.0461                 0.1471
 IR Inten    --      0.6195                 1.5708                 0.7821

                     10                     11                     12
                      A                      A                      A
 Frequencies --    357.9627               406.6261               421.5441
 Red. masses --      2.4913                 2.6064                 2.5819
 Frc consts  --      0.1881                 0.2539                 0.2703
 IR Inten    --      7.4964                 0.6880                 0.3580

                     13                     14                     15
                      A                      A                      A
 Frequencies --    463.7844               541.1505               618.1686
 Red. masses --      2.6754                 1.4269                 1.7795
 Frc consts  --      0.3391                 0.2462                 0.4007
 IR Inten    --      2.9589                53.8099                12.2436

                     16                     17                     18
                      A                      A                      A
 Frequencies --    714.8822               736.4006               834.2042
 Red. masses --      1.5884                 4.2469                 2.6288
 Frc consts  --      0.4783                 1.3569                 1.0778
 IR Inten    --      0.4443                 4.0156                 1.1210

                     19                     20                     21
                      A                      A                      A
 Frequencies --    858.6805               894.4772               919.6346
 Red. masses --      1.3906                 1.7071                 2.1101
 Frc consts  --      0.6041                 0.8047                 1.0514
 IR Inten    --     42.3596                 5.5038                 2.7791

                     22                     23                     24
                      A                      A                      A
 Frequencies --    932.2191               959.7833               972.1221
 Red. masses --      1.1959                 1.8661                 1.6298
 Frc consts  --      0.6123                 1.0128                 0.9075
 IR Inten    --      2.3707                 1.5179                 0.0666

                     25                     26                     27
                      A                      A                      A
 Frequencies --   1018.6111              1038.0046              1114.7851
 Red. masses --      2.4719                 1.1206                 1.5722
 Frc consts  --      1.5111                 0.7114                 1.1511
 IR Inten    --      6.5510                16.2333                 3.8046

                     28                     29                     30
                      A                      A                      A
 Frequencies --   1129.9514              1189.5554              1195.7185
 Red. masses --      2.1451                 2.1571                 1.8921
 Frc consts  --      1.6137                 1.7984                 1.5939
 IR Inten    --     19.3350                41.7931                13.8240

                     31                     32                     33
                      A                      A                      A
 Frequencies --   1243.6121              1263.0709              1311.4741
 Red. masses --      1.9804                 1.5788                 1.3425
 Frc consts  --      1.8045                 1.4840                 1.3604
 IR Inten    --    155.6736                73.7584                 1.6407

                     34                     35                     36
                      A                      A                      A
 Frequencies --   1318.4324              1366.4607              1390.5186
 Red. masses --      1.2769                 1.4170                 1.4211
 Frc consts  --      1.3077                 1.5589                 1.6189
 IR Inten    --     41.1339                 3.6467                 9.1546

                     37                     38                     39
                      A                      A                      A
 Frequencies --   1400.6206              1420.3710              1429.1140
 Red. masses --      1.2635                 1.2301                 1.3617
 Frc consts  --      1.4604                 1.4621                 1.6386
 IR Inten    --      5.3923                 9.5160                68.5948

                     40                     41                     42
                      A                      A                      A
 Frequencies --   1457.3459              1488.5380              1494.4772
 Red. masses --      1.0909                 1.0483                 1.0524
 Frc consts  --      1.3651                 1.3686                 1.3848
 IR Inten    --      4.4033                 2.2552                 2.8120

                     43                     44                     45
                      A                      A                      A
 Frequencies --   1505.3873              1512.1444              1521.6845
 Red. masses --      1.0584                 1.0473                 1.6922
 Frc consts  --      1.4132                 1.4109                 2.3086
 IR Inten    --      3.7385                 8.5100               232.4836

                     46                     47                     48
                      A                      A                      A
 Frequencies --   1718.9282              1784.0077              3009.1938
 Red. masses --      4.7111                 9.0738                 1.0582
 Frc consts  --      8.2014                17.0151                 5.6458
 IR Inten    --    206.2055               184.3758                17.1564

                     49                     50                     51
                      A                      A                      A
 Frequencies --   3021.0670              3025.4753              3041.3190
 Red. masses --      1.0369                 1.0416                 1.0914
 Frc consts  --      5.5760                 5.6174                 5.9481
 IR Inten    --     26.8450                23.2437                 4.5481

                     52                     53                     54
                      A                      A                      A
 Frequencies --   3055.4441              3085.6089              3093.9317
 Red. masses --      1.0901                 1.0989                 1.0987
 Frc consts  --      5.9962                 6.1643                 6.1965
 IR Inten    --     11.4826                13.8618                47.7907

                     55                     56                     57
                      A                      A                      A
 Frequencies --   3099.9889              3115.6326              3155.9568
 Red. masses --      1.1006                 1.1005                 1.0635
 Frc consts  --      6.2314                 6.2942                 6.2412
 IR Inten    --     43.9406                24.8880                 4.3166

                     58                     59                     60
                      A                      A                      A
 Frequencies --   3218.7530              3254.2838              3627.3940
 Red. masses --      1.0914                 1.1118                 1.0765
 Frc consts  --      6.6622                 6.9373                 8.3457
 IR Inten    --      5.4888                 6.4505                15.9139

 - Thermochemistry -
 -------------------
 Temperature   298.150 Kelvin.  Pressure   1.00000 Atm.
 Atom     1 has atomic number  6 and mass  12.00000

 Molecular mass:   127.09971 amu.
 Principal axes and moments of inertia in atomic units:
                           1         2         3
     Eigenvalues --   431.190862646.364872729.49632
           X            1.00000  -0.00068  -0.00045
           Y            0.00072   0.99527   0.09716
           Z            0.00038  -0.09716   0.99527
 This molecule is an asymmetric top.
 Rotational symmetry number  1.
 Rotational temperatures (Kelvin)      0.20087     0.03273     0.03173
 Rotational constants (GHZ):           4.18548     0.68197     0.66120
 Zero-point vibrational energy     504114.6 (Joules/Mol)
                                  120.48629 (Kcal/Mol)
 Warning -- explicit consideration of  15 degrees of freedom as
           vibrations may cause significant error
 Vibrational temperatures:     28.42   105.92   163.64   193.15   252.96
          (Kelvin)            321.55   331.86   368.11   439.87   515.03
                              585.04   606.51   667.28   778.59   889.41
                             1028.56  1059.52  1200.23  1235.45  1286.95
                             1323.15  1341.26  1380.91  1398.67  1465.55
                             1493.46  1603.93  1625.75  1711.50  1720.37
                             1789.28  1817.28  1886.92  1896.93  1966.03
                             2000.65  2015.18  2043.60  2056.18  2096.80
                             2141.67  2150.22  2165.92  2175.64  2189.36
                             2473.15  2566.79  4329.56  4346.64  4352.98
                             4375.78  4396.10  4439.50  4451.48  4460.19
                             4482.70  4540.72  4631.07  4682.19  5219.01

 Zero-point correction=                           0.192007 (Hartree/Particle)
 Thermal correction to Energy=                    0.202818
 Thermal correction to Enthalpy=                  0.203762
 Thermal correction to Gibbs Free Energy=         0.154887
 Sum of electronic and zero-point Energies=           -404.395631
 Sum of electronic and thermal Energies=              -404.384820
 Sum of electronic and thermal Enthalpies=            -404.383876
 Sum of electronic and thermal Free Energies=         -404.432751

                     E (Thermal)             CV                S
                      KCal/Mol        Cal/Mol-Kelvin    Cal/Mol-Kelvin
 Total                  127.270             38.878            102.866
 Electronic               0.000              0.000              0.000
 Translational            0.889              2.981             40.433
 Rotational               0.889              2.981             29.522
 Vibrational            125.493             32.917             32.911
 Vibration     1          0.593              1.986              6.659
 Vibration     2          0.599              1.966              4.054
 Vibration     3          0.607              1.938              3.204
 Vibration     4          0.613              1.919              2.884
 Vibration     5          0.628              1.872              2.372
 Vibration     6          0.649              1.805              1.931
 Vibration     7          0.652              1.794              1.874
 Vibration     8          0.666              1.753              1.690
 Vibration     9          0.696              1.663              1.385
 Vibration    10          0.733              1.559              1.131
 Vibration    11          0.771              1.456              0.939
 Vibration    12          0.784              1.423              0.887
 Vibration    13          0.821              1.330              0.755
 Vibration    14          0.896              1.159              0.563
 Vibration    15          0.978              0.994              0.419

                           ! Non-Optimized Parameters !
 Normal termination of Gaussian 16 at Thu Aug  4 17:07:33 2022.
