 Gaussian 16, Revision A.03,
 Gaussian 16:  ES64L-G16RevA.03 25-Dec-2016

 -----------------------------
 # opt freq b3lyp/6-31g(2df,p)
 -----------------------------

 -------------------
 Title Card Required
 -------------------
 Symbolic Z-matrix:
 Charge =  0 Multiplicity = 1

 SCF Done:  E(RB3LYP) =  -439.177701899     A.U. after   14 cycles
 SCF Done:  E(RB3LYP) =  -439.189011468     A.U. after   13 cycles
 SCF Done:  E(RB3LYP) =  -439.191130416     A.U. after   11 cycles
 SCF Done:  E(RB3LYP) =  -439.191686854     A.U. after   12 cycles
 SCF Done:  E(RB3LYP) =  -439.192348287     A.U. after   12 cycles
 SCF Done:  E(RB3LYP) =  -439.193340330     A.U. after   13 cycles
 SCF Done:  E(RB3LYP) =  -439.194012510     A.U. after   11 cycles
 SCF Done:  E(RB3LYP) =  -439.195057559     A.U. after   13 cycles
 SCF Done:  E(RB3LYP) =  -439.195288992     A.U. after   11 cycles
 SCF Done:  E(RB3LYP) =  -439.195479877     A.U. after   11 cycles
 SCF Done:  E(RB3LYP) =  -439.195650572     A.U. after   11 cycles
 SCF Done:  E(RB3LYP) =  -439.195753835     A.U. after   11 cycles
 SCF Done:  E(RB3LYP) =  -439.195779451     A.U. after   10 cycles
 SCF Done:  E(RB3LYP) =  -439.195784204     A.U. after    9 cycles
 SCF Done:  E(RB3LYP) =  -439.195785943     A.U. after   10 cycles
 SCF Done:  E(RB3LYP) =  -439.195787051     A.U. after    9 cycles
 SCF Done:  E(RB3LYP) =  -439.195787464     A.U. after    8 cycles
 SCF Done:  E(RB3LYP) =  -439.195787745     A.U. after    8 cycles
 SCF Done:  E(RB3LYP) =  -439.195787788     A.U. after    7 cycles
 Optimization completed.
    -- Stationary point found.
 Normal termination of Gaussian 16 at Sun Jul  3 15:32:34 2022.

 ----------------------------------------------------------------------
 #N Geom=AllCheck Guess=TCheck SCRF=Check GenChk RB3LYP/6-31G(2df,p) Fr
 eq
 ----------------------------------------------------------------------

 Structure from the checkpoint file:  "CdCpCpOCC1NC1dO.chk"
 -------------------
 Title Card Required
 -------------------
 Charge =  0 Multiplicity = 1

                         Standard orientation:
 ---------------------------------------------------------------------
 Center     Atomic      Atomic             Coordinates (Angstroms)
 Number     Number       Type             X           Y           Z
 ---------------------------------------------------------------------
      1          6           0       -3.175210   -0.880158    0.485511
      2          6           0       -2.202050   -0.039354    0.141828
      3          6           0       -2.424865    1.364812   -0.345877
      4          8           0       -0.899118   -0.447771    0.321064
      5          6           0        0.063375   -0.056373   -0.640262
      6          6           0        1.358031   -0.742869   -0.259499
      7          7           0        2.649105   -0.329424   -0.942961
      8          6           0        2.436964    0.056610    0.350146
      9          8           0        2.877567    0.720108    1.239179
     10          1           0       -4.211111   -0.570722    0.448451
     11          1           0       -2.948408   -1.878605    0.837258
     12          1           0       -3.489630    1.601910   -0.324599
     13          1           0       -2.071796    1.509529   -1.373483
     14          1           0       -1.895170    2.087376    0.286128
     15          1           0        0.204010    1.033418   -0.659934
     16          1           0       -0.243007   -0.378857   -1.648575
     17          1           0        1.272929   -1.817480   -0.118341
     18          1           0        2.673381    0.324701   -1.719209
 ---------------------------------------------------------------------

 SCF Done:  E(RB3LYP) =  -439.195787788     A.U. after    1 cycles

 The electronic state is 1-A.
 Alpha  occ. eigenvalues --  -19.16903 -19.14409 -14.36658 -10.30399 -10.25955
 Alpha  occ. eigenvalues --  -10.24598 -10.24348 -10.19484 -10.16576  -1.06730
 Alpha  occ. eigenvalues --   -1.06179  -0.98449  -0.79952  -0.74213  -0.69830
 Alpha  occ. eigenvalues --   -0.66566  -0.57763  -0.56908  -0.51480  -0.49601
 Alpha  occ. eigenvalues --   -0.48074  -0.46798  -0.44915  -0.42992  -0.42456
 Alpha  occ. eigenvalues --   -0.41073  -0.38504  -0.37999  -0.37523  -0.35163
 Alpha  occ. eigenvalues --   -0.31130  -0.30412  -0.25107  -0.23152
 Alpha virt. eigenvalues --   -0.00915   0.02782   0.05629   0.07765   0.11364
 Alpha virt. eigenvalues --    0.11960   0.13041   0.13317   0.15050   0.16333
 Alpha virt. eigenvalues --    0.16712   0.18767   0.19319   0.21396   0.21781

 Mulliken charges:
               1
     1  C   -0.416998
     2  C    0.431542
     3  C   -0.484675
     4  O   -0.260781
     5  C   -0.103329
     6  C   -0.150945
     7  N   -0.382241
     8  C    0.447297
     9  O   -0.316450
    10  H    0.108448
    11  H    0.109055
    12  H    0.135606
    13  H    0.129465
    14  H    0.140759
    15  H    0.107021
    16  H    0.108164
    17  H    0.133320
    18  H    0.264742
 Sum of Mulliken charges =   0.00000

 Dipole moment (field-independent basis, Debye):
    X=             -1.8199    Y=              0.5168    Z=             -3.3796  Tot=              3.8731
 Quadrupole moment (field-independent basis, Debye-Ang):
   XX=            -58.6003   YY=            -51.4136   ZZ=            -54.0270
   XY=             -3.0321   XZ=             -5.6193   YZ=             -3.5202

  Exact polarizability:  97.819  10.248  70.312  -4.196  -2.894  63.347
 Approx polarizability: 124.484  19.755 106.531  -5.033   0.568 104.680

                      1                      2                      3
                      A                      A                      A
 Frequencies --     33.0275                43.3967                87.4540
 Red. masses --      3.7822                 4.8593                 4.5072
 Frc consts  --      0.0024                 0.0054                 0.0203
 IR Inten    --      1.7076                 1.4187                 4.2018

                      4                      5                      6
                      A                      A                      A
 Frequencies --    135.5509               204.4582               232.2989
 Red. masses --      3.8458                 2.7923                 1.1005
 Frc consts  --      0.0416                 0.0688                 0.0350
 IR Inten    --      1.2553                 1.9531                 0.2185

                      7                      8                      9
                      A                      A                      A
 Frequencies --    320.9603               343.9982               453.1914
 Red. masses --      3.4551                 3.1848                 2.5763
 Frc consts  --      0.2097                 0.2220                 0.3118
 IR Inten    --      2.3848                 6.5972                 3.8446

                     10                     11                     12
                      A                      A                      A
 Frequencies --    481.7333               505.5400               534.3559
 Red. masses --      2.6409                 3.5410                 1.8553
 Frc consts  --      0.3611                 0.5332                 0.3121
 IR Inten    --      4.7826                 1.8858               114.5801

                     13                     14                     15
                      A                      A                      A
 Frequencies --    541.9125               683.0874               751.6996
 Red. masses --      2.2483                 4.0927                 1.1732
 Frc consts  --      0.3890                 1.1251                 0.3906
 IR Inten    --     70.1766                76.2573                 1.6289

                     16                     17                     18
                      A                      A                      A
 Frequencies --    805.2509               848.4691               874.4012
 Red. masses --      3.6660                 3.7485                 1.3680
 Frc consts  --      1.4006                 1.5900                 0.6163
 IR Inten    --     23.3322                 8.7272                40.2104

                     19                     20                     21
                      A                      A                      A
 Frequencies --    921.8052               958.0601              1000.0935
 Red. masses --      2.5729                 2.2161                 1.6145
 Frc consts  --      1.2881                 1.1984                 0.9514
 IR Inten    --      2.5816                10.8562                22.7322

                     22                     23                     24
                      A                      A                      A
 Frequencies --   1028.2502              1037.5007              1069.1357
 Red. masses --      1.5437                 1.4780                 1.5333
 Frc consts  --      0.9616                 0.9373                 1.0327
 IR Inten    --      7.0663                 6.7015                 2.4254

                     25                     26                     27
                      A                      A                      A
 Frequencies --   1123.0585              1149.6336              1174.3854
 Red. masses --      4.9904                 1.7632                 2.3399
 Frc consts  --      3.7084                 1.3730                 1.9014
 IR Inten    --    160.2674                32.1488                17.7955

                     28                     29                     30
                      A                      A                      A
 Frequencies --   1194.1617              1246.0856              1290.9853
 Red. masses --      2.4007                 1.1325                 3.5928
 Frc consts  --      2.0170                 1.0361                 3.5280
 IR Inten    --      5.0017                 0.7453               235.8287

                     31                     32                     33
                      A                      A                      A
 Frequencies --   1353.6754              1405.1214              1417.3159
 Red. masses --      1.4505                 1.2242                 1.4327
 Frc consts  --      1.5660                 1.4241                 1.6957
 IR Inten    --     11.7748                31.4424                 5.9662

                     34                     35                     36
                      A                      A                      A
 Frequencies --   1433.8625              1478.1882              1492.3357
 Red. masses --      1.2340                 1.0452                 1.0591
 Frc consts  --      1.4947                 1.3455                 1.3897
 IR Inten    --      3.9306                 7.4250                 8.3200

                     37                     38                     39
                      A                      A                      A
 Frequencies --   1517.6489              1730.0770              1980.8259
 Red. masses --      1.0828                 5.7594                12.0874
 Frc consts  --      1.4695                10.1568                27.9431
 IR Inten    --      4.3334               104.7869               421.7863

                     40                     41                     42
                      A                      A                      A
 Frequencies --   2969.8866              3021.3610              3030.6562
 Red. masses --      1.0601                 1.0926                 1.0460
 Frc consts  --      5.5088                 5.8767                 5.6605
 IR Inten    --     38.4014                17.7623                30.7040

                     43                     44                     45
                      A                      A                      A
 Frequencies --   3080.0807              3136.8117              3144.2511
 Red. masses --      1.0992                 1.0978                 1.0887
 Frc consts  --      6.1442                 6.3643                 6.3417
 IR Inten    --     14.6783                14.3040                 8.3566

                     46                     47                     48
                      A                      A                      A
 Frequencies --   3175.1084              3266.1848              3531.6651
 Red. masses --      1.0611                 1.1164                 1.0779
 Frc consts  --      6.3028                 7.0173                 7.9213
 IR Inten    --      0.1640                 5.7493                22.4844

 - Thermochemistry -
 -------------------
 Temperature   298.150 Kelvin.  Pressure   1.00000 Atm.
 Atom     1 has atomic number  6 and mass  12.00000

 Molecular mass:   127.06333 amu.
 Principal axes and moments of inertia in atomic units:
                           1         2         3
     Eigenvalues --   458.749212498.389542544.37651
           X            0.99991  -0.01284  -0.00444
           Y            0.01049   0.93745  -0.34797
           Z            0.00863   0.34789   0.93749
 This molecule is an asymmetric top.
 Rotational symmetry number  1.
 Warning -- assumption of classical behavior for rotation
           may cause significant error
 Rotational temperatures (Kelvin)      0.18880     0.03467     0.03404
 Rotational constants (GHZ):           3.93405     0.72236     0.70931
 Zero-point vibrational energy     378253.2 (Joules/Mol)
                                   90.40469 (Kcal/Mol)
 Warning -- explicit consideration of  13 degrees of freedom as
           vibrations may cause significant error
 Vibrational temperatures:     47.52    62.44   125.83   195.03   294.17
          (Kelvin)            334.23   461.79   494.94   652.04   693.11
                              727.36   768.82   779.69   982.81  1081.53
                             1158.58  1220.76  1258.07  1326.27  1378.43
                             1438.91  1479.42  1492.73  1538.25  1615.83
                             1654.07  1689.68  1718.13  1792.84  1857.44
                             1947.64  2021.66  2039.20  2063.01  2126.78
                             2147.14  2183.56  2489.19  2849.97  4273.00
                             4347.06  4360.44  4431.55  4513.17  4523.88
                             4568.27  4699.31  5081.28

 Zero-point correction=                           0.144069 (Hartree/Particle)
 Thermal correction to Energy=                    0.153781
 Thermal correction to Enthalpy=                  0.154725
 Thermal correction to Gibbs Free Energy=         0.107697
 Sum of electronic and zero-point Energies=           -439.051719
 Sum of electronic and thermal Energies=              -439.042007
 Sum of electronic and thermal Enthalpies=            -439.041063
 Sum of electronic and thermal Free Energies=         -439.088091

                     E (Thermal)             CV                S
                      KCal/Mol        Cal/Mol-Kelvin    Cal/Mol-Kelvin
 Total                   96.499             34.432             98.979
 Electronic               0.000              0.000              0.000
 Translational            0.889              2.981             40.432
 Rotational               0.889              2.981             29.457
 Vibrational             94.721             28.470             29.091
 Vibration     1          0.594              1.983              5.639
 Vibration     2          0.595              1.980              5.098
 Vibration     3          0.601              1.958              3.716
 Vibration     4          0.613              1.918              2.866
 Vibration     5          0.640              1.834              2.093
 Vibration     6          0.653              1.792              1.861
 Vibration     7          0.706              1.633              1.305
 Vibration     8          0.723              1.587              1.194
 Vibration     9          0.812              1.354              0.786
 Vibration    10          0.838              1.291              0.705
 Vibration    11          0.861              1.238              0.644
 Vibration    12          0.889              1.174              0.578
 Vibration    13          0.897              1.157              0.561

 Optimization completed.
    -- Stationary point found.
 Normal termination of Gaussian 16 at Sun Jul  3 15:54:01 2022.
