 Gaussian 16, Revision A.03,
 Gaussian 16:  ES64L-G16RevA.03 25-Dec-2016

 -----------------------------
 # opt freq b3lyp/6-31g(2df,p)
 -----------------------------

 -------------------
 Title Card Required
 -------------------
 Symbolic Z-matrix:
 Charge =  0 Multiplicity = 1

 SCF Done:  E(RB3LYP) =  -363.983400569     A.U. after   15 cycles
 SCF Done:  E(RB3LYP) =  -364.007703061     A.U. after   13 cycles
 SCF Done:  E(RB3LYP) =  -364.008735331     A.U. after   12 cycles
 SCF Done:  E(RB3LYP) =  -364.009803938     A.U. after   12 cycles
 SCF Done:  E(RB3LYP) =  -364.010847680     A.U. after   13 cycles
 SCF Done:  E(RB3LYP) =  -364.011317713     A.U. after   11 cycles
 SCF Done:  E(RB3LYP) =  -364.012069977     A.U. after   11 cycles
 SCF Done:  E(RB3LYP) =  -364.012956433     A.U. after   12 cycles
 SCF Done:  E(RB3LYP) =  -364.013744157     A.U. after   12 cycles
 SCF Done:  E(RB3LYP) =  -364.014131527     A.U. after   12 cycles
 SCF Done:  E(RB3LYP) =  -364.014408044     A.U. after   11 cycles
 SCF Done:  E(RB3LYP) =  -364.014498481     A.U. after   11 cycles
 SCF Done:  E(RB3LYP) =  -364.014505036     A.U. after    8 cycles
 SCF Done:  E(RB3LYP) =  -364.014507248     A.U. after    8 cycles
 SCF Done:  E(RB3LYP) =  -364.014507607     A.U. after    7 cycles
 SCF Done:  E(RB3LYP) =  -364.014507661     A.U. after    7 cycles
 Optimization completed.
    -- Stationary point found.
 Normal termination of Gaussian 16 at Thu Aug  4 09:02:03 2022.

 ----------------------------------------------------------------------
 #N Geom=AllCheck Guess=TCheck SCRF=Check GenChk RB3LYP/6-31G(2df,p) Fr
 eq
 ----------------------------------------------------------------------

 Structure from the checkpoint file:  "CdCpCpCpOpCCtN.chk"
 -------------------
 Title Card Required
 -------------------
 Charge =  0 Multiplicity = 1

                         Standard orientation:
 ---------------------------------------------------------------------
 Center     Atomic      Atomic             Coordinates (Angstroms)
 Number     Number       Type             X           Y           Z
 ---------------------------------------------------------------------
      1          6           0        2.372444   -0.893078    0.294402
      2          6           0        1.518001    0.066992   -0.053255
      3          6           0        1.939765    1.508533   -0.193728
      4          6           0        0.066209   -0.254898   -0.378346
      5          8           0       -0.263055   -1.618563   -0.245134
      6          6           0       -0.907425    0.625468    0.454890
      7          6           0       -2.307703    0.360324    0.136875
      8          7           0       -3.418450    0.167207   -0.114823
      9          1           0        3.412329   -0.670664    0.508971
     10          1           0        2.073007   -1.932757    0.346334
     11          1           0        3.025481    1.605085   -0.124347
     12          1           0        1.501339    2.147735    0.582186
     13          1           0        1.624115    1.922556   -1.159619
     14          1           0       -0.110013   -0.026287   -1.437845
     15          1           0       -0.130870   -1.873369    0.675631
     16          1           0       -0.708220    1.687848    0.285157
     17          1           0       -0.741329    0.437858    1.523336
 ---------------------------------------------------------------------

 SCF Done:  E(RB3LYP) =  -364.014507661     A.U. after    1 cycles

 The electronic state is 1-A.
 Alpha  occ. eigenvalues --  -19.15725 -14.32482 -10.26446 -10.23964 -10.21865
 Alpha  occ. eigenvalues --  -10.20969 -10.20018 -10.18656  -1.04437  -0.89866
 Alpha  occ. eigenvalues --   -0.82840  -0.78304  -0.70281  -0.67379  -0.57081
 Alpha  occ. eigenvalues --   -0.52225  -0.50143  -0.48528  -0.48002  -0.44185
 Alpha  occ. eigenvalues --   -0.42729  -0.40943  -0.39994  -0.37845  -0.35512
 Alpha  occ. eigenvalues --   -0.34494  -0.32536  -0.32224  -0.29289  -0.26697
 Alpha virt. eigenvalues --    0.00108   0.03062   0.04154   0.07181   0.08692
 Alpha virt. eigenvalues --    0.11374   0.11919   0.13554   0.14553   0.15962
 Alpha virt. eigenvalues --    0.16738   0.17284   0.20185   0.21593   0.23638

 Mulliken charges:
               1
     1  C   -0.411547
     2  C    0.326499
     3  C   -0.484872
     4  C    0.053167
     5  O   -0.408883
     6  C   -0.380209
     7  C    0.276557
     8  N   -0.302213
     9  H    0.111135
    10  H    0.113917
    11  H    0.132842
    12  H    0.131151
    13  H    0.131591
    14  H    0.122744
    15  H    0.284619
    16  H    0.156695
    17  H    0.146808
 Sum of Mulliken charges =  -0.00000

 Dipole moment (field-independent basis, Debye):
    X=              4.3204    Y=              1.4881    Z=              1.6451  Tot=              4.8566
 Quadrupole moment (field-independent basis, Debye-Ang):
   XX=            -63.6630   YY=            -46.2839   ZZ=            -46.3102
   XY=             -0.2196   XZ=             -1.5852   YZ=             -3.0048

  Exact polarizability:  93.165  -3.751  69.756   5.832  -3.927  51.281
 Approx polarizability: 130.228  -6.793 104.389  13.332  -6.719  81.244

                      1                      2                      3
                      A                      A                      A
 Frequencies --     64.1166                73.1156               136.3020
 Red. masses --      3.9386                 3.2495                 5.3455
 Frc consts  --      0.0095                 0.0102                 0.0585
 IR Inten    --      1.2382                 6.5181                 3.9846

                      4                      5                      6
                      A                      A                      A
 Frequencies --    190.1641               246.8912               315.8189
 Red. masses --      1.2002                 2.9225                 2.6235
 Frc consts  --      0.0256                 0.1050                 0.1542
 IR Inten    --      0.8430                 0.8328                 7.9654

                      7                      8                      9
                      A                      A                      A
 Frequencies --    337.9650               377.1609               400.1879
 Red. masses --      1.1740                 4.3297                 3.2762
 Frc consts  --      0.0790                 0.3629                 0.3091
 IR Inten    --     98.9173                 4.4056                 1.2203

                     10                     11                     12
                      A                      A                      A
 Frequencies --    405.9426               481.3972               557.8510
 Red. masses --      2.9017                 3.5285                 3.6111
 Frc consts  --      0.2817                 0.4818                 0.6621
 IR Inten    --      9.3229                11.6738                13.8708

                     13                     14                     15
                      A                      A                      A
 Frequencies --    570.2901               733.0780               848.5054
 Red. masses --      2.3892                 1.1718                 2.7499
 Frc consts  --      0.4578                 0.3710                 1.1665
 IR Inten    --      3.2935                 2.5865                 3.8962

                     16                     17                     18
                      A                      A                      A
 Frequencies --    888.4563               943.8699               954.9732
 Red. masses --      2.4467                 1.4299                 2.8310
 Frc consts  --      1.1379                 0.7506                 1.5212
 IR Inten    --      3.0698                26.5262                 9.0193

                     19                     20                     21
                      A                      A                      A
 Frequencies --    971.7517              1014.7606              1032.3965
 Red. masses --      1.9551                 1.4972                 2.3105
 Frc consts  --      1.0878                 0.9084                 1.4510
 IR Inten    --      8.5380                 5.7786                15.5567

                     22                     23                     24
                      A                      A                      A
 Frequencies --   1070.3162              1112.0963              1194.6224
 Red. masses --      1.5120                 3.8941                 1.1296
 Frc consts  --      1.0206                 2.8375                 0.9498
 IR Inten    --      5.0103                75.5594                14.5077

                     25                     26                     27
                      A                      A                      A
 Frequencies --   1252.9903              1284.7852              1330.2487
 Red. masses --      1.5897                 1.5685                 1.6278
 Frc consts  --      1.4705                 1.5254                 1.6972
 IR Inten    --     11.3750                 1.1295                 6.9592

                     28                     29                     30
                      A                      A                      A
 Frequencies --   1348.4541              1412.6832              1420.0251
 Red. masses --      1.3869                 1.2337                 1.2199
 Frc consts  --      1.4858                 1.4506                 1.4494
 IR Inten    --      7.2592                 1.1494                35.1224

                     31                     32                     33
                      A                      A                      A
 Frequencies --   1443.4562              1463.5401              1486.5539
 Red. masses --      1.1866                 1.0939                 1.0468
 Frc consts  --      1.4566                 1.3805                 1.3630
 IR Inten    --      3.3091                 4.2461                 6.2421

                     34                     35                     36
                      A                      A                      A
 Frequencies --   1494.0649              1720.3022              2366.9221
 Red. masses --      1.0547                 5.5546                12.6138
 Frc consts  --      1.3871                 9.6852                41.6356
 IR Inten    --     12.0170                 8.5307                 9.6142

                     37                     38                     39
                      A                      A                      A
 Frequencies --   3021.2878              3026.6930              3041.1106
 Red. masses --      1.0444                 1.0735                 1.0681
 Frc consts  --      5.6168                 5.7944                 5.8203
 IR Inten    --     12.4166                13.1783                11.6201

                     40                     41                     42
                      A                      A                      A
 Frequencies --   3069.8750              3094.7468              3120.7578
 Red. masses --      1.0987                 1.0958                 1.0983
 Frc consts  --      6.1008                 6.1835                 6.3021
 IR Inten    --     19.8756                 5.3716                17.4134

                     43                     44                     45
                      A                      A                      A
 Frequencies --   3157.6675              3241.7872              3791.3203
 Red. masses --      1.0614                 1.1138                 1.0657
 Frc consts  --      6.2353                 6.8966                 9.0255
 IR Inten    --      5.4757                 6.5005                17.2939

 - Thermochemistry -
 -------------------
 Temperature   298.150 Kelvin.  Pressure   1.00000 Atm.
 Atom     1 has atomic number  6 and mass  12.00000

 Molecular mass:   111.06841 amu.
 Principal axes and moments of inertia in atomic units:
                           1         2         3
     Eigenvalues --   435.831601512.350711847.55319
           X            0.99992   0.01293  -0.00045
           Y           -0.01294   0.99964  -0.02360
           Z            0.00014   0.02361   0.99972
 This molecule is an asymmetric top.
 Rotational symmetry number  1.
 Warning -- assumption of classical behavior for rotation
           may cause significant error
 Rotational temperatures (Kelvin)      0.19873     0.05727     0.04688
 Rotational constants (GHZ):           4.14091     1.19334     0.97683
 Zero-point vibrational energy     367919.3 (Joules/Mol)
                                   87.93482 (Kcal/Mol)
 Warning -- explicit consideration of  13 degrees of freedom as
           vibrations may cause significant error
 Vibrational temperatures:     92.25   105.20   196.11   273.60   355.22
          (Kelvin)            454.39   486.26   542.65   575.78   584.06
                              692.62   802.62   820.52  1054.74  1220.81
                             1278.29  1358.02  1373.99  1398.13  1460.01
                             1485.39  1539.95  1600.06  1718.80  1802.77
                             1848.52  1913.93  1940.12  2032.54  2043.10
                             2076.81  2105.71  2138.82  2149.63  2475.13
                             3405.47  4346.96  4354.74  4375.48  4416.87
                             4452.65  4490.07  4543.18  4664.21  5454.86

 Zero-point correction=                           0.140133 (Hartree/Particle)
 Thermal correction to Energy=                    0.149185
 Thermal correction to Enthalpy=                  0.150129
 Thermal correction to Gibbs Free Energy=         0.106153
 Sum of electronic and zero-point Energies=           -363.874375
 Sum of electronic and thermal Energies=              -363.865322
 Sum of electronic and thermal Enthalpies=            -363.864378
 Sum of electronic and thermal Free Energies=         -363.908355

                     E (Thermal)             CV                S
                      KCal/Mol        Cal/Mol-Kelvin    Cal/Mol-Kelvin
 Total                   93.615             32.422             92.557
 Electronic               0.000              0.000              0.000
 Translational            0.889              2.981             40.031
 Rotational               0.889              2.981             28.589
 Vibrational             91.838             26.460             23.936
 Vibration     1          0.597              1.971              4.326
 Vibration     2          0.599              1.967              4.068
 Vibration     3          0.614              1.917              2.855
 Vibration     4          0.633              1.853              2.226
 Vibration     5          0.661              1.768              1.753
 Vibration     6          0.703              1.643              1.332
 Vibration     7          0.718              1.600              1.222
 Vibration     8          0.748              1.519              1.051
 Vibration     9          0.766              1.470              0.962
 Vibration    10          0.771              1.457              0.941
 Vibration    11          0.838              1.291              0.706
 Vibration    12          0.913              1.123              0.528
 Vibration    13          0.926              1.096              0.504

 Optimization completed.
    -- Stationary point found.
 Normal termination of Gaussian 16 at Thu Aug  4 09:23:28 2022.
