 Gaussian 16, Revision A.03,
 Gaussian 16:  ES64L-G16RevA.03 25-Dec-2016

 -----------------------------
 # opt freq b3lyp/6-31g(2df,p)
 -----------------------------

 -------------------
 Title Card Required
 -------------------
 Symbolic Z-matrix:
 Charge =  0 Multiplicity = 1

 SCF Done:  E(RB3LYP) =  -402.319387976     A.U. after   13 cycles
 SCF Done:  E(RB3LYP) =  -402.322027498     A.U. after   12 cycles
 SCF Done:  E(RB3LYP) =  -402.328408740     A.U. after   11 cycles
 SCF Done:  E(RB3LYP) =  -402.329189701     A.U. after   10 cycles
 SCF Done:  E(RB3LYP) =  -402.330297172     A.U. after   11 cycles
 SCF Done:  E(RB3LYP) =  -402.331940459     A.U. after   11 cycles
 SCF Done:  E(RB3LYP) =  -402.334826192     A.U. after   11 cycles
 SCF Done:  E(RB3LYP) =  -402.336958054     A.U. after   11 cycles
 SCF Done:  E(RB3LYP) =  -402.340230539     A.U. after   12 cycles
 SCF Done:  E(RB3LYP) =  -402.341245321     A.U. after   12 cycles
 SCF Done:  E(RB3LYP) =  -402.353178095     A.U. after   11 cycles
 SCF Done:  E(RB3LYP) =  -402.353792114     A.U. after   11 cycles
 SCF Done:  E(RB3LYP) =  -402.353865734     A.U. after   10 cycles
 SCF Done:  E(RB3LYP) =  -402.353879022     A.U. after    9 cycles
 SCF Done:  E(RB3LYP) =  -402.353882745     A.U. after    8 cycles
 SCF Done:  E(RB3LYP) =  -402.353885852     A.U. after    8 cycles
 SCF Done:  E(RB3LYP) =  -402.353887353     A.U. after    8 cycles
 SCF Done:  E(RB3LYP) =  -402.353887973     A.U. after    7 cycles
 SCF Done:  E(RB3LYP) =  -402.353888071     A.U. after    6 cycles
 Optimization completed.
    -- Stationary point found.
 Normal termination of Gaussian 16 at Thu Aug  4 11:05:37 2022.

 ----------------------------------------------------------------------
 #N Geom=AllCheck Guess=TCheck SCRF=Check GenChk RB3LYP/6-31G(2df,p) Fr
 eq
 ----------------------------------------------------------------------

 Structure from the checkpoint file:  "CdCpOpNpCCpCO.chk"
 -------------------
 Title Card Required
 -------------------
 Charge =  0 Multiplicity = 1

                         Standard orientation:
 ---------------------------------------------------------------------
 Center     Atomic      Atomic             Coordinates (Angstroms)
 Number     Number       Type             X           Y           Z
 ---------------------------------------------------------------------
      1          6           0        0.060316   -2.265346    0.171513
      2          6           0       -0.501930   -1.062703   -0.033270
      3          8           0       -1.857502   -0.902828   -0.202423
      4          7           0        0.135023    0.158680   -0.081451
      5          6           0        1.412143    0.350644    0.596868
      6          6           0        2.624770    0.272976   -0.336084
      7          6           0       -0.580733    1.330554   -0.534280
      8          8           0       -1.384688    1.939445    0.457646
      9          1           0       -0.558823   -3.141472    0.314424
     10          1           0        1.130610   -2.395064    0.211668
     11          1           0       -2.239466   -1.770707   -0.367496
     12          1           0        1.493394   -0.402727    1.386396
     13          1           0        1.381923    1.327133    1.093909
     14          1           0        2.685561   -0.704143   -0.823847
     15          1           0        3.550240    0.435059    0.226494
     16          1           0        2.569032    1.035645   -1.119684
     17          1           0       -1.174824    1.061438   -1.412950
     18          1           0        0.154071    2.085977   -0.823892
     19          1           0       -2.086757    1.308417    0.654872
 ---------------------------------------------------------------------

 SCF Done:  E(RB3LYP) =  -402.353888071     A.U. after    1 cycles

 The electronic state is 1-A.
 Alpha  occ. eigenvalues --  -19.17541 -19.12757 -14.33926 -10.26579 -10.25287
 Alpha  occ. eigenvalues --  -10.21418 -10.17666 -10.14525  -1.07046  -1.01667
 Alpha  occ. eigenvalues --   -0.92520  -0.75706  -0.73660  -0.66296  -0.64409
 Alpha  occ. eigenvalues --   -0.57057  -0.52529  -0.50798  -0.48009  -0.46061
 Alpha  occ. eigenvalues --   -0.43431  -0.42386  -0.41643  -0.40391  -0.38212
 Alpha  occ. eigenvalues --   -0.37307  -0.36211  -0.34725  -0.33598  -0.28043
 Alpha  occ. eigenvalues --   -0.26607  -0.19083
 Alpha virt. eigenvalues --    0.05916   0.06462   0.09757   0.11771   0.13055
 Alpha virt. eigenvalues --    0.13566   0.14895   0.15446   0.16279   0.17711
 Alpha virt. eigenvalues --    0.18870   0.19699   0.20677   0.21126   0.26141

 Mulliken charges:
               1
     1  C   -0.508993
     2  C    0.453365
     3  O   -0.436014
     4  N   -0.090811
     5  C   -0.166074
     6  C   -0.371819
     7  C   -0.049305
     8  O   -0.421449
     9  H    0.083853
    10  H    0.101492
    11  H    0.302763
    12  H    0.118639
    13  H    0.118568
    14  H    0.128213
    15  H    0.114492
    16  H    0.118056
    17  H    0.108404
    18  H    0.110070
    19  H    0.286549
 Sum of Mulliken charges =  -0.00000

 Dipole moment (field-independent basis, Debye):
    X=             -0.0956    Y=             -1.1850    Z=             -0.6071  Tot=              1.3348
 Quadrupole moment (field-independent basis, Debye-Ang):
   XX=            -43.5352   YY=            -51.2104   ZZ=            -50.0621
   XY=              5.9835   XZ=              1.3749   YZ=             -1.2276

  Exact polarizability:  77.219   0.555  84.572   2.134  -2.835  51.174
 Approx polarizability: 102.889  -3.890 123.148   3.873  -4.397  76.261

                      1                      2                      3
                      A                      A                      A
 Frequencies --     55.0423                85.3010                98.0377
 Red. masses --      3.7468                 4.4793                 3.1773
 Frc consts  --      0.0067                 0.0192                 0.0180
 IR Inten    --      0.7972                 4.3184                 0.4174

                      4                      5                      6
                      A                      A                      A
 Frequencies --    101.7351               219.0911               317.3144
 Red. masses --      3.3935                 1.0944                 2.1805
 Frc consts  --      0.0207                 0.0309                 0.1294
 IR Inten    --      0.8522                 0.4009                 1.3761

                      7                      8                      9
                      A                      A                      A
 Frequencies --    331.9579               382.9850               406.1933
 Red. masses --      2.9942                 1.1203                 1.7005
 Frc consts  --      0.1944                 0.0968                 0.1653
 IR Inten    --      0.8529               102.6555                 9.3669

                     10                     11                     12
                      A                      A                      A
 Frequencies --    433.5131               464.9194               526.8834
 Red. masses --      3.1746                 1.4394                 2.4317
 Frc consts  --      0.3515                 0.1833                 0.3977
 IR Inten    --     17.1951                77.0803                12.8502

                     13                     14                     15
                      A                      A                      A
 Frequencies --    611.0269               632.1384               674.0665
 Red. masses --      3.4805                 1.2754                 1.5526
 Frc consts  --      0.7656                 0.3003                 0.4156
 IR Inten    --     27.2128                18.4474                 1.5504

                     16                     17                     18
                      A                      A                      A
 Frequencies --    697.8431               767.5983               799.2344
 Red. masses --      2.3709                 2.7116                 1.2398
 Frc consts  --      0.6803                 0.9413                 0.4666
 IR Inten    --     58.3919                 8.8313                13.8521

                     19                     20                     21
                      A                      A                      A
 Frequencies --    930.0736               966.9758              1009.7276
 Red. masses --      2.1962                 1.8289                 1.9967
 Frc consts  --      1.1193                 1.0075                 1.1994
 IR Inten    --     16.2035                16.7167                86.1230

                     22                     23                     24
                      A                      A                      A
 Frequencies --   1041.4191              1073.6562              1097.8825
 Red. masses --      4.5656                 1.9661                 1.9079
 Frc consts  --      2.9174                 1.3353                 1.3550
 IR Inten    --     95.0877                61.7117                15.0196

                     25                     26                     27
                      A                      A                      A
 Frequencies --   1147.9787              1217.1271              1239.5258
 Red. masses --      1.9598                 1.3272                 2.5084
 Frc consts  --      1.5217                 1.1584                 2.2707
 IR Inten    --     39.4425               182.6009                57.0151

                     28                     29                     30
                      A                      A                      A
 Frequencies --   1305.4981              1347.7254              1387.9388
 Red. masses --      1.5615                 1.3646                 1.2390
 Frc consts  --      1.5680                 1.4604                 1.4062
 IR Inten    --     11.9350                14.8290                 4.2496

                     31                     32                     33
                      A                      A                      A
 Frequencies --   1406.4040              1411.8233              1425.3261
 Red. masses --      1.1999                 1.2894                 1.5839
 Frc consts  --      1.3984                 1.5142                 1.8958
 IR Inten    --      0.8015                36.0314                64.0668

                     34                     35                     36
                      A                      A                      A
 Frequencies --   1439.1729              1473.9899              1488.5989
 Red. masses --      1.1769                 1.3434                 1.0824
 Frc consts  --      1.4361                 1.7196                 1.4132
 IR Inten    --    107.3374                24.6343                 5.2751

                     37                     38                     39
                      A                      A                      A
 Frequencies --   1493.2174              1502.9691              1515.5769
 Red. masses --      1.0949                 1.0801                 1.2467
 Frc consts  --      1.4384                 1.4376                 1.6872
 IR Inten    --      2.7381                 6.9038                21.1109

                     40                     41                     42
                      A                      A                      A
 Frequencies --   1712.2020              3034.5197              3035.8143
 Red. masses --      5.9901                 1.0519                 1.0447
 Frc consts  --     10.3466                 5.7070                 5.6729
 IR Inten    --    349.4453                24.9387                27.2697

                     43                     44                     45
                      A                      A                      A
 Frequencies --   3050.8071              3079.8014              3103.8265
 Red. masses --      1.0593                 1.1012                 1.1059
 Frc consts  --      5.8089                 6.1539                 6.2772
 IR Inten    --     35.5139                 2.0961                32.0202

                     46                     47                     48
                      A                      A                      A
 Frequencies --   3105.8304              3116.8227              3181.7559
 Red. masses --      1.1022                 1.1028                 1.0624
 Frc consts  --      6.2645                 6.3122                 6.3367
 IR Inten    --     24.3857                34.5728                 1.1634

                     49                     50                     51
                      A                      A                      A
 Frequencies --   3274.8175              3799.4311              3833.7535
 Red. masses --      1.1132                 1.0654                 1.0655
 Frc consts  --      7.0338                 9.0617                 9.2269
 IR Inten    --      8.5935                31.4601                42.3483

 - Thermochemistry -
 -------------------
 Temperature   298.150 Kelvin.  Pressure   1.00000 Atm.
 Atom     1 has atomic number  6 and mass  12.00000

 Molecular mass:   117.07898 amu.
 Principal axes and moments of inertia in atomic units:
                           1         2         3
     Eigenvalues --   799.94511 945.995021588.62848
           X            0.99762   0.06895   0.00120
           Y           -0.06893   0.99750  -0.01530
           Z           -0.00225   0.01518   0.99988
 This molecule is an asymmetric top.
 Rotational symmetry number  1.
 Warning -- assumption of classical behavior for rotation
           may cause significant error
 Rotational temperatures (Kelvin)      0.10827     0.09156     0.05452
 Rotational constants (GHZ):           2.25608     1.90777     1.13604
 Zero-point vibrational energy     429799.5 (Joules/Mol)
                                  102.72455 (Kcal/Mol)
 Warning -- explicit consideration of  13 degrees of freedom as
           vibrations may cause significant error
 Vibrational temperatures:     79.19   122.73   141.05   146.37   315.22
          (Kelvin)            456.54   477.61   551.03   584.42   623.73
                              668.92   758.07   879.13   909.51   969.83
                             1004.04  1104.40  1149.92  1338.17  1391.26
                             1452.77  1498.37  1544.75  1579.61  1651.69
                             1751.17  1783.40  1878.32  1939.08  1996.93
                             2023.50  2031.30  2050.73  2070.65  2120.74
                             2141.76  2148.41  2162.44  2180.58  2463.48
                             4366.00  4367.86  4389.43  4431.15  4465.71
                             4468.60  4484.41  4577.84  4711.73  5466.53
                             5515.92

 Zero-point correction=                           0.163702 (Hartree/Particle)
 Thermal correction to Energy=                    0.173312
 Thermal correction to Enthalpy=                  0.174256
 Thermal correction to Gibbs Free Energy=         0.128858
 Sum of electronic and zero-point Energies=           -402.190186
 Sum of electronic and thermal Energies=              -402.180576
 Sum of electronic and thermal Enthalpies=            -402.179632
 Sum of electronic and thermal Free Energies=         -402.225030

                     E (Thermal)             CV                S
                      KCal/Mol        Cal/Mol-Kelvin    Cal/Mol-Kelvin
 Total                  108.755             34.753             95.548
 Electronic               0.000              0.000              0.000
 Translational            0.889              2.981             40.188
 Rotational               0.889              2.981             28.577
 Vibrational            106.977             28.791             26.783
 Vibration     1          0.596              1.976              4.627
 Vibration     2          0.601              1.959              3.765
 Vibration     3          0.603              1.951              3.493
 Vibration     4          0.604              1.948              3.421
 Vibration     5          0.647              1.812              1.967
 Vibration     6          0.704              1.641              1.324
 Vibration     7          0.714              1.612              1.251
 Vibration     8          0.752              1.506              1.027
 Vibration     9          0.771              1.457              0.940
 Vibration    10          0.794              1.397              0.847
 Vibration    11          0.822              1.328              0.752
 Vibration    12          0.882              1.190              0.594
 Vibration    13          0.970              1.008              0.431

 Optimization completed.
    -- Stationary point found.
 Normal termination of Gaussian 16 at Thu Aug  4 11:32:31 2022.
