 Gaussian 16, Revision A.03,
 Gaussian 16:  ES64L-G16RevA.03 25-Dec-2016

 -----------------------------
 # opt freq b3lyp/6-31g(2df,p)
 -----------------------------

 -------------------
 Title Card Required
 -------------------
 Symbolic Z-matrix:
 Charge =  0 Multiplicity = 1

 SCF Done:  E(RB3LYP) =  -330.529302015     A.U. after   12 cycles
 SCF Done:  E(RB3LYP) =  -330.532216671     A.U. after   11 cycles
 SCF Done:  E(RB3LYP) =  -330.533647955     A.U. after   10 cycles
 SCF Done:  E(RB3LYP) =  -330.536036304     A.U. after   11 cycles
 SCF Done:  E(RB3LYP) =  -330.534980318     A.U. after   14 cycles
 SCF Done:  E(RB3LYP) =  -330.538606745     A.U. after   11 cycles
 SCF Done:  E(RB3LYP) =  -330.539429177     A.U. after   11 cycles
 SCF Done:  E(RB3LYP) =  -330.540249418     A.U. after   10 cycles
 SCF Done:  E(RB3LYP) =  -330.541235877     A.U. after   11 cycles
 SCF Done:  E(RB3LYP) =  -330.541661197     A.U. after    9 cycles
 SCF Done:  E(RB3LYP) =  -330.542008477     A.U. after    9 cycles
 SCF Done:  E(RB3LYP) =  -330.542429297     A.U. after   10 cycles
 SCF Done:  E(RB3LYP) =  -330.542507669     A.U. after    9 cycles
 SCF Done:  E(RB3LYP) =  -330.542539554     A.U. after    9 cycles
 SCF Done:  E(RB3LYP) =  -330.542543539     A.U. after    8 cycles
 SCF Done:  E(RB3LYP) =  -330.542545238     A.U. after    8 cycles
 SCF Done:  E(RB3LYP) =  -330.542545377     A.U. after    6 cycles
 SCF Done:  E(RB3LYP) =  -330.542545417     A.U. after    6 cycles
 Optimization completed.
    -- Stationary point found.
 Normal termination of Gaussian 16 at Thu Aug  4 03:54:02 2022.

 ----------------------------------------------------------------------
 #N Geom=AllCheck Guess=TCheck SCRF=Check GenChk RB3LYP/6-31G(2df,p) Fr
 eq
 ----------------------------------------------------------------------

 Structure from the checkpoint file:  "CdCpCpCCpNpCC.chk"
 -------------------
 Title Card Required
 -------------------
 Charge =  0 Multiplicity = 1

                         Standard orientation:
 ---------------------------------------------------------------------
 Center     Atomic      Atomic             Coordinates (Angstroms)
 Number     Number       Type             X           Y           Z
 ---------------------------------------------------------------------
      1          6           0       -2.580915   -1.022667   -0.251217
      2          6           0       -1.844620    0.088384   -0.184012
      3          6           0       -2.301666    1.296608    0.594395
      4          6           0       -0.501257    0.198091   -0.864858
      5          6           0        0.701724    0.038822    0.107825
      6          7           0        0.752626   -1.262084    0.782276
      7          6           0        2.027598    0.291800   -0.624084
      8          6           0        3.247724    0.318920    0.299951
      9          1           0       -3.537580   -1.107318    0.255110
     10          1           0       -2.261167   -1.884026   -0.829493
     11          1           0       -3.260394    1.120933    1.088608
     12          1           0       -2.411364    2.165487   -0.067062
     13          1           0       -1.571932    1.583451    1.361356
     14          1           0       -0.421972    1.173853   -1.363918
     15          1           0       -0.413309   -0.569242   -1.644094
     16          1           0        0.604967    0.797381    0.897841
     17          1           0        0.880570   -1.992754    0.084252
     18          1           0       -0.147416   -1.453854    1.214948
     19          1           0        1.951956    1.240284   -1.169644
     20          1           0        2.157859   -0.487487   -1.389568
     21          1           0        3.170645    1.136182    1.025936
     22          1           0        4.170512    0.466235   -0.270063
     23          1           0        3.328711   -0.614284    0.861855
 ---------------------------------------------------------------------

 SCF Done:  E(RB3LYP) =  -330.542545417     A.U. after    1 cycles

 The electronic state is 1-A.
 Alpha  occ. eigenvalues --  -14.30021 -10.20659 -10.19174 -10.18041 -10.17822
 Alpha  occ. eigenvalues --  -10.17570 -10.16877 -10.16286  -0.88129  -0.80317
 Alpha  occ. eigenvalues --   -0.75926  -0.70463  -0.68355  -0.62765  -0.57086
 Alpha  occ. eigenvalues --   -0.52342  -0.48667  -0.45686  -0.44792  -0.43382
 Alpha  occ. eigenvalues --   -0.42826  -0.40487  -0.39448  -0.38278  -0.37001
 Alpha  occ. eigenvalues --   -0.36102  -0.34155  -0.33377  -0.32749  -0.31234
 Alpha  occ. eigenvalues --   -0.24856  -0.22964
 Alpha virt. eigenvalues --    0.02171   0.07908   0.10332   0.11421   0.12674
 Alpha virt. eigenvalues --    0.14333   0.14797   0.14967   0.15828   0.17290
 Alpha virt. eigenvalues --    0.17559   0.18495   0.18788   0.20186   0.20905

 Mulliken charges:
               1
     1  C   -0.412332
     2  C    0.374317
     3  C   -0.472731
     4  C   -0.288999
     5  C    0.048328
     6  N   -0.505870
     7  C   -0.161568
     8  C   -0.380081
     9  H    0.101342
    10  H    0.097176
    11  H    0.121352
    12  H    0.125269
    13  H    0.127924
    14  H    0.091648
    15  H    0.090557
    16  H    0.078032
    17  H    0.214678
    18  H    0.225739
    19  H    0.091296
    20  H    0.086109
    21  H    0.109053
    22  H    0.103939
    23  H    0.134820
 Sum of Mulliken charges =  -0.00000

 Dipole moment (field-independent basis, Debye):
    X=             -0.7272    Y=              0.3205    Z=             -0.6962  Tot=              1.0565
 Quadrupole moment (field-independent basis, Debye-Ang):
   XX=            -54.0379   YY=            -49.9517   ZZ=            -53.6949
   XY=              0.4891   XZ=             -3.3770   YZ=              1.8293

  Exact polarizability: 100.437   7.082  85.121  -3.316   2.967  69.230
 Approx polarizability: 122.797  12.987 131.582  -4.335   4.450 104.232

                      1                      2                      3
                      A                      A                      A
 Frequencies --     53.0303                77.3128               115.3154
 Red. masses --      2.7206                 2.7613                 1.8465
 Frc consts  --      0.0045                 0.0097                 0.0145
 IR Inten    --      0.2037                 0.0646                 0.3834

                      4                      5                      6
                      A                      A                      A
 Frequencies --    149.7156               187.2452               218.9721
 Red. masses --      2.8950                 1.0879                 1.2095
 Frc consts  --      0.0382                 0.0225                 0.0342
 IR Inten    --      0.2255                 0.2338                 0.3134

                      7                      8                      9
                      A                      A                      A
 Frequencies --    257.1580               271.1622               329.6295
 Red. masses --      2.7421                 1.0614                 3.0521
 Frc consts  --      0.1068                 0.0460                 0.1954
 IR Inten    --      3.0145                32.9660                 1.8753

                     10                     11                     12
                      A                      A                      A
 Frequencies --    387.0902               424.3323               454.9106
 Red. masses --      2.2796                 2.3854                 1.9926
 Frc consts  --      0.2013                 0.2531                 0.2430
 IR Inten    --      0.8923                11.1466                 4.0733

                     13                     14                     15
                      A                      A                      A
 Frequencies --    473.8671               565.5159               722.3137
 Red. masses --      2.2379                 2.2373                 1.1520
 Frc consts  --      0.2961                 0.4216                 0.3541
 IR Inten    --      0.4883                 2.2516                 1.0081

                     16                     17                     18
                      A                      A                      A
 Frequencies --    782.3858               826.0655               867.8621
 Red. masses --      1.2518                 3.1067                 2.2561
 Frc consts  --      0.4515                 1.2490                 1.0012
 IR Inten    --      3.5009                 3.4864                25.4990

                     19                     20                     21
                      A                      A                      A
 Frequencies --    899.0640               907.8598               927.3321
 Red. masses --      1.6686                 1.4568                 1.3437
 Frc consts  --      0.7947                 0.7074                 0.6808
 IR Inten    --     98.3408                42.6744                24.2099

                     22                     23                     24
                      A                      A                      A
 Frequencies --    981.9652              1006.0667              1009.0062
 Red. masses --      1.6794                 1.8998                 1.5780
 Frc consts  --      0.9541                 1.1330                 0.9466
 IR Inten    --     10.3848                 3.6384                12.8354

                     25                     26                     27
                      A                      A                      A
 Frequencies --   1036.3950              1049.4608              1069.4406
 Red. masses --      1.9362                 1.3595                 1.4786
 Frc consts  --      1.2253                 0.8822                 0.9964
 IR Inten    --      7.6909                 0.3199                 0.0755

                     28                     29                     30
                      A                      A                      A
 Frequencies --   1103.1470              1152.9618              1196.7305
 Red. masses --      1.8910                 2.2449                 1.2873
 Frc consts  --      1.3558                 1.7583                 1.0862
 IR Inten    --     30.5454                 3.0049                10.0900

                     31                     32                     33
                      A                      A                      A
 Frequencies --   1252.5631              1279.1480              1307.5900
 Red. masses --      1.5009                 1.3825                 1.9500
 Frc consts  --      1.3874                 1.3327                 1.9644
 IR Inten    --      0.7094                 4.1501                 3.0376

                     34                     35                     36
                      A                      A                      A
 Frequencies --   1337.4313              1352.3304              1379.2026
 Red. masses --      1.2844                 1.3452                 1.3872
 Frc consts  --      1.3536                 1.4495                 1.5547
 IR Inten    --      0.4581                 7.9274                 2.8545

                     37                     38                     39
                      A                      A                      A
 Frequencies --   1404.3393              1411.2058              1418.7844
 Red. masses --      1.3000                 1.2463                 1.3628
 Frc consts  --      1.5106                 1.4623                 1.6163
 IR Inten    --      1.8716                 5.0251                 3.7591

                     40                     41                     42
                      A                      A                      A
 Frequencies --   1449.1064              1472.9999              1481.7203
 Red. masses --      1.1716                 1.0832                 1.0615
 Frc consts  --      1.4496                 1.3847                 1.3731
 IR Inten    --      0.3191                 0.8802                 2.9734

                     43                     44                     45
                      A                      A                      A
 Frequencies --   1486.6342              1493.5850              1497.6786
 Red. masses --      1.0700                 1.0408                 1.0769
 Frc consts  --      1.3933                 1.3679                 1.4232
 IR Inten    --      5.6042                 5.0518                 6.7939

                     46                     47                     48
                      A                      A                      A
 Frequencies --   1510.1189              1662.2189              1714.5108
 Red. masses --      1.0616                 1.0893                 5.1661
 Frc consts  --      1.4263                 1.7733                 8.9474
 IR Inten    --      3.7558                14.0074                17.0163

                     49                     50                     51
                      A                      A                      A
 Frequencies --   2995.8133              3003.3791              3010.0784
 Red. masses --      1.0735                 1.0621                 1.0714
 Frc consts  --      5.6763                 5.6446                 5.7194
 IR Inten    --      1.9658                 9.8435                54.8868

                     52                     53                     54
                      A                      A                      A
 Frequencies --   3020.6982              3034.9108              3048.2055
 Red. masses --      1.0392                 1.0398                 1.0936
 Frc consts  --      5.5867                 5.6429                 5.9867
 IR Inten    --     23.5225                32.8207                 9.4673

                     55                     56                     57
                      A                      A                      A
 Frequencies --   3059.1425              3067.8346              3096.3492
 Red. masses --      1.1001                 1.0978                 1.1008
 Frc consts  --      6.0659                 6.0874                 6.2180
 IR Inten    --     59.0344                19.6755                42.7685

                     58                     59                     60
                      A                      A                      A
 Frequencies --   3115.2290              3128.0871              3138.9891
 Red. masses --      1.0994                 1.0998                 1.0608
 Frc consts  --      6.2864                 6.3404                 6.1581
 IR Inten    --     21.5048                21.4469                 7.8981

                     61                     62                     63
                      A                      A                      A
 Frequencies --   3218.1721              3463.7136              3544.0532
 Red. masses --      1.1145                 1.0499                 1.0902
 Frc consts  --      6.8006                 7.4212                 8.0677
 IR Inten    --     17.5709                 0.9094                 1.0274

 - Thermochemistry -
 -------------------
 Temperature   298.150 Kelvin.  Pressure   1.00000 Atm.
 Atom     1 has atomic number  6 and mass  12.00000

 Molecular mass:   113.12045 amu.
 Principal axes and moments of inertia in atomic units:
                           1         2         3
     Eigenvalues --   457.456161811.988971950.79676
           X            0.99997   0.00154  -0.00740
           Y           -0.00109   0.99817   0.06048
           Z            0.00748  -0.06048   0.99814
 This molecule is an asymmetric top.
 Rotational symmetry number  1.
 Warning -- assumption of classical behavior for rotation
           may cause significant error
 Rotational temperatures (Kelvin)      0.18934     0.04780     0.04440
 Rotational constants (GHZ):           3.94517     0.99600     0.92513
 Zero-point vibrational energy     552430.3 (Joules/Mol)
                                  132.03402 (Kcal/Mol)
 Warning -- explicit consideration of  14 degrees of freedom as
           vibrations may cause significant error
 Vibrational temperatures:     76.30   111.24   165.91   215.41   269.40
          (Kelvin)            315.05   369.99   390.14   474.26   556.94
                              610.52   654.51   681.79   813.65  1039.25
                             1125.68  1188.52  1248.66  1293.55  1306.21
                             1334.22  1412.83  1447.51  1451.73  1491.14
                             1509.94  1538.69  1587.18  1658.85  1721.83
                             1802.16  1840.41  1881.33  1924.27  1945.70
                             1984.36  2020.53  2030.41  2041.31  2084.94
                             2119.32  2131.87  2138.94  2148.94  2154.83
                             2172.72  2391.56  2466.80  4310.31  4321.19
                             4330.83  4346.11  4366.56  4385.69  4401.42
                             4413.93  4454.96  4482.12  4500.62  4516.31
                             4630.23  4983.51  5099.10

 Zero-point correction=                           0.210410 (Hartree/Particle)
 Thermal correction to Energy=                    0.220787
 Thermal correction to Enthalpy=                  0.221731
 Thermal correction to Gibbs Free Energy=         0.175002
 Sum of electronic and zero-point Energies=           -330.332136
 Sum of electronic and thermal Energies=              -330.321758
 Sum of electronic and thermal Enthalpies=            -330.320814
 Sum of electronic and thermal Free Energies=         -330.367544

                     E (Thermal)             CV                S
                      KCal/Mol        Cal/Mol-Kelvin    Cal/Mol-Kelvin
 Total                  138.546             37.873             98.350
 Electronic               0.000              0.000              0.000
 Translational            0.889              2.981             40.085
 Rotational               0.889              2.981             28.871
 Vibrational            136.768             31.911             29.394
 Vibration     1          0.596              1.976              4.701
 Vibration     2          0.599              1.964              3.958
 Vibration     3          0.608              1.937              3.177
 Vibration     4          0.618              1.903              2.676
 Vibration     5          0.632              1.857              2.255
 Vibration     6          0.647              1.812              1.968
 Vibration     7          0.667              1.751              1.681
 Vibration     8          0.675              1.726              1.589
 Vibration     9          0.712              1.616              1.262
 Vibration    10          0.756              1.498              1.011
 Vibration    11          0.786              1.417              0.877
 Vibration    12          0.813              1.350              0.781
 Vibration    13          0.831              1.308              0.727
 Vibration    14          0.921              1.106              0.513

 Optimization completed.
    -- Stationary point found.
 Normal termination of Gaussian 16 at Thu Aug  4 04:25:20 2022.
