 Gaussian 16, Revision A.03,
 Gaussian 16:  ES64L-G16RevA.03 25-Dec-2016

 -----------------------------
 # opt freq b3lyp/6-31g(2df,p)
 -----------------------------

 -------------------
 Title Card Required
 -------------------
 Symbolic Z-matrix:
 Charge =  0 Multiplicity = 1

 SCF Done:  E(RB3LYP) =  -349.174185950     A.U. after   14 cycles
 SCF Done:  E(RB3LYP) =  -349.176786076     A.U. after   12 cycles
 SCF Done:  E(RB3LYP) =  -349.183594653     A.U. after   12 cycles
 SCF Done:  E(RB3LYP) =  -349.185533966     A.U. after   12 cycles
 SCF Done:  E(RB3LYP) =  -349.189209709     A.U. after   12 cycles
 SCF Done:  E(RB3LYP) =  -349.192537185     A.U. after   12 cycles
 SCF Done:  E(RB3LYP) =  -349.195755920     A.U. after   12 cycles
 SCF Done:  E(RB3LYP) =  -349.198486065     A.U. after   13 cycles
 SCF Done:  E(RB3LYP) =  -349.199489381     A.U. after   12 cycles
 SCF Done:  E(RB3LYP) =  -349.199915740     A.U. after   13 cycles
 SCF Done:  E(RB3LYP) =  -349.201692524     A.U. after   12 cycles
 SCF Done:  E(RB3LYP) =  -349.201824572     A.U. after   12 cycles
 SCF Done:  E(RB3LYP) =  -349.201850501     A.U. after   11 cycles
 SCF Done:  E(RB3LYP) =  -349.201860135     A.U. after   10 cycles
 SCF Done:  E(RB3LYP) =  -349.201875022     A.U. after   10 cycles
 SCF Done:  E(RB3LYP) =  -349.201878774     A.U. after   10 cycles
 SCF Done:  E(RB3LYP) =  -349.201879243     A.U. after    7 cycles
 SCF Done:  E(RB3LYP) =  -349.201880043     A.U. after    8 cycles
 SCF Done:  E(RB3LYP) =  -349.201880110     A.U. after    6 cycles
 Optimization completed.
    -- Stationary point found.
 Normal termination of Gaussian 16 at Sun Jul  3 15:46:54 2022.

 ----------------------------------------------------------------------
 #N Geom=AllCheck Guess=TCheck SCRF=Check GenChk RB3LYP/6-31G(2df,p) Fr
 eq
 ----------------------------------------------------------------------

 Structure from the checkpoint file:  "CdCpCpCpCpCpCpdO.chk"
 -------------------
 Title Card Required
 -------------------
 Charge =  0 Multiplicity = 1

                         Standard orientation:
 ---------------------------------------------------------------------
 Center     Atomic      Atomic             Coordinates (Angstroms)
 Number     Number       Type             X           Y           Z
 ---------------------------------------------------------------------
      1          6           0        1.733435   -1.192704    1.023492
      2          6           0        1.240257   -0.233183    0.238694
      3          6           0        1.970365    0.207125   -1.006720
      4          6           0       -0.075931    0.440981    0.609244
      5          6           0       -0.146652    1.939168    0.246554
      6          6           0       -1.321141   -0.272203    0.039523
      7          6           0       -1.308802   -0.733370   -1.406952
      8          8           0       -2.291574   -0.435874    0.742048
      9          1           0        2.661780   -1.702631    0.786435
     10          1           0        1.229305   -1.501594    1.933961
     11          1           0        2.868270   -0.395307   -1.164169
     12          1           0        2.277666    1.257085   -0.937594
     13          1           0        1.348311    0.124758   -1.904936
     14          1           0       -0.206533    0.357037    1.691727
     15          1           0       -0.089320    2.108812   -0.832919
     16          1           0        0.676725    2.485984    0.715822
     17          1           0       -1.086737    2.366047    0.606609
     18          1           0       -1.075757    0.096137   -2.082801
     19          1           0       -2.284515   -1.148991   -1.660798
     20          1           0       -0.535784   -1.495224   -1.550732
 ---------------------------------------------------------------------

 SCF Done:  E(RB3LYP) =  -349.201880110     A.U. after    1 cycles

 The electronic state is 1-A.
 Alpha  occ. eigenvalues --  -19.12481 -10.26712 -10.19955 -10.19716 -10.18780
 Alpha  occ. eigenvalues --  -10.18733 -10.18698 -10.17465  -1.03624  -0.82701
 Alpha  occ. eigenvalues --   -0.75621  -0.73265  -0.69377  -0.64201  -0.55231
 Alpha  occ. eigenvalues --   -0.51487  -0.47171  -0.46713  -0.45067  -0.43490
 Alpha  occ. eigenvalues --   -0.42026  -0.41314  -0.40469  -0.39467  -0.37802
 Alpha  occ. eigenvalues --   -0.37032  -0.36072  -0.33640  -0.33561  -0.26444
 Alpha  occ. eigenvalues --   -0.23123
 Alpha virt. eigenvalues --   -0.00999   0.01499   0.07333   0.11612   0.12721
 Alpha virt. eigenvalues --    0.13237   0.13535   0.15080   0.15549   0.16262
 Alpha virt. eigenvalues --    0.17646   0.18719   0.20508   0.20710   0.22087

 Mulliken charges:
               1
     1  C   -0.408447
     2  C    0.353326
     3  C   -0.482310
     4  C   -0.144360
     5  C   -0.424466
     6  C    0.389805
     7  C   -0.485651
     8  O   -0.304896
     9  H    0.105464
    10  H    0.110738
    11  H    0.123812
    12  H    0.130610
    13  H    0.122694
    14  H    0.104409
    15  H    0.120840
    16  H    0.126767
    17  H    0.135410
    18  H    0.136611
    19  H    0.140113
    20  H    0.149529
 Sum of Mulliken charges =  -0.00000

 Dipole moment (field-independent basis, Debye):
    X=              2.1001    Y=              0.7220    Z=             -1.6814  Tot=              2.7855
 Quadrupole moment (field-independent basis, Debye-Ang):
   XX=            -55.6942   YY=            -48.6063   ZZ=            -49.1091
   XY=             -1.6325   XZ=              2.9789   YZ=              0.6071

  Exact polarizability:  83.261  -4.781  73.651  -0.503  -6.141  75.361
 Approx polarizability: 117.484  -7.231 107.744  -4.347 -14.507 114.111

                      1                      2                      3
                      A                      A                      A
 Frequencies --     28.7035                70.9397               169.0238
 Red. masses --      4.4996                 2.9670                 1.2510
 Frc consts  --      0.0022                 0.0088                 0.0211
 IR Inten    --      3.4792                 0.0607                 0.4951

                      4                      5                      6
                      A                      A                      A
 Frequencies --    175.4165               201.9178               235.1058
 Red. masses --      2.1107                 1.0590                 2.5407
 Frc consts  --      0.0383                 0.0254                 0.0827
 IR Inten    --      0.2489                 0.0650                 0.4847

                      7                      8                      9
                      A                      A                      A
 Frequencies --    249.1905               270.0819               336.9559
 Red. masses --      1.3613                 1.6306                 3.1761
 Frc consts  --      0.0498                 0.0701                 0.2125
 IR Inten    --      0.4388                 0.1730                 4.2881

                     10                     11                     12
                      A                      A                      A
 Frequencies --    408.6712               479.8436               536.8900
 Red. masses --      2.6856                 3.1110                 3.0108
 Frc consts  --      0.2643                 0.4220                 0.5113
 IR Inten    --      1.8999                 1.7462                11.0337

                     13                     14                     15
                      A                      A                      A
 Frequencies --    566.4556               597.8799               699.5799
 Red. masses --      2.4926                 2.2309                 1.5933
 Frc consts  --      0.4712                 0.4699                 0.4594
 IR Inten    --     10.1422                 0.9614                 3.4934

                     16                     17                     18
                      A                      A                      A
 Frequencies --    764.6463               820.8741               931.0021
 Red. masses --      1.6919                 2.5556                 1.5965
 Frc consts  --      0.5828                 1.0146                 0.8153
 IR Inten    --      1.0503                 1.9891                10.8126

                     19                     20                     21
                      A                      A                      A
 Frequencies --    938.1314               951.5311              1004.3012
 Red. masses --      1.3859                 1.7708                 1.6719
 Frc consts  --      0.7186                 0.9446                 0.9936
 IR Inten    --     27.6969                12.7850                 2.1315

                     22                     23                     24
                      A                      A                      A
 Frequencies --   1012.2167              1040.8385              1075.5948
 Red. masses --      1.4555                 1.6338                 1.5773
 Frc consts  --      0.8786                 1.0428                 1.0752
 IR Inten    --      0.2797                 0.7418                 0.9377

                     25                     26                     27
                      A                      A                      A
 Frequencies --   1095.0500              1114.4755              1224.2902
 Red. masses --      1.5725                 2.4163                 3.2969
 Frc consts  --      1.1110                 1.7682                 2.9115
 IR Inten    --     11.4074                 5.4419                67.4927

                     28                     29                     30
                      A                      A                      A
 Frequencies --   1293.1524              1296.4336              1334.6515
 Red. masses --      2.6644                 1.3713                 1.2981
 Frc consts  --      2.6251                 1.3580                 1.3624
 IR Inten    --      1.4361                 5.1589                 1.7234

                     31                     32                     33
                      A                      A                      A
 Frequencies --   1377.2908              1402.9470              1412.1029
 Red. masses --      1.3213                 1.2260                 1.2190
 Frc consts  --      1.4767                 1.4218                 1.4321
 IR Inten    --     34.6037                 3.4424                 8.1949

                     34                     35                     36
                      A                      A                      A
 Frequencies --   1453.2642              1464.1281              1476.1145
 Red. masses --      1.1785                 1.0604                 1.0515
 Frc consts  --      1.4664                 1.3393                 1.3499
 IR Inten    --      0.9790                 4.8855                13.3071

                     37                     38                     39
                      A                      A                      A
 Frequencies --   1482.6723              1492.6262              1502.9682
 Red. masses --      1.0471                 1.0524                 1.0433
 Frc consts  --      1.3562                 1.3815                 1.3886
 IR Inten    --      7.6927                 6.8738                 9.7659

                     40                     41                     42
                      A                      A                      A
 Frequencies --   1506.2643              1709.0943              1804.3787
 Red. masses --      1.0573                 5.1471                10.7092
 Frc consts  --      1.4134                 8.8582                20.5430
 IR Inten    --      0.8851                11.6469               167.7845

                     43                     44                     45
                      A                      A                      A
 Frequencies --   3031.0214              3039.4309              3042.7913
 Red. masses --      1.0374                 1.0350                 1.0358
 Frc consts  --      5.6152                 5.6332                 5.6504
 IR Inten    --     12.3525                15.0617                12.3390

                     46                     47                     48
                      A                      A                      A
 Frequencies --   3068.1752              3081.2619              3106.0816
 Red. masses --      1.0847                 1.0976                 1.0986
 Frc consts  --      6.0161                 6.1398                 6.2448
 IR Inten    --      4.0565                17.6869                 7.1204

                     49                     50                     51
                      A                      A                      A
 Frequencies --   3110.6425              3116.7414              3119.2830
 Red. masses --      1.1009                 1.1009                 1.1011
 Frc consts  --      6.2759                 6.3010                 6.3123
 IR Inten    --     20.4700                33.8892                 7.3582

                     52                     53                     54
                      A                      A                      A
 Frequencies --   3141.8559              3152.0729              3222.2265
 Red. masses --      1.0611                 1.1023                 1.1148
 Frc consts  --      6.1714                 6.4528                 6.8194
 IR Inten    --      6.3716                11.4391                12.8182

 - Thermochemistry -
 -------------------
 Temperature   298.150 Kelvin.  Pressure   1.00000 Atm.
 Atom     1 has atomic number  6 and mass  12.00000

 Molecular mass:   112.08882 amu.
 Principal axes and moments of inertia in atomic units:
                           1         2         3
     Eigenvalues --   679.728681237.089121293.42856
           X            0.99979  -0.01459   0.01446
           Y            0.01389   0.99877   0.04760
           Z           -0.01514  -0.04739   0.99876
 This molecule is an asymmetric top.
 Rotational symmetry number  1.
 Warning -- assumption of classical behavior for rotation
           may cause significant error
 Rotational temperatures (Kelvin)      0.12742     0.07001     0.06696
 Rotational constants (GHZ):           2.65509     1.45886     1.39532
 Zero-point vibrational energy     456012.2 (Joules/Mol)
                                  108.98952 (Kcal/Mol)
 Warning -- explicit consideration of  14 degrees of freedom as
           vibrations may cause significant error
 Vibrational temperatures:     41.30   102.07   243.19   252.39   290.51
          (Kelvin)            338.26   358.53   388.59   484.80   587.99
                              690.39   772.46   815.00   860.22  1006.54
                             1100.16  1181.05  1339.50  1349.76  1369.04
                             1444.97  1456.35  1497.53  1547.54  1575.53
                             1603.48  1761.48  1860.56  1865.28  1920.27
                             1981.61  2018.53  2031.70  2090.92  2106.55
                             2123.80  2133.23  2147.56  2162.44  2167.18
                             2459.01  2596.10  4360.96  4373.06  4377.90
                             4414.42  4433.25  4468.96  4475.52  4484.30
                             4487.95  4520.43  4535.13  4636.07

 Zero-point correction=                           0.173686 (Hartree/Particle)
 Thermal correction to Energy=                    0.183573
 Thermal correction to Enthalpy=                  0.184517
 Thermal correction to Gibbs Free Energy=         0.138473
 Sum of electronic and zero-point Energies=           -349.028194
 Sum of electronic and thermal Energies=              -349.018307
 Sum of electronic and thermal Enthalpies=            -349.017363
 Sum of electronic and thermal Free Energies=         -349.063407

                     E (Thermal)             CV                S
                      KCal/Mol        Cal/Mol-Kelvin    Cal/Mol-Kelvin
 Total                  115.194             35.428             96.907
 Electronic               0.000              0.000              0.000
 Translational            0.889              2.981             40.058
 Rotational               0.889              2.981             28.477
 Vibrational            113.416             29.467             28.372
 Vibration     1          0.593              1.984              5.917
 Vibration     2          0.598              1.968              4.127
 Vibration     3          0.625              1.881              2.446
 Vibration     4          0.627              1.873              2.377
 Vibration     5          0.639              1.837              2.116
 Vibration     6          0.655              1.787              1.840
 Vibration     7          0.662              1.764              1.736
 Vibration     8          0.674              1.728              1.596
 Vibration     9          0.718              1.602              1.227
 Vibration    10          0.773              1.451              0.931
 Vibration    11          0.836              1.295              0.710
 Vibration    12          0.892              1.168              0.572
 Vibration    13          0.922              1.104              0.511
 Vibration    14          0.956              1.036              0.453

                           ! Non-Optimized Parameters !
 Normal termination of Gaussian 16 at Sun Jul  3 16:15:44 2022.
