 Gaussian 16, Revision A.03,
 Gaussian 16:  ES64L-G16RevA.03 25-Dec-2016

 -----------------------------
 # opt freq b3lyp/6-31g(2df,p)
 -----------------------------

 -------------------
 Title Card Required
 -------------------
 Symbolic Z-matrix:
 Charge =  0 Multiplicity = 1

 SCF Done:  E(RB3LYP) =  -440.386051928     A.U. after   14 cycles
 SCF Done:  E(RB3LYP) =  -440.389325627     A.U. after   13 cycles
 SCF Done:  E(RB3LYP) =  -440.389760033     A.U. after   13 cycles
 SCF Done:  E(RB3LYP) =  -440.390119949     A.U. after   12 cycles
 SCF Done:  E(RB3LYP) =  -440.390912962     A.U. after   11 cycles
 SCF Done:  E(RB3LYP) =  -440.391149188     A.U. after   12 cycles
 SCF Done:  E(RB3LYP) =  -440.391966964     A.U. after   14 cycles
 SCF Done:  E(RB3LYP) =  -440.392573829     A.U. after   13 cycles
 SCF Done:  E(RB3LYP) =  -440.393873883     A.U. after   14 cycles
 SCF Done:  E(RB3LYP) =  -440.394695895     A.U. after   14 cycles
 SCF Done:  E(RB3LYP) =  -440.394801096     A.U. after   12 cycles
 SCF Done:  E(RB3LYP) =  -440.394836117     A.U. after   11 cycles
 SCF Done:  E(RB3LYP) =  -440.394844114     A.U. after   11 cycles
 SCF Done:  E(RB3LYP) =  -440.394844789     A.U. after    9 cycles
 SCF Done:  E(RB3LYP) =  -440.394845165     A.U. after    8 cycles
 SCF Done:  E(RB3LYP) =  -440.394845233     A.U. after    7 cycles
 Optimization completed.
    -- Stationary point found.
 Normal termination of Gaussian 16 at Sun Jul  3 12:55:35 2022.

 ----------------------------------------------------------------------
 #N Geom=AllCheck Guess=TCheck SCRF=Check GenChk RB3LYP/6-31G(2df,p) Fr
 eq
 ----------------------------------------------------------------------

 Structure from the checkpoint file:  "CdCpCdOpCONCC.chk"
 -------------------
 Title Card Required
 -------------------
 Charge =  0 Multiplicity = 1

                         Standard orientation:
 ---------------------------------------------------------------------
 Center     Atomic      Atomic             Coordinates (Angstroms)
 Number     Number       Type             X           Y           Z
 ---------------------------------------------------------------------
      1          6           0        2.849898   -1.213613    0.158201
      2          6           0        1.816178   -0.425810   -0.143570
      3          6           0        2.001016    1.055822   -0.174273
      4          8           0        3.024410    1.627036    0.120056
      5          6           0        0.444727   -0.936554   -0.486701
      6          8           0       -0.449558   -0.412176    0.488524
      7          7           0       -1.803396   -0.662552    0.068656
      8          6           0       -2.514289    0.618508    0.099693
      9          6           0       -4.004561    0.380544   -0.128278
     10          1           0        3.819714   -0.776081    0.371288
     11          1           0        2.759714   -2.294102    0.194448
     12          1           0        1.104663    1.623675   -0.502931
     13          1           0        0.422884   -2.034575   -0.494947
     14          1           0        0.138928   -0.591207   -1.485466
     15          1           0       -2.173661   -1.243677    0.821420
     16          1           0       -2.101676    1.242530   -0.700622
     17          1           0       -2.346039    1.150583    1.047864
     18          1           0       -4.177096   -0.138965   -1.075033
     19          1           0       -4.541556    1.332545   -0.151201
     20          1           0       -4.438733   -0.225120    0.675512
 ---------------------------------------------------------------------

 SCF Done:  E(RB3LYP) =  -440.394845233     A.U. after    1 cycles

 The electronic state is 1-A.
 Alpha  occ. eigenvalues --  -19.16870 -19.13441 -14.36848 -10.26662 -10.23704
 Alpha  occ. eigenvalues --  -10.21292 -10.20330 -10.20242 -10.18628  -1.06567
 Alpha  occ. eigenvalues --   -1.03999  -0.86507  -0.80160  -0.73438  -0.67242
 Alpha  occ. eigenvalues --   -0.63880  -0.61636  -0.53280  -0.51446  -0.49620
 Alpha  occ. eigenvalues --   -0.48477  -0.46570  -0.44340  -0.42149  -0.41710
 Alpha  occ. eigenvalues --   -0.40522  -0.39624  -0.38658  -0.37277  -0.36098
 Alpha  occ. eigenvalues --   -0.35025  -0.28294  -0.27125  -0.24969  -0.24574
 Alpha virt. eigenvalues --   -0.06116   0.04850   0.07752   0.09899   0.11018
 Alpha virt. eigenvalues --    0.12359   0.13199   0.14056   0.15279   0.16050
 Alpha virt. eigenvalues --    0.16777   0.17452   0.18307   0.19922   0.20881

 Mulliken charges:
               1
     1  C   -0.365540
     2  C    0.238277
     3  C    0.107357
     4  O   -0.258676
     5  C   -0.143250
     6  O   -0.278264
     7  N   -0.195208
     8  C   -0.085070
     9  C   -0.395168
    10  H    0.147081
    11  H    0.126127
    12  H    0.079033
    13  H    0.099190
    14  H    0.104659
    15  H    0.234578
    16  H    0.110297
    17  H    0.099836
    18  H    0.132111
    19  H    0.125710
    20  H    0.116918
 Sum of Mulliken charges =  -0.00000

 Dipole moment (field-independent basis, Debye):
    X=             -2.5585    Y=             -1.9109    Z=             -0.3951  Tot=              3.2177
 Quadrupole moment (field-independent basis, Debye-Ang):
   XX=            -55.4505   YY=            -54.2573   ZZ=            -54.1260
   XY=             -8.4436   XZ=             -2.6999   YZ=             -2.0858

  Exact polarizability: 109.063  -7.661  82.927   4.620  -2.118  55.626
 Approx polarizability: 136.004  -7.709 125.799   9.421  -3.701  86.391

                      1                      2                      3
                      A                      A                      A
 Frequencies --     39.9634                42.1025                75.2067
 Red. masses --      2.7903                 3.8697                 2.5242
 Frc consts  --      0.0026                 0.0040                 0.0084
 IR Inten    --      1.1709                 0.7619                 0.6073

                      4                      5                      6
                      A                      A                      A
 Frequencies --     95.9975               116.0552               198.7093
 Red. masses --      2.9077                 3.0193                 3.3178
 Frc consts  --      0.0158                 0.0240                 0.0772
 IR Inten    --      2.3745                 5.1530                 5.0876

                      7                      8                      9
                      A                      A                      A
 Frequencies --    238.4354               249.1098               295.5082
 Red. masses --      1.1153                 3.2003                 3.4798
 Frc consts  --      0.0374                 0.1170                 0.1790
 IR Inten    --      0.5187                 2.2963                 5.7734

                     10                     11                     12
                      A                      A                      A
 Frequencies --    346.5959               394.4855               446.2946
 Red. masses --      2.6738                 3.6363                 3.7236
 Frc consts  --      0.1892                 0.3334                 0.4370
 IR Inten    --      0.7136                 0.2870                 5.2626

                     13                     14                     15
                      A                      A                      A
 Frequencies --    536.6819               644.4518               729.4901
 Red. masses --      4.0086                 2.4785                 1.2521
 Frc consts  --      0.6803                 0.6065                 0.3926
 IR Inten    --      7.4252                11.9080                 3.2239

                     16                     17                     18
                      A                      A                      A
 Frequencies --    817.2452               856.0690               882.9565
 Red. masses --      1.0949                 2.3501                 2.7909
 Frc consts  --      0.4308                 1.0147                 1.2820
 IR Inten    --      6.1114                14.6340                44.6798

                     19                     20                     21
                      A                      A                      A
 Frequencies --    947.1703               982.8511               995.7873
 Red. masses --      1.7214                 1.7998                 2.3672
 Frc consts  --      0.9099                 1.0244                 1.3830
 IR Inten    --     21.8993                12.1806                36.8285

                     22                     23                     24
                      A                      A                      A
 Frequencies --   1004.3472              1022.0114              1048.6633
 Red. masses --      1.3450                 1.5618                 2.0530
 Frc consts  --      0.7994                 0.9612                 1.3302
 IR Inten    --     29.3001                 8.1162                 2.5718

                     25                     26                     27
                      A                      A                      A
 Frequencies --   1056.8090              1078.9376              1164.0894
 Red. masses --      3.2309                 3.6004                 2.5899
 Frc consts  --      2.1260                 2.4694                 2.0678
 IR Inten    --     16.8825                65.7752                 3.1865

                     28                     29                     30
                      A                      A                      A
 Frequencies --   1223.0218              1231.4533              1286.4749
 Red. masses --      1.4179                 1.3740                 2.0054
 Frc consts  --      1.2496                 1.2276                 1.9555
 IR Inten    --     13.0190                 5.5191                 3.6107

                     31                     32                     33
                      A                      A                      A
 Frequencies --   1295.2155              1369.6788              1379.5876
 Red. masses --      1.2093                 1.3299                 1.3344
 Frc consts  --      1.1953                 1.4700                 1.4963
 IR Inten    --      9.4768                 9.5904                14.1748

                     34                     35                     36
                      A                      A                      A
 Frequencies --   1409.9411              1435.1669              1441.3667
 Red. masses --      1.2721                 1.2542                 1.2222
 Frc consts  --      1.4900                 1.5220                 1.4960
 IR Inten    --      4.0010                46.9941                 6.2086

                     37                     38                     39
                      A                      A                      A
 Frequencies --   1470.8329              1495.9040              1498.7114
 Red. masses --      1.1093                 1.0599                 1.0401
 Frc consts  --      1.4139                 1.3974                 1.3764
 IR Inten    --      4.5457                 5.7348                 4.3065

                     40                     41                     42
                      A                      A                      A
 Frequencies --   1510.7314              1525.4995              1693.2810
 Red. masses --      1.0857                 1.0919                 6.3363
 Frc consts  --      1.4600                 1.4971                10.7039
 IR Inten    --      7.1393                 2.4914                52.4014

                     43                     44                     45
                      A                      A                      A
 Frequencies --   1808.2415              2906.0645              2991.1561
 Red. masses --      9.1008                 1.0829                 1.0577
 Frc consts  --     17.5325                 5.3884                 5.5758
 IR Inten    --    118.5494               108.4880                41.1408

                     46                     47                     48
                      A                      A                      A
 Frequencies --   2995.1743              3032.4651              3036.3970
 Red. masses --      1.0678                 1.1042                 1.0388
 Frc consts  --      5.6442                 5.9827                 5.6430
 IR Inten    --     34.8132                34.3462                19.8190

                     49                     50                     51
                      A                      A                      A
 Frequencies --   3061.1568              3105.1076              3124.1379
 Red. masses --      1.0921                 1.0988                 1.1023
 Frc consts  --      6.0297                 6.2421                 6.3386
 IR Inten    --     18.4963                34.0578                21.5226

                     52                     53                     54
                      A                      A                      A
 Frequencies --   3152.1056              3243.7014              3440.8928
 Red. masses --      1.0597                 1.1161                 1.0751
 Frc consts  --      6.2036                 6.9188                 7.4998
 IR Inten    --      5.0502                 1.2918                 1.3094

 - Thermochemistry -
 -------------------
 Temperature   298.150 Kelvin.  Pressure   1.00000 Atm.
 Atom     1 has atomic number  6 and mass  12.00000

 Molecular mass:   129.07898 amu.
 Principal axes and moments of inertia in atomic units:
                           1         2         3
     Eigenvalues --   483.146872721.162793097.17078
           X            0.99971  -0.02427   0.00079
           Y            0.02427   0.99969  -0.00515
           Z           -0.00067   0.00517   0.99999
 This molecule is an asymmetric top.
 Rotational symmetry number  1.
 Warning -- assumption of classical behavior for rotation
           may cause significant error
 Rotational temperatures (Kelvin)      0.17927     0.03183     0.02797
 Rotational constants (GHZ):           3.73539     0.66322     0.58271
 Zero-point vibrational energy     439445.2 (Joules/Mol)
                                  105.02991 (Kcal/Mol)
 Warning -- explicit consideration of  13 degrees of freedom as
           vibrations may cause significant error
 Vibrational temperatures:     57.50    60.58   108.21   138.12   166.98
          (Kelvin)            285.90   343.06   358.41   425.17   498.67
                              567.58   642.12   772.17   927.22  1049.57
                             1175.83  1231.69  1270.38  1362.77  1414.10
                             1432.72  1445.03  1470.45  1508.79  1520.51
                             1552.35  1674.87  1759.66  1771.79  1850.95
                             1863.53  1970.66  1984.92  2028.59  2064.89
                             2073.81  2116.20  2152.27  2156.31  2173.61
                             2194.85  2436.25  2601.66  4181.18  4303.61
                             4309.39  4363.04  4368.70  4404.32  4467.56
                             4494.94  4535.18  4666.96  4950.68

 Zero-point correction=                           0.167376 (Hartree/Particle)
 Thermal correction to Energy=                    0.178120
 Thermal correction to Enthalpy=                  0.179064
 Thermal correction to Gibbs Free Energy=         0.129516
 Sum of electronic and zero-point Energies=           -440.227469
 Sum of electronic and thermal Energies=              -440.216726
 Sum of electronic and thermal Enthalpies=            -440.215781
 Sum of electronic and thermal Free Energies=         -440.265330

                     E (Thermal)             CV                S
                      KCal/Mol        Cal/Mol-Kelvin    Cal/Mol-Kelvin
 Total                  111.772             36.626            104.283
 Electronic               0.000              0.000              0.000
 Translational            0.889              2.981             40.479
 Rotational               0.889              2.981             29.789
 Vibrational            109.994             30.664             34.016
 Vibration     1          0.594              1.981              5.261
 Vibration     2          0.595              1.980              5.158
 Vibration     3          0.599              1.966              4.012
 Vibration     4          0.603              1.952              3.534
 Vibration     5          0.608              1.936              3.165
 Vibration     6          0.637              1.842              2.145
 Vibration     7          0.656              1.782              1.815
 Vibration     8          0.662              1.764              1.737
 Vibration     9          0.690              1.682              1.442
 Vibration    10          0.725              1.582              1.182
 Vibration    11          0.761              1.482              0.983
 Vibration    12          0.806              1.369              0.807
 Vibration    13          0.892              1.169              0.572

 Optimization completed.
    -- Stationary point found.
 Normal termination of Gaussian 16 at Sun Jul  3 13:20:51 2022.
