 Gaussian 16, Revision A.03,
 Gaussian 16:  ES64L-G16RevA.03 25-Dec-2016

 -----------------------------
 # opt freq b3lyp/6-31g(2df,p)
 -----------------------------

 -------------------
 Title Card Required
 -------------------
 Symbolic Z-matrix:
 Charge =  0 Multiplicity = 1

 SCF Done:  E(RB3LYP) =  -314.491214829     A.U. after   13 cycles
 SCF Done:  E(RB3LYP) =  -314.495073271     A.U. after   11 cycles
 SCF Done:  E(RB3LYP) =  -314.499744540     A.U. after   11 cycles
 SCF Done:  E(RB3LYP) =  -314.503392751     A.U. after   11 cycles
 SCF Done:  E(RB3LYP) =  -314.504489656     A.U. after   11 cycles
 SCF Done:  E(RB3LYP) =  -314.504758695     A.U. after   10 cycles
 SCF Done:  E(RB3LYP) =  -314.504863259     A.U. after    9 cycles
 SCF Done:  E(RB3LYP) =  -314.504909654     A.U. after    8 cycles
 SCF Done:  E(RB3LYP) =  -314.504930152     A.U. after    8 cycles
 SCF Done:  E(RB3LYP) =  -314.504934965     A.U. after    8 cycles
 SCF Done:  E(RB3LYP) =  -314.504935808     A.U. after    7 cycles
 SCF Done:  E(RB3LYP) =  -314.504935843     A.U. after    6 cycles
 Optimization completed.
    -- Stationary point found.
 Normal termination of Gaussian 16 at Mon Jul  4 00:48:50 2022.

 ----------------------------------------------------------------------
 #N Geom=AllCheck Guess=TCheck SCRF=Check GenChk RB3LYP/6-31G(2df,p) Fr
 eq
 ----------------------------------------------------------------------

 Structure from the checkpoint file:  "CdCpCpCpCpCpCpC.chk"
 -------------------
 Title Card Required
 -------------------
 Charge =  0 Multiplicity = 1

                         Standard orientation:
 ---------------------------------------------------------------------
 Center     Atomic      Atomic             Coordinates (Angstroms)
 Number     Number       Type             X           Y           Z
 ---------------------------------------------------------------------
      1          6           0       -2.121438   -0.605548   -1.092691
      2          6           0       -1.358452   -0.091030   -0.127962
      3          6           0       -1.851128   -0.019123    1.297424
      4          6           0        0.024073    0.468780   -0.432368
      5          6           0        0.054439    1.990056   -0.175413
      6          6           0        1.156550   -0.282675    0.322686
      7          6           0        1.114498   -1.791909    0.042976
      8          6           0        2.547128    0.272176   -0.022495
      9          1           0       -3.117303   -0.988606   -0.891083
     10          1           0       -1.780513   -0.662031   -2.121910
     11          1           0       -2.864126   -0.419821    1.384123
     12          1           0       -1.863125    1.011939    1.669299
     13          1           0       -1.205590   -0.587576    1.977482
     14          1           0        0.199543    0.312612   -1.505811
     15          1           0        0.040569    2.220227    0.895632
     16          1           0       -0.814114    2.472848   -0.633531
     17          1           0        0.950885    2.448712   -0.599941
     18          1           0        0.999006   -0.130613    1.400030
     19          1           0        1.282998   -1.993405   -1.022000
     20          1           0        0.150302   -2.232476    0.308794
     21          1           0        1.895490   -2.313659    0.605764
     22          1           0        2.734548    0.215892   -1.101957
     23          1           0        3.327140   -0.312021    0.476842
     24          1           0        2.670278    1.313618    0.285322
 ---------------------------------------------------------------------

 SCF Done:  E(RB3LYP) =  -314.504935843     A.U. after    1 cycles

 The electronic state is 1-A.
 Alpha  occ. eigenvalues --  -10.18465 -10.18391 -10.18370 -10.17586 -10.17068
 Alpha  occ. eigenvalues --  -10.16885 -10.16514 -10.16199  -0.82605  -0.77263
 Alpha  occ. eigenvalues --   -0.72224  -0.68053  -0.67519  -0.62485  -0.56118
 Alpha  occ. eigenvalues --   -0.51690  -0.46322  -0.44884  -0.43155  -0.42989
 Alpha  occ. eigenvalues --   -0.41044  -0.39566  -0.38689  -0.37759  -0.37459
 Alpha  occ. eigenvalues --   -0.35997  -0.35074  -0.33721  -0.31902  -0.31097
 Alpha  occ. eigenvalues --   -0.30495  -0.23971
 Alpha virt. eigenvalues --    0.02965   0.08133   0.11043   0.12020   0.12316
 Alpha virt. eigenvalues --    0.13901   0.15482   0.16093   0.16187   0.16399
 Alpha virt. eigenvalues --    0.17703   0.17825   0.19210   0.19706   0.20315

 Mulliken charges:
               1
     1  C   -0.428127
     2  C    0.396421
     3  C   -0.481529
     4  C   -0.040909
     5  C   -0.413218
     6  C    0.041867
     7  C   -0.392046
     8  C   -0.397946
     9  H    0.097813
    10  H    0.096500
    11  H    0.119502
    12  H    0.124888
    13  H    0.126176
    14  H    0.067579
    15  H    0.113373
    16  H    0.116069
    17  H    0.117089
    18  H    0.069822
    19  H    0.109906
    20  H    0.118780
    21  H    0.105152
    22  H    0.110427
    23  H    0.108911
    24  H    0.113501
 Sum of Mulliken charges =  -0.00000

 Dipole moment (field-independent basis, Debye):
    X=              0.2417    Y=              0.2271    Z=              0.3717  Tot=              0.4981
 Quadrupole moment (field-independent basis, Debye-Ang):
   XX=            -53.3273   YY=            -54.2093   ZZ=            -52.1007
   XY=              0.3087   XZ=             -0.7468   YZ=              0.0159

  Exact polarizability:  97.361   5.468  81.262   4.362   3.918  83.541
 Approx polarizability: 127.277   9.123 112.703   9.940   8.748 131.290

                      1                      2                      3
                      A                      A                      A
 Frequencies --     65.5660                71.3393               173.9242
 Red. masses --      2.5437                 2.4235                 2.7113
 Frc consts  --      0.0064                 0.0073                 0.0483
 IR Inten    --      0.1522                 0.0077                 0.0523

                      4                      5                      6
                      A                      A                      A
 Frequencies --    186.0435               209.4775               222.4189
 Red. masses --      1.0784                 1.1144                 1.1779
 Frc consts  --      0.0220                 0.0288                 0.0343
 IR Inten    --      0.0854                 0.1154                 0.0650

                      7                      8                      9
                      A                      A                      A
 Frequencies --    242.1744               268.2926               306.0800
 Red. masses --      1.2702                 1.9534                 1.9660
 Frc consts  --      0.0439                 0.0828                 0.1085
 IR Inten    --      0.0315                 0.3081                 0.2986

                     10                     11                     12
                      A                      A                      A
 Frequencies --    346.2421               386.2014               420.1053
 Red. masses --      2.2254                 2.2665                 2.4255
 Frc consts  --      0.1572                 0.1992                 0.2522
 IR Inten    --      0.1409                 0.3350                 0.5996

                     13                     14                     15
                      A                      A                      A
 Frequencies --    467.0657               525.7538               564.1281
 Red. masses --      2.2561                 2.6860                 2.2785
 Frc consts  --      0.2900                 0.4374                 0.4272
 IR Inten    --      1.5700                 0.4359                 4.5018

                     16                     17                     18
                      A                      A                      A
 Frequencies --    735.0103               762.1689               831.1781
 Red. masses --      1.2434                 2.0373                 2.2243
 Frc consts  --      0.3958                 0.6973                 0.9054
 IR Inten    --      0.2785                 1.7713                 0.4160

                     19                     20                     21
                      A                      A                      A
 Frequencies --    916.5390               929.4630               930.2896
 Red. masses --      2.1308                 1.2332                 1.2840
 Frc consts  --      1.0546                 0.6277                 0.6547
 IR Inten    --      1.4089                13.4733                19.9932

                     22                     23                     24
                      A                      A                      A
 Frequencies --    957.5005               965.9828               985.2641
 Red. masses --      1.7028                 1.4450                 1.2420
 Frc consts  --      0.9198                 0.7944                 0.7104
 IR Inten    --      1.1065                 0.0462                 2.7914

                     25                     26                     27
                      A                      A                      A
 Frequencies --   1015.6516              1049.3038              1067.4329
 Red. masses --      1.3004                 2.6425                 1.4969
 Frc consts  --      0.7903                 1.7142                 1.0049
 IR Inten    --      0.8461                 1.9536                 2.4319

                     28                     29                     30
                      A                      A                      A
 Frequencies --   1104.0826              1142.3366              1186.5012
 Red. masses --      1.7058                 2.1706                 1.9368
 Frc consts  --      1.2251                 1.6689                 1.6064
 IR Inten    --     11.0528                 0.0612                 2.7751

                     31                     32                     33
                      A                      A                      A
 Frequencies --   1194.1385              1291.0237              1302.1024
 Red. masses --      1.9334                 2.1361                 1.6918
 Frc consts  --      1.6244                 2.0977                 1.6900
 IR Inten    --      1.4475                 1.5512                 5.4252

                     34                     35                     36
                      A                      A                      A
 Frequencies --   1331.2959              1353.1164              1371.2464
 Red. masses --      1.2524                 1.4013                 1.3528
 Frc consts  --      1.3078                 1.5117                 1.4987
 IR Inten    --      2.9515                 0.6575                 0.2565

                     37                     38                     39
                      A                      A                      A
 Frequencies --   1398.5511              1404.5973              1411.6199
 Red. masses --      1.2477                 1.2286                 1.2429
 Frc consts  --      1.4379                 1.4282                 1.4592
 IR Inten    --      0.3367                 5.4188                 8.4808

                     40                     41                     42
                      A                      A                      A
 Frequencies --   1422.5958              1455.6379              1479.9784
 Red. masses --      1.2183                 1.1763                 1.0465
 Frc consts  --      1.4527                 1.4685                 1.3505
 IR Inten    --      2.7686                 0.4771                 5.5572

                     43                     44                     45
                      A                      A                      A
 Frequencies --   1486.4224              1489.1288              1496.0377
 Red. masses --      1.0438                 1.0494                 1.0533
 Frc consts  --      1.3588                 1.3710                 1.3889
 IR Inten    --      0.3424                 4.9450                 7.7286

                     46                     47                     48
                      A                      A                      A
 Frequencies --   1501.1356              1503.3194              1507.4033
 Red. masses --      1.0430                 1.0642                 1.0534
 Frc consts  --      1.3848                 1.4170                 1.4102
 IR Inten    --     12.1594                 0.1477                 1.2262

                     49                     50                     51
                      A                      A                      A
 Frequencies --   1516.7517              1714.4937              2995.4504
 Red. masses --      1.0467                 5.2548                 1.0798
 Frc consts  --      1.4188                 9.1007                 5.7083
 IR Inten    --      2.3855                14.5412                 0.5178

                     52                     53                     54
                      A                      A                      A
 Frequencies --   3010.8055              3024.8361              3027.2677
 Red. masses --      1.0831                 1.0380                 1.0378
 Frc consts  --      5.7848                 5.5955                 5.6035
 IR Inten    --     23.9231                18.8136                13.4560

                     55                     56                     57
                      A                      A                      A
 Frequencies --   3030.5572              3036.2736              3076.3154
 Red. masses --      1.0394                 1.0369                 1.0977
 Frc consts  --      5.6247                 5.6321                 6.1207
 IR Inten    --     45.7248                22.6503                20.0711

                     58                     59                     60
                      A                      A                      A
 Frequencies --   3086.3849              3093.3028              3101.7455
 Red. masses --      1.0998                 1.0991                 1.1004
 Frc consts  --      6.1727                 6.1963                 6.2374
 IR Inten    --      1.2218                58.7614                31.0029

                     61                     62                     63
                      A                      A                      A
 Frequencies --   3108.1933              3114.6980              3115.4778
 Red. masses --      1.1007                 1.0998                 1.0995
 Frc consts  --      6.2652                 6.2865                 6.2879
 IR Inten    --     31.0540                34.1292                24.8130

                     64                     65                     66
                      A                      A                      A
 Frequencies --   3119.1931              3136.7569              3215.3865
 Red. masses --      1.0989                 1.0610                 1.1143
 Frc consts  --      6.2995                 6.1505                 6.7878
 IR Inten    --     23.0697                 9.6189                18.4221

 - Thermochemistry -
 -------------------
 Temperature   298.150 Kelvin.  Pressure   1.00000 Atm.
 Atom     1 has atomic number  6 and mass  12.00000

 Molecular mass:   112.12520 amu.
 Principal axes and moments of inertia in atomic units:
                           1         2         3
     Eigenvalues --   689.588821241.307451491.80575
           X            0.99993   0.00276  -0.01138
           Y           -0.00268   0.99997   0.00657
           Z            0.01139  -0.00654   0.99991
 This molecule is an asymmetric top.
 Rotational symmetry number  1.
 Warning -- assumption of classical behavior for rotation
           may cause significant error
 Rotational temperatures (Kelvin)      0.12560     0.06978     0.05806
 Rotational constants (GHZ):           2.61713     1.45390     1.20977
 Zero-point vibrational energy     579930.2 (Joules/Mol)
                                  138.60665 (Kcal/Mol)
 Warning -- explicit consideration of  15 degrees of freedom as
           vibrations may cause significant error
 Vibrational temperatures:     94.33   102.64   250.24   267.68   301.39
          (Kelvin)            320.01   348.43   386.01   440.38   498.17
                              555.66   604.44   672.00   756.44   811.65
                             1057.52  1096.59  1195.88  1318.70  1337.29
                             1338.48  1377.63  1389.83  1417.58  1461.30
                             1509.71  1535.80  1588.53  1643.57  1707.11
                             1718.10  1857.50  1873.43  1915.44  1946.83
                             1972.92  2012.20  2020.90  2031.01  2046.80
                             2094.34  2129.36  2138.63  2142.52  2152.46
                             2159.80  2162.94  2168.82  2182.27  2466.77
                             4309.78  4331.88  4352.06  4355.56  4360.30
                             4368.52  4426.13  4440.62  4450.57  4462.72
                             4472.00  4481.36  4482.48  4487.82  4513.09
                             4626.22

 Zero-point correction=                           0.220884 (Hartree/Particle)
 Thermal correction to Energy=                    0.231386
 Thermal correction to Enthalpy=                  0.232330
 Thermal correction to Gibbs Free Energy=         0.185960
 Sum of electronic and zero-point Energies=           -314.284052
 Sum of electronic and thermal Energies=              -314.273550
 Sum of electronic and thermal Enthalpies=            -314.272606
 Sum of electronic and thermal Free Energies=         -314.318976

                     E (Thermal)             CV                S
                      KCal/Mol        Cal/Mol-Kelvin    Cal/Mol-Kelvin
 Total                  145.197             39.038             97.594
 Electronic               0.000              0.000              0.000
 Translational            0.889              2.981             40.059
 Rotational               0.889              2.981             28.637
 Vibrational            143.419             33.076             28.898
 Vibration     1          0.597              1.971              4.282
 Vibration     2          0.598              1.968              4.116
 Vibration     3          0.627              1.875              2.393
 Vibration     4          0.632              1.859              2.267
 Vibration     5          0.642              1.826              2.048
 Vibration     6          0.648              1.807              1.939
 Vibration     7          0.658              1.776              1.787
 Vibration     8          0.673              1.731              1.607
 Vibration     9          0.696              1.662              1.383
 Vibration    10          0.724              1.583              1.183
 Vibration    11          0.755              1.500              1.015
 Vibration    12          0.783              1.427              0.892
 Vibration    13          0.824              1.323              0.746
 Vibration    14          0.881              1.193              0.597
 Vibration    15          0.920              1.109              0.516

 Optimization completed.
    -- Stationary point found.
 Normal termination of Gaussian 16 at Mon Jul  4 01:22:21 2022.
