 Gaussian 16, Revision A.03,
 Gaussian 16:  ES64L-G16RevA.03 25-Dec-2016

 -----------------------------
 # opt freq b3lyp/6-31g(2df,p)
 -----------------------------

 -------------------
 Title Card Required
 -------------------
 Symbolic Z-matrix:
 Charge =  0 Multiplicity = 1

 SCF Done:  E(RB3LYP) =  -421.708232538     A.U. after   13 cycles
 SCF Done:  E(RB3LYP) =  -421.721642265     A.U. after   12 cycles
 SCF Done:  E(RB3LYP) =  -421.727043690     A.U. after   12 cycles
 SCF Done:  E(RB3LYP) =  -421.732024985     A.U. after   12 cycles
 SCF Done:  E(RB3LYP) =  -421.734652011     A.U. after   12 cycles
 SCF Done:  E(RB3LYP) =  -421.735996411     A.U. after   11 cycles
 SCF Done:  E(RB3LYP) =  -421.736235569     A.U. after   11 cycles
 SCF Done:  E(RB3LYP) =  -421.736412469     A.U. after   10 cycles
 SCF Done:  E(RB3LYP) =  -421.736833313     A.U. after   12 cycles
 SCF Done:  E(RB3LYP) =  -421.737407138     A.U. after   12 cycles
 SCF Done:  E(RB3LYP) =  -421.742280352     A.U. after   10 cycles
 SCF Done:  E(RB3LYP) =  -421.742303307     A.U. after    9 cycles
 SCF Done:  E(RB3LYP) =  -421.742313913     A.U. after    9 cycles
 SCF Done:  E(RB3LYP) =  -421.742318184     A.U. after    7 cycles
 SCF Done:  E(RB3LYP) =  -421.742324393     A.U. after    9 cycles
 SCF Done:  E(RB3LYP) =  -421.742327839     A.U. after    9 cycles
 SCF Done:  E(RB3LYP) =  -421.742329169     A.U. after    9 cycles
 SCF Done:  E(RB3LYP) =  -421.742329561     A.U. after    8 cycles
 SCF Done:  E(RB3LYP) =  -421.742329609     A.U. after    6 cycles
 Optimization completed.
    -- Stationary point found.
 Normal termination of Gaussian 16 at Mon Jul  4 01:30:28 2022.

 ----------------------------------------------------------------------
 #N Geom=AllCheck Guess=TCheck SCRF=Check GenChk RB3LYP/6-31G(2df,p) Fr
 eq
 ----------------------------------------------------------------------

 Structure from the checkpoint file:  "CdCpCpNpCpCpCpNO.chk"
 -------------------
 Title Card Required
 -------------------
 Charge =  0 Multiplicity = 1

                         Standard orientation:
 ---------------------------------------------------------------------
 Center     Atomic      Atomic             Coordinates (Angstroms)
 Number     Number       Type             X           Y           Z
 ---------------------------------------------------------------------
      1          6           0        2.734000    0.031650   -0.614658
      2          6           0        1.622349   -0.307615    0.061963
      3          6           0        1.554245   -1.647740    0.759989
      4          7           0        0.525474    0.550968    0.219679
      5          6           0        0.632388    1.865065   -0.394644
      6          6           0       -0.806250    0.003493    0.409561
      7          6           0       -1.738918    0.888032    1.235401
      8          7           0       -1.404334   -0.246349   -0.923969
      9          8           0       -2.532354   -1.126211   -0.741527
     10          1           0        3.580543   -0.641864   -0.625452
     11          1           0        2.848712    0.961825   -1.151736
     12          1           0        2.526413   -2.138317    0.695380
     13          1           0        0.816648   -2.322556    0.310628
     14          1           0        1.295027   -1.539653    1.818974
     15          1           0        1.523933    2.373360   -0.013400
     16          1           0       -0.239387    2.465600   -0.140895
     17          1           0        0.708736    1.820578   -1.490455
     18          1           0       -0.702337   -0.942928    0.948362
     19          1           0       -1.994191    1.816196    0.718086
     20          1           0       -1.278616    1.127913    2.197200
     21          1           0       -2.667803    0.342792    1.416577
     22          1           0       -0.736563   -0.819918   -1.439737
     23          1           0       -3.257146   -0.622978   -1.126967
 ---------------------------------------------------------------------

 SCF Done:  E(RB3LYP) =  -421.742329609     A.U. after    1 cycles

 The electronic state is 1-A.
 Alpha  occ. eigenvalues --  -19.16042 -14.36088 -14.33956 -10.23994 -10.21295
 Alpha  occ. eigenvalues --  -10.20172 -10.18103 -10.17411 -10.14649  -1.05127
 Alpha  occ. eigenvalues --   -0.94424  -0.82551  -0.76694  -0.73042  -0.68795
 Alpha  occ. eigenvalues --   -0.67120  -0.59535  -0.53769  -0.50340  -0.50088
 Alpha  occ. eigenvalues --   -0.48257  -0.44643  -0.44534  -0.41995  -0.41019
 Alpha  occ. eigenvalues --   -0.40894  -0.39475  -0.37944  -0.37608  -0.36448
 Alpha  occ. eigenvalues --   -0.36188  -0.34081  -0.29580  -0.28091  -0.24184
 Alpha  occ. eigenvalues --   -0.19315
 Alpha virt. eigenvalues --    0.04621   0.07714   0.08070   0.10648   0.11787
 Alpha virt. eigenvalues --    0.13344   0.13790   0.14325   0.15819   0.16365
 Alpha virt. eigenvalues --    0.17695   0.17915   0.18579   0.19812   0.20572

 Mulliken charges:
               1
     1  C   -0.453489
     2  C    0.394528
     3  C   -0.482239
     4  N   -0.107013
     5  C   -0.334935
     6  C    0.080184
     7  C   -0.397709
     8  N   -0.232057
     9  O   -0.416520
    10  H    0.092601
    11  H    0.093273
    12  H    0.126476
    13  H    0.132026
    14  H    0.130618
    15  H    0.127607
    16  H    0.123608
    17  H    0.118737
    18  H    0.092265
    19  H    0.121474
    20  H    0.120810
    21  H    0.127965
    22  H    0.240098
    23  H    0.301694
 Sum of Mulliken charges =  -0.00000

 Dipole moment (field-independent basis, Debye):
    X=             -0.9139    Y=              0.4039    Z=              0.1530  Tot=              1.0108
 Quadrupole moment (field-independent basis, Debye-Ang):
   XX=            -55.2830   YY=            -55.7220   ZZ=            -56.3836
   XY=             -2.7919   XZ=              1.0032   YZ=             -0.6391

  Exact polarizability: 108.471  -0.623  81.199  -8.747  -4.193  71.277
 Approx polarizability: 149.279   2.801 114.288 -15.863  -6.703 107.477

                      1                      2                      3
                      A                      A                      A
 Frequencies --     29.4133                58.4493               113.4246
 Red. masses --      3.1698                 3.0080                 3.0339
 Frc consts  --      0.0016                 0.0061                 0.0230
 IR Inten    --      0.5040                 0.3959                 0.0531

                      4                      5                      6
                      A                      A                      A
 Frequencies --    156.5353               219.7686               239.0028
 Red. masses --      2.8319                 1.1766                 1.2618
 Frc consts  --      0.0409                 0.0335                 0.0425
 IR Inten    --      2.0707                 1.3428                 0.7989

                      7                      8                      9
                      A                      A                      A
 Frequencies --    257.9017               272.1026               294.1999
 Red. masses --      1.7616                 1.2279                 2.7022
 Frc consts  --      0.0690                 0.0536                 0.1378
 IR Inten    --      0.0987                 0.1846                 1.7143

                     10                     11                     12
                      A                      A                      A
 Frequencies --    345.0482               368.9727               396.1056
 Red. masses --      1.2240                 2.9444                 2.8130
 Frc consts  --      0.0859                 0.2362                 0.2600
 IR Inten    --     83.5710                 0.7979                 4.8050

                     13                     14                     15
                      A                      A                      A
 Frequencies --    442.6893               455.1199               521.4036
 Red. masses --      3.5467                 2.7433                 2.4782
 Frc consts  --      0.4095                 0.3348                 0.3970
 IR Inten    --     10.0620                 7.2924                 3.1376

                     16                     17                     18
                      A                      A                      A
 Frequencies --    551.4819               566.0696               726.3051
 Red. masses --      2.4803                 2.5696                 1.1756
 Frc consts  --      0.4444                 0.4851                 0.3654
 IR Inten    --      8.3386                13.0761                 1.7703

                     19                     20                     21
                      A                      A                      A
 Frequencies --    755.9815               811.7586               867.7101
 Red. masses --      2.6643                 1.3845                 2.3748
 Frc consts  --      0.8971                 0.5375                 1.0535
 IR Inten    --      4.1218                47.0755                26.4039

                     22                     23                     24
                      A                      A                      A
 Frequencies --    906.5194               941.8665               993.1537
 Red. masses --      2.2067                 2.4114                 2.4282
 Frc consts  --      1.0684                 1.2604                 1.4111
 IR Inten    --     21.4971                16.8357                 8.4159

                     25                     26                     27
                      A                      A                      A
 Frequencies --   1017.9744              1042.0497              1067.4321
 Red. masses --      1.4216                 1.6384                 1.6437
 Frc consts  --      0.8679                 1.0482                 1.1034
 IR Inten    --      2.0357                63.0193                17.6544

                     28                     29                     30
                      A                      A                      A
 Frequencies --   1070.7475              1112.8509              1151.8952
 Red. masses --      1.6174                 1.9749                 1.3308
 Frc consts  --      1.0926                 1.4410                 1.0404
 IR Inten    --     18.4113                14.8812                 5.4123

                     31                     32                     33
                      A                      A                      A
 Frequencies --   1177.9630              1195.6996              1290.2486
 Red. masses --      1.8837                 2.2527                 2.9264
 Frc consts  --      1.5401                 1.8976                 2.8703
 IR Inten    --     15.4685                32.7419                51.0051

                     34                     35                     36
                      A                      A                      A
 Frequencies --   1328.8085              1355.5001              1386.7654
 Red. masses --      1.3505                 2.1232                 1.2515
 Frc consts  --      1.4050                 2.2985                 1.4180
 IR Inten    --     62.9882                74.4403                 7.8035

                     37                     38                     39
                      A                      A                      A
 Frequencies --   1395.8369              1410.3729              1428.7080
 Red. masses --      1.2653                 1.2675                 1.4636
 Frc consts  --      1.4524                 1.4855                 1.7602
 IR Inten    --      2.2081                 5.2021                62.7415

                     40                     41                     42
                      A                      A                      A
 Frequencies --   1442.4212              1469.2103              1478.7567
 Red. masses --      1.2574                 1.1400                 1.0710
 Frc consts  --      1.5414                 1.4498                 1.3799
 IR Inten    --      3.7551                 9.9346                 2.6724

                     43                     44                     45
                      A                      A                      A
 Frequencies --   1486.2149              1488.1759              1491.1579
 Red. masses --      1.0462                 1.1173                 1.0789
 Frc consts  --      1.3615                 1.4579                 1.4135
 IR Inten    --      4.8913                15.7478                 2.2536

                     46                     47                     48
                      A                      A                      A
 Frequencies --   1503.7091              1509.6345              1526.6168
 Red. masses --      1.0782                 1.0674                 1.0691
 Frc consts  --      1.4364                 1.4333                 1.4680
 IR Inten    --     18.0681                 2.9305                12.3620

                     49                     50                     51
                      A                      A                      A
 Frequencies --   1681.3089              2999.3614              3029.5132
 Red. masses --      4.7833                 1.0516                 1.0410
 Frc consts  --      7.9667                 5.5740                 5.6291
 IR Inten    --    130.4011                40.5119                18.5563

                     52                     53                     54
                      A                      A                      A
 Frequencies --   3053.7142              3064.4286              3070.4668
 Red. masses --      1.0360                 1.0811                 1.0890
 Frc consts  --      5.6918                 5.9817                 6.0491
 IR Inten    --     10.3509                23.7807                29.9816

                     55                     56                     57
                      A                      A                      A
 Frequencies --   3081.5030              3128.6592              3134.1758
 Red. masses --      1.0990                 1.1014                 1.0974
 Frc consts  --      6.1487                 6.3520                 6.3514
 IR Inten    --     15.7194                22.6033                18.0902

                     58                     59                     60
                      A                      A                      A
 Frequencies --   3134.8126              3158.7896              3185.1572
 Red. masses --      1.1018                 1.0939                 1.0608
 Frc consts  --      6.3792                 6.4311                 6.3411
 IR Inten    --     14.9239                17.7824                 1.3643

                     61                     62                     63
                      A                      A                      A
 Frequencies --   3266.1485              3448.8104              3808.0201
 Red. masses --      1.1138                 1.0755                 1.0683
 Frc consts  --      7.0007                 7.5367                 9.1274
 IR Inten    --     12.0960                 1.0755                41.4953

 - Thermochemistry -
 -------------------
 Temperature   298.150 Kelvin.  Pressure   1.00000 Atm.
 Atom     1 has atomic number  6 and mass  12.00000

 Molecular mass:   130.11061 amu.
 Principal axes and moments of inertia in atomic units:
                           1         2         3
     Eigenvalues --   786.612001661.520431916.63576
           X            0.99938  -0.03018  -0.01809
           Y            0.02930   0.99847  -0.04696
           Z            0.01948   0.04640   0.99873
 This molecule is an asymmetric top.
 Rotational symmetry number  1.
 Warning -- assumption of classical behavior for rotation
           may cause significant error
 Rotational temperatures (Kelvin)      0.11011     0.05213     0.04519
 Rotational constants (GHZ):           2.29432     1.08620     0.94162
 Zero-point vibrational energy     534519.0 (Joules/Mol)
                                  127.75311 (Kcal/Mol)
 Warning -- explicit consideration of  17 degrees of freedom as
           vibrations may cause significant error
 Vibrational temperatures:     42.32    84.10   163.19   225.22   316.20
          (Kelvin)            343.87   371.06   391.49   423.29   496.45
                              530.87   569.91   636.93   654.82   750.18
                              793.46   814.45  1044.99  1087.69  1167.94
                             1248.44  1304.28  1355.14  1428.93  1464.64
                             1499.28  1535.80  1540.57  1601.14  1657.32
                             1694.83  1720.35  1856.38  1911.86  1950.26
                             1995.25  2008.30  2029.21  2055.59  2075.32
                             2113.87  2127.60  2138.33  2141.15  2145.44
                             2163.50  2172.03  2196.46  2419.03  4315.41
                             4358.79  4393.61  4409.03  4417.72  4433.60
                             4501.44  4509.38  4510.30  4544.79  4582.73
                             4699.26  4962.07  5478.89

 Zero-point correction=                           0.203588 (Hartree/Particle)
 Thermal correction to Energy=                    0.214754
 Thermal correction to Enthalpy=                  0.215698
 Thermal correction to Gibbs Free Energy=         0.166773
 Sum of electronic and zero-point Energies=           -421.538742
 Sum of electronic and thermal Energies=              -421.527576
 Sum of electronic and thermal Enthalpies=            -421.526632
 Sum of electronic and thermal Free Energies=         -421.575556

                     E (Thermal)             CV                S
                      KCal/Mol        Cal/Mol-Kelvin    Cal/Mol-Kelvin
 Total                  134.760             41.091            102.971
 Electronic               0.000              0.000              0.000
 Translational            0.889              2.981             40.503
 Rotational               0.889              2.981             29.306
 Vibrational            132.983             35.129             33.162
 Vibration     1          0.593              1.984              5.869
 Vibration     2          0.596              1.974              4.509
 Vibration     3          0.607              1.938              3.209
 Vibration     4          0.620              1.895              2.591
 Vibration     5          0.647              1.811              1.961
 Vibration     6          0.657              1.781              1.810
 Vibration     7          0.667              1.749              1.676
 Vibration     8          0.675              1.725              1.583
 Vibration     9          0.689              1.685              1.450
 Vibration    10          0.723              1.585              1.189
 Vibration    11          0.741              1.536              1.084
 Vibration    12          0.763              1.478              0.977
 Vibration    13          0.802              1.377              0.818
 Vibration    14          0.813              1.350              0.780
 Vibration    15          0.876              1.203              0.607
 Vibration    16          0.907              1.136              0.541
 Vibration    17          0.922              1.105              0.512

 Optimization completed.
    -- Stationary point found.
 Normal termination of Gaussian 16 at Mon Jul  4 02:07:27 2022.
