 Gaussian 16, Revision A.03,
 Gaussian 16:  ES64L-G16RevA.03 25-Dec-2016

 -----------------------------
 # opt freq b3lyp/6-31g(2df,p)
 -----------------------------

 -------------------
 Title Card Required
 -------------------
 Symbolic Z-matrix:
 Charge =  0 Multiplicity = 1

 SCF Done:  E(RB3LYP) =  -345.313241672     A.U. after   12 cycles
 SCF Done:  E(RB3LYP) =  -345.323914230     A.U. after   11 cycles
 SCF Done:  E(RB3LYP) =  -345.326482003     A.U. after   10 cycles
 SCF Done:  E(RB3LYP) =  -345.327141396     A.U. after   10 cycles
 SCF Done:  E(RB3LYP) =  -345.327331608     A.U. after   10 cycles
 SCF Done:  E(RB3LYP) =  -345.327366467     A.U. after    9 cycles
 SCF Done:  E(RB3LYP) =  -345.327369843     A.U. after    7 cycles
 SCF Done:  E(RB3LYP) =  -345.327370552     A.U. after    6 cycles
 SCF Done:  E(RB3LYP) =  -345.327370646     A.U. after    6 cycles
 Optimization completed.
    -- Stationary point found.
 Normal termination of Gaussian 16 at Thu Aug  4 01:54:14 2022.

 ----------------------------------------------------------------------
 #N Geom=AllCheck Guess=TCheck SCRF=Check GenChk RB3LYP/6-31G(2df,p) Fr
 eq
 ----------------------------------------------------------------------

 Structure from the checkpoint file:  "CN1CCC2CC1N2.chk"
 -------------------
 Title Card Required
 -------------------
 Charge =  0 Multiplicity = 1

                         Standard orientation:
 ---------------------------------------------------------------------
 Center     Atomic      Atomic             Coordinates (Angstroms)
 Number     Number       Type             X           Y           Z
 ---------------------------------------------------------------------
      1          6           0        2.244450   -0.324054    0.318334
      2          7           0        1.081690   -0.021851   -0.493547
      3          6           0        0.537442    1.342720   -0.360676
      4          6           0       -0.782789    1.420223    0.459423
      5          6           0       -1.531192    0.089384    0.305768
      6          6           0       -0.709815   -1.042025    0.961225
      7          6           0        0.038456   -1.026235   -0.410270
      8          7           0       -1.181987   -0.446404   -1.068364
      9          1           0        3.048987    0.380936    0.087706
     10          1           0        2.606478   -1.329390    0.072597
     11          1           0        2.071223   -0.294096    1.410407
     12          1           0        0.327093    1.721686   -1.364517
     13          1           0        1.304859    1.988101    0.075528
     14          1           0       -1.384030    2.253844    0.081294
     15          1           0       -0.597052    1.609059    1.523026
     16          1           0       -2.598912    0.170536    0.523125
     17          1           0       -1.295175   -1.957339    1.090874
     18          1           0       -0.151243   -0.829988    1.878566
     19          1           0        0.402847   -1.975885   -0.815716
     20          1           0       -1.812310   -1.219760   -1.272328
 ---------------------------------------------------------------------

 SCF Done:  E(RB3LYP) =  -345.327370646     A.U. after    1 cycles

 The electronic state is 1-A.
 Alpha  occ. eigenvalues --  -14.30845 -14.30619 -10.23047 -10.20973 -10.19621
 Alpha  occ. eigenvalues --  -10.19614 -10.17553 -10.17321  -0.95567  -0.87366
 Alpha  occ. eigenvalues --   -0.75833  -0.70868  -0.68424  -0.62149  -0.59869
 Alpha  occ. eigenvalues --   -0.52986  -0.50680  -0.46619  -0.44251  -0.44037
 Alpha  occ. eigenvalues --   -0.41573  -0.40466  -0.38822  -0.37919  -0.36532
 Alpha  occ. eigenvalues --   -0.35146  -0.33494  -0.31572  -0.30474  -0.22903
 Alpha  occ. eigenvalues --   -0.19203
 Alpha virt. eigenvalues --    0.07364   0.10348   0.11421   0.12797   0.13095
 Alpha virt. eigenvalues --    0.14020   0.14650   0.16231   0.17037   0.18206
 Alpha virt. eigenvalues --    0.18520   0.19322   0.20608   0.21339   0.21650

 Mulliken charges:
               1
     1  C   -0.328459
     2  N   -0.025724
     3  C   -0.146963
     4  C   -0.203875
     5  C    0.007735
     6  C   -0.237185
     7  C    0.018289
     8  N   -0.332540
     9  H    0.119857
    10  H    0.114634
    11  H    0.090649
    12  H    0.119169
    13  H    0.089488
    14  H    0.097409
    15  H    0.094502
    16  H    0.063710
    17  H    0.088018
    18  H    0.089460
    19  H    0.066797
    20  H    0.215029
 Sum of Mulliken charges =   0.00000

 Dipole moment (field-independent basis, Debye):
    X=             -0.3871    Y=             -0.6037    Z=              1.4543  Tot=              1.6215
 Quadrupole moment (field-independent basis, Debye-Ang):
   XX=            -47.4833   YY=            -46.6683   ZZ=            -53.3331
   XY=              1.5213   XZ=              0.4431   YZ=              1.2968

  Exact polarizability:  80.559   0.152  76.046   1.188   0.375  65.446
 Approx polarizability: 108.994  -0.032 107.304   2.560   1.268 102.366

                      1                      2                      3
                      A                      A                      A
 Frequencies --    123.2081               217.4857               232.5004
 Red. masses --      2.2329                 1.0697                 2.1661
 Frc consts  --      0.0200                 0.0298                 0.0690
 IR Inten    --      0.4131                 0.2262                 1.2590

                      4                      5                      6
                      A                      A                      A
 Frequencies --    356.0255               378.7110               428.5701
 Red. masses --      2.1963                 2.1470                 2.5012
 Frc consts  --      0.1640                 0.1814                 0.2707
 IR Inten    --      2.1653                 5.3311                 5.2885

                      7                      8                      9
                      A                      A                      A
 Frequencies --    487.6896               500.0108               601.2082
 Red. masses --      3.7513                 4.2273                 2.7739
 Frc consts  --      0.5257                 0.6227                 0.5907
 IR Inten    --      0.4736                12.1505                 9.9739

                     10                     11                     12
                      A                      A                      A
 Frequencies --    759.3007               786.9390               830.2141
 Red. masses --      2.3441                 1.8060                 2.5511
 Frc consts  --      0.7963                 0.6590                 1.0360
 IR Inten    --      6.4049                 0.3208                 8.0414

                     13                     14                     15
                      A                      A                      A
 Frequencies --    854.8877               896.0878               911.7902
 Red. masses --      2.7590                 2.3543                 2.3257
 Frc consts  --      1.1880                 1.1138                 1.1392
 IR Inten    --     20.5055                13.9038                70.9768

                     16                     17                     18
                      A                      A                      A
 Frequencies --    937.7581               956.9259               967.7832
 Red. masses --      2.4222                 1.9279                 2.4453
 Frc consts  --      1.2550                 1.0401                 1.3494
 IR Inten    --     11.7614                 7.9616                 9.8891

                     19                     20                     21
                      A                      A                      A
 Frequencies --   1012.7931              1042.4328              1090.1645
 Red. masses --      1.9247                 1.8615                 2.0291
 Frc consts  --      1.1632                 1.1918                 1.4208
 IR Inten    --      8.5857                 5.8127                 9.5700

                     22                     23                     24
                      A                      A                      A
 Frequencies --   1118.2884              1124.1451              1148.1484
 Red. masses --      1.5859                 1.4417                 1.3120
 Frc consts  --      1.1685                 1.0734                 1.0190
 IR Inten    --      2.7952                23.5797                 8.7442

                     25                     26                     27
                      A                      A                      A
 Frequencies --   1157.6412              1177.1582              1198.3542
 Red. masses --      1.3899                 1.8999                 1.4059
 Frc consts  --      1.0974                 1.5512                 1.1896
 IR Inten    --      4.7879                16.6674                15.1560

                     28                     29                     30
                      A                      A                      A
 Frequencies --   1240.4038              1256.1229              1311.9545
 Red. masses --      1.3768                 1.4016                 2.0440
 Frc consts  --      1.2481                 1.3030                 2.0728
 IR Inten    --      8.7749                 3.8603                23.9884

                     31                     32                     33
                      A                      A                      A
 Frequencies --   1323.5723              1335.9706              1345.2668
 Red. masses --      1.4626                 1.5507                 1.5144
 Frc consts  --      1.5097                 1.6307                 1.6147
 IR Inten    --      3.1707                18.1954                 9.8745

                     34                     35                     36
                      A                      A                      A
 Frequencies --   1369.3717              1390.2430              1411.5281
 Red. masses --      1.3258                 1.3813                 1.4063
 Frc consts  --      1.4648                 1.5730                 1.6508
 IR Inten    --     11.2534                10.4673                11.4660

                     37                     38                     39
                      A                      A                      A
 Frequencies --   1462.2931              1479.7879              1488.0377
 Red. masses --      1.1695                 1.0957                 1.0861
 Frc consts  --      1.4734                 1.4136                 1.4169
 IR Inten    --      1.0233                 2.4979                 3.1579

                     40                     41                     42
                      A                      A                      A
 Frequencies --   1492.8328              1505.2475              1510.3512
 Red. masses --      1.0842                 1.0989                 1.0527
 Frc consts  --      1.4236                 1.4670                 1.4148
 IR Inten    --     11.0081                 3.2863                 3.8062

                     43                     44                     45
                      A                      A                      A
 Frequencies --   2926.4334              3032.4038              3036.8997
 Red. masses --      1.0603                 1.0598                 1.0615
 Frc consts  --      5.3502                 5.7418                 5.7683
 IR Inten    --     76.2413                22.4499                36.3440

                     46                     47                     48
                      A                      A                      A
 Frequencies --   3046.3169              3047.4709              3052.3484
 Red. masses --      1.0716                 1.0746                 1.0735
 Frc consts  --      5.8589                 5.8801                 5.8926
 IR Inten    --     26.5755                80.8857                36.5326

                     49                     50                     51
                      A                      A                      A
 Frequencies --   3070.5906              3078.5027              3091.0923
 Red. masses --      1.0974                 1.0921                 1.1041
 Frc consts  --      6.0959                 6.0980                 6.2156
 IR Inten    --     34.3203                42.5045                33.7681

                     52                     53                     54
                      A                      A                      A
 Frequencies --   3095.9292              3098.9437              3482.0747
 Red. masses --      1.1054                 1.1051                 1.0744
 Frc consts  --      6.2424                 6.2528                 7.6756
 IR Inten    --      9.8623                73.6578                 1.0354

 - Thermochemistry -
 -------------------
 Temperature   298.150 Kelvin.  Pressure   1.00000 Atm.
 Atom     1 has atomic number  6 and mass  12.00000

 Molecular mass:   112.10005 amu.
 Principal axes and moments of inertia in atomic units:
                           1         2         3
     Eigenvalues --   552.79726 822.929621001.44863
           X            0.99997  -0.00245   0.00778
           Y            0.00252   0.99995  -0.00938
           Z           -0.00775   0.00940   0.99993
 This molecule is an asymmetric top.
 Rotational symmetry number  1.
 Warning -- assumption of classical behavior for rotation
           may cause significant error
 Rotational temperatures (Kelvin)      0.15668     0.10525     0.08649
 Rotational constants (GHZ):           3.26474     2.19307     1.80213
 Zero-point vibrational energy     474189.0 (Joules/Mol)
                                  113.33389 (Kcal/Mol)
 Warning -- explicit consideration of   9 degrees of freedom as
           vibrations may cause significant error
 Vibrational temperatures:    177.27   312.91   334.52   512.24   544.88
          (Kelvin)            616.62   701.68   719.40   865.00  1092.46
                             1132.23  1194.49  1229.99  1289.27  1311.86
                             1349.22  1376.80  1392.42  1457.18  1499.83
                             1568.50  1608.97  1617.39  1651.93  1665.59
                             1693.67  1724.16  1784.66  1807.28  1887.61
                             1904.33  1922.16  1935.54  1970.22  2000.25
                             2030.87  2103.91  2129.08  2140.95  2147.85
                             2165.72  2173.06  4210.49  4362.95  4369.42
                             4382.97  4384.63  4391.65  4417.89  4429.28
                             4447.39  4454.35  4458.69  5009.93

 Zero-point correction=                           0.180609 (Hartree/Particle)
 Thermal correction to Energy=                    0.187644
 Thermal correction to Enthalpy=                  0.188588
 Thermal correction to Gibbs Free Energy=         0.149790
 Sum of electronic and zero-point Energies=           -345.146762
 Sum of electronic and thermal Energies=              -345.139727
 Sum of electronic and thermal Enthalpies=            -345.138783
 Sum of electronic and thermal Free Energies=         -345.177580

                     E (Thermal)             CV                S
                      KCal/Mol        Cal/Mol-Kelvin    Cal/Mol-Kelvin
 Total                  117.748             28.477             81.657
 Electronic               0.000              0.000              0.000
 Translational            0.889              2.981             40.058
 Rotational               0.889              2.981             27.612
 Vibrational            115.971             22.515             13.986
 Vibration     1          0.610              1.930              3.049
 Vibration     2          0.646              1.814              1.980
 Vibration     3          0.653              1.791              1.860
 Vibration     4          0.732              1.563              1.139
 Vibration     5          0.749              1.516              1.044
 Vibration     6          0.790              1.408              0.863
 Vibration     7          0.844              1.277              0.690
 Vibration     8          0.855              1.250              0.658
 Vibration     9          0.959              1.029              0.448

 Optimization completed.
    -- Stationary point found.
 Normal termination of Gaussian 16 at Thu Aug  4 02:23:13 2022.
