 Gaussian 16, Revision A.03,
 Gaussian 16:  ES64L-G16RevA.03 25-Dec-2016

 -----------------------------
 # opt freq b3lyp/6-31g(2df,p)
 -----------------------------

 -------------------
 Title Card Required
 -------------------
 Symbolic Z-matrix:
 Charge =  0 Multiplicity = 1

 SCF Done:  E(RB3LYP) =  -376.241208116     A.U. after   14 cycles
 SCF Done:  E(RB3LYP) =  -376.244964374     A.U. after   12 cycles
 SCF Done:  E(RB3LYP) =  -376.245180191     A.U. after   11 cycles
 SCF Done:  E(RB3LYP) =  -376.245195652     A.U. after    8 cycles
 SCF Done:  E(RB3LYP) =  -376.245198414     A.U. after    8 cycles
 SCF Done:  E(RB3LYP) =  -376.245198747     A.U. after    7 cycles
 Optimization completed.
    -- Stationary point found.
 Normal termination of Gaussian 16 at Thu Aug  4 04:58:12 2022.

 ----------------------------------------------------------------------
 #N Geom=AllCheck Guess=TCheck SCRF=Check GenChk RB3LYP/6-31G(2df,p) Fr
 eq
 ----------------------------------------------------------------------

 Structure from the checkpoint file:  "Cn1cnnpCpc1dN.chk"
 -------------------
 Title Card Required
 -------------------
 Charge =  0 Multiplicity = 1

                         Standard orientation:
 ---------------------------------------------------------------------
 Center     Atomic      Atomic             Coordinates (Angstroms)
 Number     Number       Type             X           Y           Z
 ---------------------------------------------------------------------
      1          6           0        2.463345    0.237324    0.001201
      2          7           0        1.088459   -0.205413   -0.000976
      3          6           0        0.591287   -1.482047    0.000211
      4          7           0       -0.703175   -1.520317   -0.000669
      5          7           0       -1.076716   -0.187251   -0.001036
      6          6           0       -2.462823    0.198598    0.001402
      7          6           0        0.004851    0.673350   -0.000944
      8          7           0        0.121833    1.950405   -0.000555
      9          1           0        3.119062   -0.635421   -0.000129
     10          1           0        2.665447    0.846431    0.887057
     11          1           0        2.666799    0.850113   -0.881761
     12          1           0        1.222975   -2.356515    0.000634
     13          1           0       -3.058854   -0.713538    0.002039
     14          1           0       -2.712198    0.789182   -0.888483
     15          1           0       -2.709343    0.788598    0.892498
     16          1           0       -0.786653    2.405839   -0.000420
 ---------------------------------------------------------------------

 SCF Done:  E(RB3LYP) =  -376.245198747     A.U. after    1 cycles

 The electronic state is 1-A.
 Alpha  occ. eigenvalues --  -14.38481 -14.37729 -14.34889 -14.26933 -10.26878
 Alpha  occ. eigenvalues --  -10.24604 -10.22749 -10.22468  -1.06677  -0.93770
 Alpha  occ. eigenvalues --   -0.88587  -0.81294  -0.73645  -0.70155  -0.62314
 Alpha  occ. eigenvalues --   -0.58755  -0.53006  -0.48995  -0.48158  -0.45080
 Alpha  occ. eigenvalues --   -0.44810  -0.44386  -0.40897  -0.39912  -0.39603
 Alpha  occ. eigenvalues --   -0.31736  -0.31460  -0.28512  -0.25349  -0.18759
 Alpha virt. eigenvalues --    0.02821   0.07175   0.08762   0.09888   0.12037
 Alpha virt. eigenvalues --    0.13639   0.14495   0.15618   0.16428   0.17304
 Alpha virt. eigenvalues --    0.17877   0.18713   0.22092   0.25281   0.27448

 Mulliken charges:
               1
     1  C   -0.323335
     2  N   -0.081143
     3  C    0.036519
     4  N   -0.255480
     5  N   -0.066703
     6  C   -0.336909
     7  C    0.440969
     8  N   -0.635974
     9  H    0.130243
    10  H    0.153574
    11  H    0.153758
    12  H    0.145743
    13  H    0.158826
    14  H    0.135904
    15  H    0.135885
    16  H    0.208121
 Sum of Mulliken charges =  -0.00000

 Dipole moment (field-independent basis, Debye):
    X=              0.4065    Y=             -1.1600    Z=              0.0050  Tot=              1.2291
 Quadrupole moment (field-independent basis, Debye-Ang):
   XX=            -36.9489   YY=            -53.0138   ZZ=            -48.0237
   XY=             -7.2258   XZ=             -0.0010   YZ=             -0.0022

  Exact polarizability:  85.135  -2.728  77.716   0.007  -0.002  41.828
 Approx polarizability: 120.345   1.114 125.945   0.020   0.001  64.127

                      1                      2                      3
                      A                      A                      A
 Frequencies --     40.5337                44.2861                98.3844
 Red. masses --      1.0558                 1.1036                 2.4188
 Frc consts  --      0.0010                 0.0013                 0.0138
 IR Inten    --      0.3445                 0.0185                 6.5166

                      4                      5                      6
                      A                      A                      A
 Frequencies --    186.3668               231.1469               267.8703
 Red. masses --      3.9627                 5.8861                 2.6661
 Frc consts  --      0.0811                 0.1853                 0.1127
 IR Inten    --      1.0789                 0.1320                 3.2757

                      7                      8                      9
                      A                      A                      A
 Frequencies --    289.3695               533.1866               595.5216
 Red. masses --      3.2234                 3.3181                 4.7400
 Frc consts  --      0.1590                 0.5558                 0.9904
 IR Inten    --      5.8322                14.3712                10.7869

                     10                     11                     12
                      A                      A                      A
 Frequencies --    616.6561               679.9095               725.3166
 Red. masses --      5.3750                 1.1406                 8.7026
 Frc consts  --      1.2043                 0.3107                 2.6974
 IR Inten    --      3.2886                63.2575                14.1029

                     13                     14                     15
                      A                      A                      A
 Frequencies --    784.2431               810.0558               827.2518
 Red. masses --      5.4899                 5.5938                 1.3023
 Frc consts  --      1.9894                 2.1626                 0.5251
 IR Inten    --     17.7386                 9.4421                10.1862

                     16                     17                     18
                      A                      A                      A
 Frequencies --    972.7461              1016.6337              1076.6398
 Red. masses --      2.5045                 2.1466                 1.6306
 Frc consts  --      1.3963                 1.3072                 1.1136
 IR Inten    --     48.6801                29.5653                35.6109

                     19                     20                     21
                      A                      A                      A
 Frequencies --   1154.6776              1161.0147              1209.0321
 Red. masses --      1.2824                 1.3005                 2.0099
 Frc consts  --      1.0074                 1.0329                 1.7310
 IR Inten    --      0.3399                 0.1073               100.3701

                     22                     23                     24
                      A                      A                      A
 Frequencies --   1241.8570              1279.9647              1332.0233
 Red. masses --      1.5690                 2.4026                 3.3466
 Frc consts  --      1.4257                 2.3191                 3.4985
 IR Inten    --     10.2463                 0.9646                11.9907

                     25                     26                     27
                      A                      A                      A
 Frequencies --   1408.6584              1435.0054              1451.5717
 Red. masses --      6.1588                 1.7578                 1.3049
 Frc consts  --      7.2004                 2.1327                 1.6200
 IR Inten    --      5.1968                49.2353                21.8602

                     28                     29                     30
                      A                      A                      A
 Frequencies --   1468.7877              1473.4060              1479.3888
 Red. masses --      1.0386                 1.8963                 1.0401
 Frc consts  --      1.3202                 2.4255                 1.3412
 IR Inten    --      7.5618                39.2677                 6.6565

                     31                     32                     33
                      A                      A                      A
 Frequencies --   1516.1137              1522.0972              1626.2734
 Red. masses --      1.0719                 1.1310                 6.0820
 Frc consts  --      1.4516                 1.5439                 9.4772
 IR Inten    --     11.0327                10.4845                85.2823

                     34                     35                     36
                      A                      A                      A
 Frequencies --   1727.5856              3017.4884              3044.8020
 Red. masses --      8.3060                 1.0377                 1.0325
 Frc consts  --     14.6056                 5.5672                 5.6395
 IR Inten    --    381.2873                51.1120                36.6147

                     37                     38                     39
                      A                      A                      A
 Frequencies --   3066.8810              3106.7878              3140.0590
 Red. masses --      1.1040                 1.1039                 1.1036
 Frc consts  --      6.1181                 6.2778                 6.4114
 IR Inten    --     26.3930                11.9839                 8.9118

                     40                     41                     42
                      A                      A                      A
 Frequencies --   3158.9269              3266.2431              3532.3722
 Red. masses --      1.0967                 1.0977                 1.0747
 Frc consts  --      6.4481                 6.8996                 7.9005
 IR Inten    --      1.6101                 0.8539                 3.4617

 - Thermochemistry -
 -------------------
 Temperature   298.150 Kelvin.  Pressure   1.00000 Atm.
 Atom     1 has atomic number  6 and mass  12.00000

 Molecular mass:   112.07490 amu.
 Principal axes and moments of inertia in atomic units:
                           1         2         3
     Eigenvalues --   491.68556 869.935281338.94406
           X            0.99918  -0.04054  -0.00000
           Y            0.04054   0.99918   0.00000
           Z            0.00000  -0.00000   1.00000
 This molecule is an asymmetric top.
 Rotational symmetry number  1.
 Warning -- assumption of classical behavior for rotation
           may cause significant error
 Rotational temperatures (Kelvin)      0.17616     0.09956     0.06469
 Rotational constants (GHZ):           3.67052     2.07457     1.34788
 Zero-point vibrational energy     344627.0 (Joules/Mol)
                                   82.36783 (Kcal/Mol)
 Warning -- explicit consideration of  10 degrees of freedom as
           vibrations may cause significant error
 Vibrational temperatures:     58.32    63.72   141.55   268.14   332.57
          (Kelvin)            385.41   416.34   767.14   856.82   887.23
                              978.24  1043.57  1128.35  1165.49  1190.23
                             1399.56  1462.71  1549.04  1661.32  1670.44
                             1739.53  1786.76  1841.58  1916.48  2026.75
                             2064.65  2088.49  2113.26  2119.90  2128.51
                             2181.35  2189.96  2339.84  2485.61  4341.49
                             4380.79  4412.56  4469.97  4517.84  4544.99
                             4699.40  5082.30

 Zero-point correction=                           0.131261 (Hartree/Particle)
 Thermal correction to Energy=                    0.139737
 Thermal correction to Enthalpy=                  0.140681
 Thermal correction to Gibbs Free Energy=         0.096886
 Sum of electronic and zero-point Energies=           -376.113937
 Sum of electronic and thermal Energies=              -376.105462
 Sum of electronic and thermal Enthalpies=            -376.104517
 Sum of electronic and thermal Free Energies=         -376.148313

                     E (Thermal)             CV                S
                      KCal/Mol        Cal/Mol-Kelvin    Cal/Mol-Kelvin
 Total                   87.686             28.691             92.176
 Electronic               0.000              0.000              0.000
 Translational            0.889              2.981             40.058
 Rotational               0.889              2.981             27.840
 Vibrational             85.909             22.730             24.278
 Vibration     1          0.594              1.981              5.233
 Vibration     2          0.595              1.980              5.058
 Vibration     3          0.604              1.950              3.486
 Vibration     4          0.632              1.859              2.264
 Vibration     5          0.653              1.793              1.870
 Vibration     6          0.673              1.732              1.610
 Vibration     7          0.686              1.693              1.478
 Vibration     8          0.888              1.177              0.580
 Vibration     9          0.953              1.041              0.457
 Vibration    10          0.976              0.997              0.422

                           ! Non-Optimized Parameters !
 Normal termination of Gaussian 16 at Thu Aug  4 05:16:48 2022.
