 Gaussian 16, Revision A.03,
 Gaussian 16:  ES64L-G16RevA.03 25-Dec-2016

 -----------------------------
 # opt freq b3lyp/6-31g(2df,p)
 -----------------------------

 -------------------
 Title Card Required
 -------------------
 Symbolic Z-matrix:
 Charge =  0 Multiplicity = 1

 SCF Done:  E(RB3LYP) =  -319.482092918     A.U. after   14 cycles
 SCF Done:  E(RB3LYP) =  -319.511930561     A.U. after   14 cycles
 SCF Done:  E(RB3LYP) =  -319.524300131     A.U. after   14 cycles
 SCF Done:  E(RB3LYP) =  -319.530577947     A.U. after   13 cycles
 SCF Done:  E(RB3LYP) =  -319.536385996     A.U. after   14 cycles
 SCF Done:  E(RB3LYP) =  -319.538353619     A.U. after   12 cycles
 SCF Done:  E(RB3LYP) =  -319.539257895     A.U. after   12 cycles
 SCF Done:  E(RB3LYP) =  -319.539474922     A.U. after   11 cycles
 SCF Done:  E(RB3LYP) =  -319.539615091     A.U. after   11 cycles
 SCF Done:  E(RB3LYP) =  -319.539659037     A.U. after   11 cycles
 SCF Done:  E(RB3LYP) =  -319.539670931     A.U. after    9 cycles
 SCF Done:  E(RB3LYP) =  -319.539673919     A.U. after    8 cycles
 SCF Done:  E(RB3LYP) =  -319.539674546     A.U. after    7 cycles
 SCF Done:  E(RB3LYP) =  -319.539675038     A.U. after    7 cycles
 SCF Done:  E(RB3LYP) =  -319.539675140     A.U. after    7 cycles
 Optimization completed.
    -- Stationary point found.
 Normal termination of Gaussian 16 at Thu Aug  4 03:16:15 2022.

 ----------------------------------------------------------------------
 #N Geom=AllCheck Guess=TCheck SCRF=Check GenChk RB3LYP/6-31G(2df,p) Fr
 eq
 ----------------------------------------------------------------------

 Structure from the checkpoint file:  "CNdC1NC12CdN2.chk"
 -------------------
 Title Card Required
 -------------------
 Charge =  0 Multiplicity = 1

                         Standard orientation:
 ---------------------------------------------------------------------
 Center     Atomic      Atomic             Coordinates (Angstroms)
 Number     Number       Type             X           Y           Z
 ---------------------------------------------------------------------
      1          6           0        2.751468   -0.061133    0.020273
      2          7           0        1.483344   -0.780248    0.010444
      3          6           0        0.430147   -0.110501   -0.029960
      4          7           0       -0.109874    1.218614   -0.109549
      5          6           0       -0.981679    0.040306    0.025987
      6          6           0       -2.245062   -0.312818    0.562159
      7          7           0       -2.245067   -0.289889   -0.705508
      8          1           0        3.387853   -0.458015   -0.777076
      9          1           0        3.267114   -0.254770    0.967647
     10          1           0        2.650385    1.023882   -0.115171
     11          1           0        0.004497    1.812548    0.711477
     12          1           0       -2.937912   -0.498117    1.374667
 ---------------------------------------------------------------------

 SCF Done:  E(RB3LYP) =  -319.539675140     A.U. after    1 cycles

 The electronic state is 1-A.
 Alpha  occ. eigenvalues --  -14.37377 -14.35112 -14.32501 -10.27988 -10.26765
 Alpha  occ. eigenvalues --  -10.26161 -10.20734  -1.03400  -0.97509  -0.90091
 Alpha  occ. eigenvalues --   -0.70211  -0.64932  -0.61357  -0.56588  -0.50051
 Alpha  occ. eigenvalues --   -0.46025  -0.45002  -0.43740  -0.41724  -0.39710
 Alpha  occ. eigenvalues --   -0.36369  -0.31069  -0.28030  -0.26929  -0.24323
 Alpha virt. eigenvalues --   -0.04057  -0.00285   0.08561   0.10309   0.12864
 Alpha virt. eigenvalues --    0.14876   0.15166   0.17068   0.17226   0.18711
 Alpha virt. eigenvalues --    0.19754   0.23541   0.27658   0.31479   0.36732

 Mulliken charges:
               1
     1  C   -0.341817
     2  N   -0.332236
     3  C    0.310215
     4  N   -0.418824
     5  C    0.319726
     6  C   -0.160682
     7  N   -0.181635
     8  H    0.137820
     9  H    0.131341
    10  H    0.116321
    11  H    0.246165
    12  H    0.173607
 Sum of Mulliken charges =  -0.00000

 Dipole moment (field-independent basis, Debye):
    X=             -0.2631    Y=              1.2758    Z=              3.2410  Tot=              3.4930
 Quadrupole moment (field-independent basis, Debye-Ang):
   XX=            -35.2116   YY=            -41.7022   ZZ=            -39.6028
   XY=              2.3783   XZ=             -6.1451   YZ=              1.6246

  Exact polarizability:  91.081   0.267  47.572  -2.514   0.349  43.972
 Approx polarizability: 121.879  -4.099  81.454   0.206  -0.071  75.020

                      1                      2                      3
                      A                      A                      A
 Frequencies --    128.0096               134.5822               181.1678
 Red. masses --      1.7645                 1.6240                 3.4772
 Frc consts  --      0.0170                 0.0173                 0.0672
 IR Inten    --      2.7957                 2.3208                 3.8195

                      4                      5                      6
                      A                      A                      A
 Frequencies --    313.0912               319.1869               413.4015
 Red. masses --      3.8580                 4.7848                 4.1252
 Frc consts  --      0.2228                 0.2872                 0.4154
 IR Inten    --      9.4828                 5.0388                 2.2989

                      7                      8                      9
                      A                      A                      A
 Frequencies --    545.5014               564.2088               695.9867
 Red. masses --      4.4981                 3.3813                 5.0842
 Frc consts  --      0.7886                 0.6342                 1.4510
 IR Inten    --     14.5065                 5.9627                21.6335

                     10                     11                     12
                      A                      A                      A
 Frequencies --    745.9309               793.4556               820.7760
 Red. masses --      5.5800                 2.3847                 2.4084
 Frc consts  --      1.8293                 0.8846                 0.9559
 IR Inten    --     43.6194               128.3177                16.6804

                     13                     14                     15
                      A                      A                      A
 Frequencies --    837.4614              1006.9203              1102.2325
 Red. masses --      1.6791                 3.2638                 1.4102
 Frc consts  --      0.6938                 1.9497                 1.0095
 IR Inten    --     89.7772                14.7384                28.6459

                     16                     17                     18
                      A                      A                      A
 Frequencies --   1120.3899              1127.3629              1147.5957
 Red. masses --      1.7580                 1.4144                 2.3163
 Frc consts  --      1.3002                 1.0591                 1.7973
 IR Inten    --     28.1530                 4.9791                23.8393

                     19                     20                     21
                      A                      A                      A
 Frequencies --   1180.1324              1434.3292              1464.2170
 Red. masses --      1.7428                 1.2967                 3.7264
 Frc consts  --      1.4301                 1.5718                 4.7071
 IR Inten    --      3.5829                32.1635                11.9636

                     22                     23                     24
                      A                      A                      A
 Frequencies --   1486.7626              1499.2905              1703.2409
 Red. masses --      1.0674                 1.0965                 8.0525
 Frc consts  --      1.3902                 1.4522                13.7637
 IR Inten    --      5.1961                17.5612                74.2257

                     25                     26                     27
                      A                      A                      A
 Frequencies --   1932.6151              3005.2315              3077.9872
 Red. masses --     11.2816                 1.0369                 1.0995
 Frc consts  --     24.8264                 5.5175                 6.1374
 IR Inten    --    163.9993                48.0497                26.3651

                     28                     29                     30
                      A                      A                      A
 Frequencies --   3092.3314              3199.7953              3465.4306
 Red. masses --      1.1001                 1.1130                 1.0757
 Frc consts  --      6.1978                 6.7143                 7.6113
 IR Inten    --     18.3148                 3.0022                 4.5868

 - Thermochemistry -
 -------------------
 Temperature   298.150 Kelvin.  Pressure   1.00000 Atm.
 Atom     1 has atomic number  6 and mass  12.00000

 Molecular mass:    95.04835 amu.
 Principal axes and moments of inertia in atomic units:
                           1         2         3
     Eigenvalues --   184.183511140.034261218.33699
           X            0.99990   0.00746  -0.01240
           Y           -0.00711   0.99960   0.02755
           Z            0.01260  -0.02746   0.99954
 This molecule is an asymmetric top.
 Rotational symmetry number  1.
 Rotational temperatures (Kelvin)      0.47026     0.07597     0.07109
 Rotational constants (GHZ):           9.79860     1.58306     1.48132
 Zero-point vibrational energy     230512.2 (Joules/Mol)
                                   55.09373 (Kcal/Mol)
 Warning -- explicit consideration of   8 degrees of freedom as
           vibrations may cause significant error
 Vibrational temperatures:    184.18   193.63   260.66   450.47   459.24
          (Kelvin)            594.79   784.85   811.77  1001.37  1073.23
                             1141.61  1180.91  1204.92  1448.73  1585.87
                             1611.99  1622.02  1651.13  1697.95  2063.68
                             2106.68  2139.12  2157.14  2450.58  2780.60
                             4323.86  4428.54  4449.18  4603.79  4985.98

 Zero-point correction=                           0.087797 (Hartree/Particle)
 Thermal correction to Energy=                    0.094645
 Thermal correction to Enthalpy=                  0.095590
 Thermal correction to Gibbs Free Energy=         0.057107
 Sum of electronic and zero-point Energies=           -319.451878
 Sum of electronic and thermal Energies=              -319.445030
 Sum of electronic and thermal Enthalpies=            -319.444086
 Sum of electronic and thermal Free Energies=         -319.482568

                     E (Thermal)             CV                S
                      KCal/Mol        Cal/Mol-Kelvin    Cal/Mol-Kelvin
 Total                   59.391             24.119             80.993
 Electronic               0.000              0.000              0.000
 Translational            0.889              2.981             39.567
 Rotational               0.889              2.981             27.039
 Vibrational             57.613             18.158             14.387
 Vibration     1          0.611              1.925              2.976
 Vibration     2          0.613              1.919              2.879
 Vibration     3          0.630              1.865              2.316
 Vibration     4          0.701              1.649              1.346
 Vibration     5          0.705              1.637              1.314
 Vibration     6          0.777              1.441              0.915
 Vibration     7          0.901              1.150              0.554
 Vibration     8          0.920              1.109              0.515

 Optimization completed.
    -- Stationary point found.
 Normal termination of Gaussian 16 at Thu Aug  4 03:27:20 2022.
