 Gaussian 16, Revision A.03,
 Gaussian 16:  ES64L-G16RevA.03 25-Dec-2016

 -----------------------------
 # opt freq b3lyp/6-31g(2df,p)
 -----------------------------

 -------------------
 Title Card Required
 -------------------
 Symbolic Z-matrix:
 Charge =  0 Multiplicity = 1

 SCF Done:  E(RB3LYP) =  -302.595051231     A.U. after   14 cycles
 SCF Done:  E(RB3LYP) =  -302.603042064     A.U. after   12 cycles
 SCF Done:  E(RB3LYP) =  -302.604955316     A.U. after   12 cycles
 SCF Done:  E(RB3LYP) =  -302.606929187     A.U. after   14 cycles
 SCF Done:  E(RB3LYP) =  -302.607711847     A.U. after   12 cycles
 SCF Done:  E(RB3LYP) =  -302.609292942     A.U. after   14 cycles
 SCF Done:  E(RB3LYP) =  -302.610165884     A.U. after   12 cycles
 SCF Done:  E(RB3LYP) =  -302.610868219     A.U. after   12 cycles
 SCF Done:  E(RB3LYP) =  -302.611320516     A.U. after   12 cycles
 SCF Done:  E(RB3LYP) =  -302.611968870     A.U. after   12 cycles
 SCF Done:  E(RB3LYP) =  -302.615540453     A.U. after   12 cycles
 SCF Done:  E(RB3LYP) =  -302.615661140     A.U. after   11 cycles
 SCF Done:  E(RB3LYP) =  -302.615709686     A.U. after   11 cycles
 SCF Done:  E(RB3LYP) =  -302.615723517     A.U. after   11 cycles
 SCF Done:  E(RB3LYP) =  -302.615734150     A.U. after    9 cycles
 SCF Done:  E(RB3LYP) =  -302.615742841     A.U. after   10 cycles
 SCF Done:  E(RB3LYP) =  -302.615744326     A.U. after    9 cycles
 SCF Done:  E(RB3LYP) =  -302.615745745     A.U. after    8 cycles
 SCF Done:  E(RB3LYP) =  -302.615745960     A.U. after    7 cycles
 Optimization completed.
    -- Stationary point found.
 Normal termination of Gaussian 16 at Thu Aug  4 11:33:52 2022.

 ----------------------------------------------------------------------
 #N Geom=AllCheck Guess=TCheck SCRF=Check GenChk RB3LYP/6-31G(2df,p) Fr
 eq
 ----------------------------------------------------------------------

 Structure from the checkpoint file:  "CNdC1OC1N.chk"
 -------------------
 Title Card Required
 -------------------
 Charge =  0 Multiplicity = 1

                         Standard orientation:
 ---------------------------------------------------------------------
 Center     Atomic      Atomic             Coordinates (Angstroms)
 Number     Number       Type             X           Y           Z
 ---------------------------------------------------------------------
      1          6           0        2.416167   -0.096920    0.212455
      2          7           0        1.184835   -0.678482   -0.314807
      3          6           0        0.143934    0.012781   -0.229504
      4          8           0       -0.292457    1.187880    0.226209
      5          6           0       -1.273161    0.076517   -0.462949
      6          7           0       -2.196653   -0.592546    0.294145
      7          1           0        2.810653   -0.743766    1.004043
      8          1           0        2.294508    0.916222    0.616144
      9          1           0        3.168934   -0.070127   -0.582917
     10          1           0       -1.645072    0.505673   -1.386578
     11          1           0       -1.844505   -1.037936    1.129052
     12          1           0       -3.083776   -0.130184    0.435206
 ---------------------------------------------------------------------

 SCF Done:  E(RB3LYP) =  -302.615745960     A.U. after    1 cycles

 The electronic state is 1-A.
 Alpha  occ. eigenvalues --  -19.15429 -14.36172 -14.30323 -10.28242 -10.26363
 Alpha  occ. eigenvalues --  -10.19426  -1.07063  -0.92765  -0.89360  -0.69856
 Alpha  occ. eigenvalues --   -0.66702  -0.57505  -0.53252  -0.48850  -0.47006
 Alpha  occ. eigenvalues --   -0.44261  -0.41825  -0.39928  -0.35730  -0.34975
 Alpha  occ. eigenvalues --   -0.27315  -0.24905  -0.24537
 Alpha virt. eigenvalues --    0.02901   0.04624   0.08471   0.11308   0.12929
 Alpha virt. eigenvalues --    0.14121   0.17809   0.18358   0.19638   0.23417
 Alpha virt. eigenvalues --    0.28610   0.30340   0.36940   0.41558   0.47934

 Mulliken charges:
               1
     1  C   -0.337943
     2  N   -0.361649
     3  C    0.425779
     4  O   -0.316283
     5  C    0.025930
     6  N   -0.482171
     7  H    0.124208
     8  H    0.120484
     9  H    0.126648
    10  H    0.148060
    11  H    0.267010
    12  H    0.259926
 Sum of Mulliken charges =   0.00000

 Dipole moment (field-independent basis, Debye):
    X=             -2.4869    Y=              0.1456    Z=              0.8046  Tot=              2.6179
 Quadrupole moment (field-independent basis, Debye-Ang):
   XX=            -26.2682   YY=            -39.8416   ZZ=            -33.1771
   XY=              0.7290   XZ=             -0.3998   YZ=             -3.5637

  Exact polarizability:  74.325  -1.318  40.654   1.250  -1.406  37.060
 Approx polarizability:  95.938  -4.192  73.552   1.370   2.678  54.887

                      1                      2                      3
                      A                      A                      A
 Frequencies --    104.6700               141.5434               184.8782
 Red. masses --      1.0535                 3.3717                 3.3173
 Frc consts  --      0.0068                 0.0398                 0.0668
 IR Inten    --      1.0417                12.7774                52.5146

                      4                      5                      6
                      A                      A                      A
 Frequencies --    252.5192               341.8351               443.0135
 Red. masses --      3.6975                 2.6506                 1.7421
 Frc consts  --      0.1389                 0.1825                 0.2014
 IR Inten    --    104.0611               133.7012                22.0523

                      7                      8                      9
                      A                      A                      A
 Frequencies --    490.9112               591.7349               625.6638
 Red. masses --      2.4291                 4.1361                 1.6964
 Frc consts  --      0.3449                 0.8533                 0.3913
 IR Inten    --      3.9226                44.8214               182.6173

                     10                     11                     12
                      A                      A                      A
 Frequencies --    710.3106               873.9870              1008.4391
 Red. masses --      3.9980                 3.8785                 1.2317
 Frc consts  --      1.1885                 1.7455                 0.7380
 IR Inten    --      5.6968                 3.6262                24.9152

                     13                     14                     15
                      A                      A                      A
 Frequencies --   1057.0954              1129.9696              1160.8863
 Red. masses --      3.1244                 1.3398                 2.1195
 Frc consts  --      2.0570                 1.0079                 1.6829
 IR Inten    --      2.4735                 0.3838                52.2301

                     16                     17                     18
                      A                      A                      A
 Frequencies --   1179.5225              1235.2211              1311.1041
 Red. masses --      2.6667                 1.7324                 1.9278
 Frc consts  --      2.1859                 1.5573                 1.9525
 IR Inten    --     55.7373                25.5114                55.6972

                     19                     20                     21
                      A                      A                      A
 Frequencies --   1432.1248              1462.0965              1492.4006
 Red. masses --      1.3279                 1.7093                 1.0446
 Frc consts  --      1.6046                 2.1529                 1.3708
 IR Inten    --     76.1793                51.4087                 3.6202

                     22                     23                     24
                      A                      A                      A
 Frequencies --   1499.7291              1660.4848              1920.8246
 Red. masses --      1.0616                 1.1420                11.2535
 Frc consts  --      1.4068                 1.8551                24.4632
 IR Inten    --     13.1922                58.3956               281.5616

                     25                     26                     27
                      A                      A                      A
 Frequencies --   3009.6529              3078.5545              3082.3500
 Red. masses --      1.0339                 1.1017                 1.1014
 Frc consts  --      5.5179                 6.1520                 6.1656
 IR Inten    --     50.9400                29.7290                25.7572

                     28                     29                     30
                      A                      A                      A
 Frequencies --   3192.4484              3560.4529              3664.6150
 Red. masses --      1.0896                 1.0465                 1.0991
 Frc consts  --      6.5427                 7.8160                 8.6964
 IR Inten    --      5.6891                19.2012                21.4826

 - Thermochemistry -
 -------------------
 Temperature   298.150 Kelvin.  Pressure   1.00000 Atm.
 Atom     1 has atomic number  6 and mass  12.00000

 Molecular mass:    86.04801 amu.
 Principal axes and moments of inertia in atomic units:
                           1         2         3
     Eigenvalues --   175.57920 819.85849 908.85639
           X            0.99996   0.00748   0.00562
           Y           -0.00699   0.99655  -0.08268
           Z           -0.00622   0.08264   0.99656
 This molecule is an asymmetric top.
 Rotational symmetry number  1.
 Rotational temperatures (Kelvin)      0.49330     0.10564     0.09530
 Rotational constants (GHZ):          10.27879     2.20128     1.98573
 Zero-point vibrational energy     250611.9 (Joules/Mol)
                                   59.89768 (Kcal/Mol)
 Warning -- explicit consideration of   8 degrees of freedom as
           vibrations may cause significant error
 Vibrational temperatures:    150.60   203.65   266.00   363.32   491.82
          (Kelvin)            637.40   706.31   851.37   900.19  1021.98
                             1257.47  1450.92  1520.92  1625.77  1670.26
                             1697.07  1777.21  1886.39  2060.51  2103.63
                             2147.23  2157.78  2389.07  2763.64  4330.22
                             4429.35  4434.81  4593.22  5122.70  5272.56

 Zero-point correction=                           0.095453 (Hartree/Particle)
 Thermal correction to Energy=                    0.102263
 Thermal correction to Enthalpy=                  0.103208
 Thermal correction to Gibbs Free Energy=         0.065082
 Sum of electronic and zero-point Energies=           -302.520293
 Sum of electronic and thermal Energies=              -302.513483
 Sum of electronic and thermal Enthalpies=            -302.512538
 Sum of electronic and thermal Free Energies=         -302.550664

                     E (Thermal)             CV                S
                      KCal/Mol        Cal/Mol-Kelvin    Cal/Mol-Kelvin
 Total                   64.171             23.159             80.242
 Electronic               0.000              0.000              0.000
 Translational            0.889              2.981             39.270
 Rotational               0.889              2.981             26.373
 Vibrational             62.394             17.197             14.599
 Vibration     1          0.605              1.945              3.365
 Vibration     2          0.615              1.912              2.783
 Vibration     3          0.631              1.860              2.279
 Vibration     4          0.664              1.759              1.713
 Vibration     5          0.721              1.592              1.204
 Vibration     6          0.803              1.376              0.817
 Vibration     7          0.847              1.270              0.681
 Vibration     8          0.949              1.049              0.464

 Optimization completed.
    -- Stationary point found.
 Normal termination of Gaussian 16 at Thu Aug  4 11:43:37 2022.
