 Gaussian 16, Revision A.03,
 Gaussian 16:  ES64L-G16RevA.03 25-Dec-2016

 -----------------------------
 # opt freq b3lyp/6-31g(2df,p)
 -----------------------------

 -------------------
 Title Card Required
 -------------------
 Symbolic Z-matrix:
 Charge =  0 Multiplicity = 1

 SCF Done:  E(RB3LYP) =  -363.960452018     A.U. after   14 cycles
 SCF Done:  E(RB3LYP) =  -363.987897109     A.U. after   12 cycles
 SCF Done:  E(RB3LYP) =  -363.990321280     A.U. after   12 cycles
 SCF Done:  E(RB3LYP) =  -363.991603135     A.U. after   11 cycles
 SCF Done:  E(RB3LYP) =  -363.992093154     A.U. after   11 cycles
 SCF Done:  E(RB3LYP) =  -363.992420048     A.U. after   11 cycles
 SCF Done:  E(RB3LYP) =  -363.992557293     A.U. after   10 cycles
 SCF Done:  E(RB3LYP) =  -363.992639250     A.U. after   10 cycles
 SCF Done:  E(RB3LYP) =  -363.992647666     A.U. after    8 cycles
 SCF Done:  E(RB3LYP) =  -363.992650123     A.U. after    9 cycles
 SCF Done:  E(RB3LYP) =  -363.992651622     A.U. after    8 cycles
 SCF Done:  E(RB3LYP) =  -363.992652364     A.U. after    7 cycles
 SCF Done:  E(RB3LYP) =  -363.992652430     A.U. after    7 cycles
 SCF Done:  E(RB3LYP) =  -363.992652471     A.U. after    7 cycles
 Optimization completed.
    -- Stationary point found.
 Normal termination of Gaussian 16 at Thu Aug  4 08:49:22 2022.

 ----------------------------------------------------------------------
 #N Geom=AllCheck Guess=TCheck SCRF=Check GenChk RB3LYP/6-31G(2df,p) Fr
 eq
 ----------------------------------------------------------------------

 Structure from the checkpoint file:  "COC1pCCtNpCC1.chk"
 -------------------
 Title Card Required
 -------------------
 Charge =  0 Multiplicity = 1

                         Standard orientation:
 ---------------------------------------------------------------------
 Center     Atomic      Atomic             Coordinates (Angstroms)
 Number     Number       Type             X           Y           Z
 ---------------------------------------------------------------------
      1          6           0       -2.381773   -0.886015    0.395824
      2          8           0       -1.657211   -0.137493   -0.564987
      3          6           0       -0.355808    0.208725   -0.192375
      4          6           0        0.612375   -0.972743   -0.319696
      5          6           0        1.996902   -0.647560    0.003728
      6          7           0        3.088941   -0.373764    0.265013
      7          6           0        0.063326    1.586476   -0.597212
      8          6           0       -0.177061    1.265388    0.866569
      9          1           0       -3.399231   -0.985125    0.011680
     10          1           0       -2.411413   -0.376837    1.368138
     11          1           0       -1.967454   -1.893612    0.542490
     12          1           0        0.567021   -1.351782   -1.347423
     13          1           0        0.295797   -1.792304    0.336233
     14          1           0       -0.685794    2.178257   -1.109377
     15          1           0        1.084611    1.744025   -0.924908
     16          1           0       -1.078142    1.660623    1.321328
     17          1           0        0.681940    1.207418    1.525614
 ---------------------------------------------------------------------

 SCF Done:  E(RB3LYP) =  -363.992652471     A.U. after    1 cycles

 The electronic state is 1-A.
 Alpha  occ. eigenvalues --  -19.16054 -14.33064 -10.26206 -10.23820 -10.23786
 Alpha  occ. eigenvalues --  -10.22453 -10.19644 -10.19411  -1.05571  -0.90621
 Alpha  occ. eigenvalues --   -0.86634  -0.77548  -0.70705  -0.61632  -0.58521
 Alpha  occ. eigenvalues --   -0.52579  -0.52004  -0.48080  -0.47900  -0.45296
 Alpha  occ. eigenvalues --   -0.44010  -0.42717  -0.37608  -0.36314  -0.35723
 Alpha  occ. eigenvalues --   -0.33613  -0.32896  -0.32354  -0.28517  -0.26941
 Alpha virt. eigenvalues --    0.03054   0.03648   0.07976   0.09315   0.10735
 Alpha virt. eigenvalues --    0.11306   0.12587   0.13938   0.14737   0.16003
 Alpha virt. eigenvalues --    0.17736   0.18308   0.20157   0.22183   0.22478

 Mulliken charges:
               1
     1  C   -0.255157
     2  O   -0.275809
     3  C    0.430179
     4  C   -0.407270
     5  C    0.263581
     6  N   -0.316458
     7  C   -0.313691
     8  C   -0.327557
     9  H    0.135294
    10  H    0.115677
    11  H    0.109583
    12  H    0.162169
    13  H    0.151556
    14  H    0.129470
    15  H    0.136747
    16  H    0.123084
    17  H    0.138602
 Sum of Mulliken charges =  -0.00000

 Dipole moment (field-independent basis, Debye):
    X=             -3.4380    Y=             -0.8319    Z=              0.2616  Tot=              3.5469
 Quadrupole moment (field-independent basis, Debye-Ang):
   XX=            -59.6422   YY=            -44.7589   ZZ=            -47.3087
   XY=              1.4277   XZ=             -4.1892   YZ=              0.0047

  Exact polarizability:  83.611   3.934  64.639   0.578   0.028  57.216
 Approx polarizability: 119.656   9.168  90.972   5.805   0.876  89.083

                      1                      2                      3
                      A                      A                      A
 Frequencies --     66.7230               102.3486               139.8113
 Red. masses --      3.5395                 1.7403                 3.9546
 Frc consts  --      0.0093                 0.0107                 0.0455
 IR Inten    --      6.6577                 0.4304                 6.3423

                      4                      5                      6
                      A                      A                      A
 Frequencies --    193.1665               257.6184               317.1142
 Red. masses --      1.5754                 2.5744                 2.0429
 Frc consts  --      0.0346                 0.1007                 0.1210
 IR Inten    --      2.8177                 1.5099                 1.2927

                      7                      8                      9
                      A                      A                      A
 Frequencies --    345.0859               388.8723               393.6199
 Red. masses --      3.8061                 3.9991                 3.9840
 Frc consts  --      0.2670                 0.3563                 0.3637
 IR Inten    --      1.6271                10.7422                 3.2075

                     10                     11                     12
                      A                      A                      A
 Frequencies --    501.1279               559.9954               699.9851
 Red. masses --      4.1377                 3.6603                 3.6429
 Frc consts  --      0.6122                 0.6763                 1.0516
 IR Inten    --      0.8136                 0.3410                 4.5907

                     13                     14                     15
                      A                      A                      A
 Frequencies --    780.8312               846.5794               895.7698
 Red. masses --      1.0560                 1.8165                 2.1668
 Frc consts  --      0.3793                 0.7670                 1.0244
 IR Inten    --      0.5116                 2.7926                10.1185

                     16                     17                     18
                      A                      A                      A
 Frequencies --    959.1347               964.2532               992.0463
 Red. masses --      1.4676                 3.5765                 3.4227
 Frc consts  --      0.7955                 1.9593                 1.9846
 IR Inten    --      4.0602                 0.5802                 3.2733

                     19                     20                     21
                      A                      A                      A
 Frequencies --   1035.3664              1055.7648              1089.0400
 Red. masses --      2.5287                 1.3869                 1.4459
 Frc consts  --      1.5971                 0.9108                 1.0103
 IR Inten    --      5.6807                12.6007                 3.8629

                     22                     23                     24
                      A                      A                      A
 Frequencies --   1102.0678              1180.6457              1190.9896
 Red. masses --      4.3885                 1.2774                 1.2611
 Frc consts  --      3.1404                 1.0491                 1.0539
 IR Inten    --     78.9800                 2.5749                 0.1659

                     25                     26                     27
                      A                      A                      A
 Frequencies --   1209.8014              1243.4246              1249.2890
 Red. masses --      1.4507                 1.3884                 1.8015
 Frc consts  --      1.2510                 1.2648                 1.6566
 IR Inten    --     11.4981                33.6244                51.6427

                     28                     29                     30
                      A                      A                      A
 Frequencies --   1319.5939              1357.9193              1451.3643
 Red. masses --      2.9318                 1.7022                 1.0905
 Frc consts  --      3.0079                 1.8494                 1.3534
 IR Inten    --     13.2533                33.4160                 3.9353

                     31                     32                     33
                      A                      A                      A
 Frequencies --   1466.2673              1475.4747              1493.9999
 Red. masses --      1.0880                 1.1227                 1.0712
 Frc consts  --      1.3782                 1.4400                 1.4087
 IR Inten    --      3.7795                 4.2486                 2.2544

                     34                     35                     36
                      A                      A                      A
 Frequencies --   1499.6629              1507.5345              2361.4576
 Red. masses --      1.4687                 1.0613                12.6180
 Frc consts  --      1.9462                 1.4211                41.4572
 IR Inten    --     13.2520                 6.8505                10.0452

                     37                     38                     39
                      A                      A                      A
 Frequencies --   2995.0913              3037.7666              3050.7026
 Red. masses --      1.0370                 1.0584                 1.1005
 Frc consts  --      5.4806                 5.7547                 6.0344
 IR Inten    --     44.0814                 6.6271                48.6493

                     40                     41                     42
                      A                      A                      A
 Frequencies --   3075.1995              3123.9810              3139.9941
 Red. masses --      1.1013                 1.0983                 1.0527
 Frc consts  --      6.1364                 6.3152                 6.1151
 IR Inten    --      3.7321                24.0977                 6.4708

                     43                     44                     45
                      A                      A                      A
 Frequencies --   3144.4903              3225.9809              3239.9895
 Red. masses --      1.0559                 1.1187                 1.1164
 Frc consts  --      6.1515                 6.8593                 6.9050
 IR Inten    --      3.2849                 0.9235                 5.3396

 - Thermochemistry -
 -------------------
 Temperature   298.150 Kelvin.  Pressure   1.00000 Atm.
 Atom     1 has atomic number  6 and mass  12.00000

 Molecular mass:   111.06841 amu.
 Principal axes and moments of inertia in atomic units:
                           1         2         3
     Eigenvalues --   474.516531278.440921516.38747
           X            0.99945   0.02671  -0.01988
           Y           -0.02685   0.99962  -0.00658
           Z            0.01970   0.00711   0.99978
 This molecule is an asymmetric top.
 Rotational symmetry number  1.
 Warning -- assumption of classical behavior for rotation
           may cause significant error
 Rotational temperatures (Kelvin)      0.18253     0.06775     0.05712
 Rotational constants (GHZ):           3.80333     1.41167     1.19016
 Zero-point vibrational energy     369209.1 (Joules/Mol)
                                   88.24309 (Kcal/Mol)
 Warning -- explicit consideration of  11 degrees of freedom as
           vibrations may cause significant error
 Vibrational temperatures:     96.00   147.26   201.16   277.92   370.66
          (Kelvin)            456.26   496.50   559.50   566.33   721.01
                              805.71  1007.12  1123.44  1218.04  1288.81
                             1379.98  1387.35  1427.33  1489.66  1519.01
                             1566.89  1585.63  1698.69  1713.57  1740.63
                             1789.01  1797.45  1898.60  1953.74  2088.19
                             2109.63  2122.88  2149.53  2157.68  2169.01
                             3397.61  4309.27  4370.67  4389.28  4424.53
                             4494.71  4517.75  4524.22  4641.47  4661.62

 Zero-point correction=                           0.140624 (Hartree/Particle)
 Thermal correction to Energy=                    0.149189
 Thermal correction to Enthalpy=                  0.150133
 Thermal correction to Gibbs Free Energy=         0.107312
 Sum of electronic and zero-point Energies=           -363.852028
 Sum of electronic and thermal Energies=              -363.843464
 Sum of electronic and thermal Enthalpies=            -363.842520
 Sum of electronic and thermal Free Energies=         -363.885341

                     E (Thermal)             CV                S
                      KCal/Mol        Cal/Mol-Kelvin    Cal/Mol-Kelvin
 Total                   93.617             30.736             90.124
 Electronic               0.000              0.000              0.000
 Translational            0.889              2.981             40.031
 Rotational               0.889              2.981             28.311
 Vibrational             91.840             24.775             21.783
 Vibration     1          0.598              1.970              4.248
 Vibration     2          0.604              1.947              3.409
 Vibration     3          0.615              1.914              2.806
 Vibration     4          0.635              1.849              2.197
 Vibration     5          0.667              1.750              1.678
 Vibration     6          0.704              1.641              1.325
 Vibration     7          0.723              1.585              1.189
 Vibration     8          0.757              1.494              1.004
 Vibration     9          0.761              1.484              0.986
 Vibration    10          0.857              1.248              0.655
 Vibration    11          0.916              1.118              0.524

                           ! Non-Optimized Parameters !
 Normal termination of Gaussian 16 at Thu Aug  4 09:19:13 2022.
