 Gaussian 16, Revision A.03,
 Gaussian 16:  ES64L-G16RevA.03 25-Dec-2016

 -----------------------------
 # opt freq b3lyp/6-31g(2df,p)
 -----------------------------

 -------------------
 Title Card Required
 -------------------
 Symbolic Z-matrix:
 Charge =  0 Multiplicity = 1

 SCF Done:  E(RB3LYP) =  -350.381148187     A.U. after   12 cycles
 SCF Done:  E(RB3LYP) =  -350.390577626     A.U. after   11 cycles
 SCF Done:  E(RB3LYP) =  -350.392230883     A.U. after   10 cycles
 SCF Done:  E(RB3LYP) =  -350.392849092     A.U. after   10 cycles
 SCF Done:  E(RB3LYP) =  -350.392999941     A.U. after   10 cycles
 SCF Done:  E(RB3LYP) =  -350.393043170     A.U. after    8 cycles
 SCF Done:  E(RB3LYP) =  -350.393053378     A.U. after    9 cycles
 SCF Done:  E(RB3LYP) =  -350.393055371     A.U. after    7 cycles
 SCF Done:  E(RB3LYP) =  -350.393056005     A.U. after    7 cycles
 Optimization completed.
    -- Stationary point found.
 Normal termination of Gaussian 16 at Thu Aug  4 11:38:56 2022.

 ----------------------------------------------------------------------
 #N Geom=AllCheck Guess=TCheck SCRF=Check GenChk RB3LYP/6-31G(2df,p) Fr
 eq
 ----------------------------------------------------------------------

 Structure from the checkpoint file:  "COC1pCpCCpCpC1.chk"
 -------------------
 Title Card Required
 -------------------
 Charge =  0 Multiplicity = 1

                         Standard orientation:
 ---------------------------------------------------------------------
 Center     Atomic      Atomic             Coordinates (Angstroms)
 Number     Number       Type             X           Y           Z
 ---------------------------------------------------------------------
      1          6           0        2.670202   -0.468318   -0.345075
      2          8           0        1.629408   -0.398554    0.603289
      3          6           0        0.424156    0.205331    0.156227
      4          6           0        0.619626    1.675998   -0.205166
      5          6           0       -0.382882   -0.627541   -0.895218
      6          6           0       -1.591286   -0.689642    0.088666
      7          6           0       -2.818061    0.119790   -0.318234
      8          6           0       -0.695954   -0.057508    1.196632
      9          1           0        3.455966   -1.089792    0.092454
     10          1           0        3.098965    0.516492   -0.578918
     11          1           0        2.342241   -0.933478   -1.286918
     12          1           0        1.256319    1.799485   -1.087239
     13          1           0        1.078003    2.212011    0.632693
     14          1           0       -0.341296    2.148166   -0.428734
     15          1           0        0.072525   -1.603887   -1.076608
     16          1           0       -0.573130   -0.142153   -1.857406
     17          1           0       -1.901396   -1.712317    0.320795
     18          1           0       -2.556684    1.155396   -0.564426
     19          1           0       -3.556435    0.150435    0.490855
     20          1           0       -3.303975   -0.315183   -1.198881
     21          1           0       -0.362143   -0.772649    1.950701
     22          1           0       -1.099032    0.827242    1.698331
 ---------------------------------------------------------------------

 SCF Done:  E(RB3LYP) =  -350.393056005     A.U. after    1 cycles

 The electronic state is 1-A.
 Alpha  occ. eigenvalues --  -19.13039 -10.22915 -10.21725 -10.18261 -10.17188
 Alpha  occ. eigenvalues --  -10.17115 -10.17016 -10.16743  -1.02281  -0.83619
 Alpha  occ. eigenvalues --   -0.73794  -0.69286  -0.67841  -0.65456  -0.57379
 Alpha  occ. eigenvalues --   -0.52233  -0.49463  -0.46197  -0.45178  -0.42934
 Alpha  occ. eigenvalues --   -0.42617  -0.40983  -0.40573  -0.38643  -0.37183
 Alpha  occ. eigenvalues --   -0.36784  -0.33757  -0.32095  -0.30286  -0.30150
 Alpha  occ. eigenvalues --   -0.28124  -0.24053
 Alpha virt. eigenvalues --    0.08306   0.09577   0.10786   0.13197   0.13904
 Alpha virt. eigenvalues --    0.14549   0.15166   0.15794   0.16328   0.17162
 Alpha virt. eigenvalues --    0.17477   0.18163   0.18785   0.19108   0.20866

 Mulliken charges:
               1
     1  C   -0.250117
     2  O   -0.284584
     3  C    0.450715
     4  C   -0.456597
     5  C   -0.295644
     6  C    0.044699
     7  C   -0.398839
     8  C   -0.291247
     9  H    0.123851
    10  H    0.105633
    11  H    0.103393
    12  H    0.113599
    13  H    0.120161
    14  H    0.118613
    15  H    0.100260
    16  H    0.088525
    17  H    0.070554
    18  H    0.113818
    19  H    0.113435
    20  H    0.112419
    21  H    0.107542
    22  H    0.089811
 Sum of Mulliken charges =  -0.00000

 Dipole moment (field-independent basis, Debye):
    X=             -0.1729    Y=              0.2661    Z=             -0.9561  Tot=              1.0074
 Quadrupole moment (field-independent basis, Debye-Ang):
   XX=            -49.8092   YY=            -50.6986   ZZ=            -52.0216
   XY=              0.1072   XZ=             -2.2150   YZ=              0.4506

  Exact polarizability:  91.471  -0.355  72.622  -1.454   0.614  70.991
 Approx polarizability: 112.373  -1.173 104.205  -1.131   0.102 106.628

                      1                      2                      3
                      A                      A                      A
 Frequencies --     68.8867               116.0517               177.5279
 Red. masses --      2.6513                 2.0853                 1.4884
 Frc consts  --      0.0074                 0.0165                 0.0276
 IR Inten    --      0.1148                 2.4811                 0.5192

                      4                      5                      6
                      A                      A                      A
 Frequencies --    214.0482               235.9401               259.8386
 Red. masses --      1.4534                 1.0467                 1.3009
 Frc consts  --      0.0392                 0.0343                 0.0517
 IR Inten    --      1.1710                 0.0310                 0.4227

                      7                      8                      9
                      A                      A                      A
 Frequencies --    310.0502               326.2482               351.3126
 Red. masses --      2.7468                 2.4954                 1.8855
 Frc consts  --      0.1556                 0.1565                 0.1371
 IR Inten    --      2.1619                 1.6092                 0.5288

                     10                     11                     12
                      A                      A                      A
 Frequencies --    366.0482               443.7844               488.1432
 Red. masses --      2.2557                 1.9806                 2.7709
 Frc consts  --      0.1781                 0.2298                 0.3890
 IR Inten    --      1.0652                 3.2294                 0.7502

                     13                     14                     15
                      A                      A                      A
 Frequencies --    629.4656               777.8247               829.5438
 Red. masses --      3.4111                 2.6399                 1.4146
 Frc consts  --      0.7963                 0.9410                 0.5735
 IR Inten    --      3.5518                 0.2986                 0.3640

                     16                     17                     18
                      A                      A                      A
 Frequencies --    834.9559               889.9835               905.0302
 Red. masses --      2.6443                 2.5630                 2.2237
 Frc consts  --      1.0862                 1.1961                 1.0731
 IR Inten    --      0.9498                12.3031                 0.2167

                     19                     20                     21
                      A                      A                      A
 Frequencies --    917.5875               941.2424               953.4552
 Red. masses --      1.7982                 1.5202                 1.4762
 Frc consts  --      0.8921                 0.7935                 0.7907
 IR Inten    --      4.6742                 3.4514                 1.3391

                     22                     23                     24
                      A                      A                      A
 Frequencies --   1054.1502              1066.8970              1107.3485
 Red. masses --      1.2484                 1.8377                 5.3237
 Frc consts  --      0.8173                 1.2324                 3.8462
 IR Inten    --      4.0679                 3.2838                81.9181

                     25                     26                     27
                      A                      A                      A
 Frequencies --   1143.5879              1170.2717              1181.7261
 Red. masses --      1.3638                 1.9951                 1.2961
 Frc consts  --      1.0509                 1.6099                 1.0664
 IR Inten    --      0.4760                 9.4607                 2.5979

                     28                     29                     30
                      A                      A                      A
 Frequencies --   1203.0340              1210.5384              1227.2674
 Red. masses --      2.2461                 2.2545                 1.4861
 Frc consts  --      1.9153                 1.9465                 1.3188
 IR Inten    --     39.7446                33.8018                11.7221

                     31                     32                     33
                      A                      A                      A
 Frequencies --   1239.6926              1281.7093              1285.8948
 Red. masses --      1.5909                 1.6121                 1.6565
 Frc consts  --      1.4405                 1.5603                 1.6138
 IR Inten    --      2.3104                24.3414                35.0843

                     34                     35                     36
                      A                      A                      A
 Frequencies --   1305.0206              1368.8325              1402.2341
 Red. masses --      2.0984                 1.4312                 1.2823
 Frc consts  --      2.1056                 1.5800                 1.4855
 IR Inten    --     14.4585                 2.2551                 9.8675

                     37                     38                     39
                      A                      A                      A
 Frequencies --   1411.6698              1460.9850              1473.9170
 Red. masses --      1.2573                 1.0844                 1.1178
 Frc consts  --      1.4762                 1.3637                 1.4307
 IR Inten    --      4.2703                 4.9992                 0.5540

                     40                     41                     42
                      A                      A                      A
 Frequencies --   1481.3917              1484.4289              1488.2103
 Red. masses --      1.1025                 1.0555                 1.0662
 Frc consts  --      1.4255                 1.3704                 1.3913
 IR Inten    --      0.9121                 1.8980                 1.0010

                     43                     44                     45
                      A                      A                      A
 Frequencies --   1495.9431              1497.9485              1506.2074
 Red. masses --      1.0504                 1.0499                 1.0762
 Frc consts  --      1.3850                 1.3880                 1.4385
 IR Inten    --      1.3497                 2.4777                 5.3853

                     46                     47                     48
                      A                      A                      A
 Frequencies --   1511.8988              2983.5502              3022.1678
 Red. masses --      1.0476                 1.0364                 1.0350
 Frc consts  --      1.4109                 5.4354                 5.5699
 IR Inten    --      5.4550                47.8842                25.9155

                     49                     50                     51
                      A                      A                      A
 Frequencies --   3029.3359              3036.1056              3047.9651
 Red. masses --      1.0745                 1.0611                 1.0630
 Frc consts  --      5.8099                 5.7629                 5.8186
 IR Inten    --     12.5305                55.5357                37.4048

                     52                     53                     54
                      A                      A                      A
 Frequencies --   3051.8716              3057.8368              3089.9070
 Red. masses --      1.0764                 1.0687                 1.1012
 Frc consts  --      5.9067                 5.8874                 6.1943
 IR Inten    --     26.3708                 5.7697                29.8323

                     55                     56                     57
                      A                      A                      A
 Frequencies --   3090.4544              3102.1546              3106.4526
 Red. masses --      1.1007                 1.1003                 1.0978
 Frc consts  --      6.1938                 6.2388                 6.2416
 IR Inten    --     54.2061                27.2323                29.0037

                     58                     59                     60
                      A                      A                      A
 Frequencies --   3108.8292              3112.5985              3121.5236
 Red. masses --      1.1043                 1.1018                 1.1045
 Frc consts  --      6.2885                 6.2893                 6.3406
 IR Inten    --     19.3923                21.4642                27.4670

 - Thermochemistry -
 -------------------
 Temperature   298.150 Kelvin.  Pressure   1.00000 Atm.
 Atom     1 has atomic number  6 and mass  12.00000

 Molecular mass:   114.10447 amu.
 Principal axes and moments of inertia in atomic units:
                           1         2         3
     Eigenvalues --   452.975911382.593541454.65389
           X            0.99992  -0.00105  -0.01240
           Y            0.00130   0.99980   0.02012
           Z            0.01238  -0.02014   0.99972
 This molecule is an asymmetric top.
 Rotational symmetry number  1.
 Warning -- assumption of classical behavior for rotation
           may cause significant error
 Rotational temperatures (Kelvin)      0.19121     0.06265     0.05954
 Rotational constants (GHZ):           3.98419     1.30533     1.24067
 Zero-point vibrational energy     520725.6 (Joules/Mol)
                                  124.45641 (Kcal/Mol)
 Warning -- explicit consideration of  12 degrees of freedom as
           vibrations may cause significant error
 Vibrational temperatures:     99.11   166.97   255.42   307.97   339.47
          (Kelvin)            373.85   446.09   469.40   505.46   526.66
                              638.51   702.33   905.66  1119.12  1193.53
                             1201.32  1280.49  1302.14  1320.20  1354.24
                             1371.81  1516.69  1535.03  1593.23  1645.37
                             1683.76  1700.24  1730.90  1741.69  1765.76
                             1783.64  1844.09  1850.12  1877.63  1969.44
                             2017.50  2031.08  2102.03  2120.64  2131.39
                             2135.76  2141.20  2152.33  2155.21  2167.10
                             2175.29  4292.66  4348.23  4358.54  4368.28
                             4385.34  4390.96  4399.55  4445.69  4446.47
                             4463.31  4469.49  4472.91  4478.33  4491.18

 Zero-point correction=                           0.198334 (Hartree/Particle)
 Thermal correction to Energy=                    0.207709
 Thermal correction to Enthalpy=                  0.208653
 Thermal correction to Gibbs Free Energy=         0.164744
 Sum of electronic and zero-point Energies=           -350.194722
 Sum of electronic and thermal Energies=              -350.185347
 Sum of electronic and thermal Enthalpies=            -350.184403
 Sum of electronic and thermal Free Energies=         -350.228312

                     E (Thermal)             CV                S
                      KCal/Mol        Cal/Mol-Kelvin    Cal/Mol-Kelvin
 Total                  130.339             35.195             92.414
 Electronic               0.000              0.000              0.000
 Translational            0.889              2.981             40.111
 Rotational               0.889              2.981             28.301
 Vibrational            128.562             29.233             24.001
 Vibration     1          0.598              1.969              4.185
 Vibration     2          0.608              1.936              3.165
 Vibration     3          0.628              1.870              2.354
 Vibration     4          0.644              1.820              2.009
 Vibration     5          0.655              1.786              1.833
 Vibration     6          0.668              1.746              1.663
 Vibration     7          0.699              1.655              1.362
 Vibration     8          0.710              1.623              1.279
 Vibration     9          0.728              1.573              1.160
 Vibration    10          0.739              1.542              1.096
 Vibration    11          0.803              1.375              0.815
 Vibration    12          0.844              1.276              0.688

                           ! Non-Optimized Parameters !
 Normal termination of Gaussian 16 at Thu Aug  4 12:13:35 2022.
