 Gaussian 16, Revision A.03,
 Gaussian 16:  ES64L-G16RevA.03 25-Dec-2016

 -----------------------------
 # opt freq b3lyp/6-31g(2df,p)
 -----------------------------

 -------------------
 Title Card Required
 -------------------
 Symbolic Z-matrix:
 Charge =  0 Multiplicity = 1

 SCF Done:  E(RB3LYP) =  -347.773917906     A.U. after   14 cycles
 SCF Done:  E(RB3LYP) =  -347.805853765     A.U. after   13 cycles
 SCF Done:  E(RB3LYP) =  -347.828071745     A.U. after   12 cycles
 SCF Done:  E(RB3LYP) =  -347.842522947     A.U. after   12 cycles
 SCF Done:  E(RB3LYP) =  -347.854131227     A.U. after   12 cycles
 SCF Done:  E(RB3LYP) =  -347.859982739     A.U. after   12 cycles
 SCF Done:  E(RB3LYP) =  -347.862575472     A.U. after   11 cycles
 SCF Done:  E(RB3LYP) =  -347.863768724     A.U. after   11 cycles
 SCF Done:  E(RB3LYP) =  -347.863916537     A.U. after   10 cycles
 SCF Done:  E(RB3LYP) =  -347.863956875     A.U. after   10 cycles
 SCF Done:  E(RB3LYP) =  -347.863969109     A.U. after    8 cycles
 SCF Done:  E(RB3LYP) =  -347.863974860     A.U. after    8 cycles
 SCF Done:  E(RB3LYP) =  -347.863978359     A.U. after    8 cycles
 SCF Done:  E(RB3LYP) =  -347.863979009     A.U. after    7 cycles
 SCF Done:  E(RB3LYP) =  -347.863979241     A.U. after    7 cycles
 SCF Done:  E(RB3LYP) =  -347.863979271     A.U. after    6 cycles
 SCF Done:  E(RB3LYP) =  -347.863979301     A.U. after    6 cycles
 SCF Done:  E(RB3LYP) =  -347.863979307     A.U. after    6 cycles
 Optimization completed.
    -- Stationary point found.
 Normal termination of Gaussian 16 at Thu Aug  4 00:20:16 2022.

 ----------------------------------------------------------------------
 #N Geom=AllCheck Guess=TCheck SCRF=Check GenChk RB3LYP/6-31G(2df,p) Fr
 eq
 ----------------------------------------------------------------------

 Structure from the checkpoint file:  "COC1dCC12CC2C.chk"
 -------------------
 Title Card Required
 -------------------
 Charge =  0 Multiplicity = 1

                         Standard orientation:
 ---------------------------------------------------------------------
 Center     Atomic      Atomic             Coordinates (Angstroms)
 Number     Number       Type             X           Y           Z
 ---------------------------------------------------------------------
      1          6           0       -2.037222    1.295466    0.335223
      2          8           0       -2.113837   -0.043197   -0.161158
      3          6           0       -0.967228   -0.710793   -0.207025
      4          6           0       -0.373786   -1.830869   -0.496220
      5          6           0        0.479404   -0.719698    0.056142
      6          6           0        1.455108   -0.493520    1.159600
      7          6           0        1.732908    0.008561   -0.275782
      8          6           0        1.765376    1.493670   -0.564199
      9          1           0       -3.061441    1.669979    0.350951
     10          1           0       -1.426689    1.922805   -0.322112
     11          1           0       -1.623239    1.315415    1.348452
     12          1           0       -0.393840   -2.846805   -0.844285
     13          1           0        2.043496   -1.328618    1.530796
     14          1           0        1.243654    0.263094    1.912297
     15          1           0        2.483522   -0.565533   -0.817766
     16          1           0        1.018764    2.027826    0.033838
     17          1           0        1.554859    1.702466   -1.619883
     18          1           0        2.744254    1.928049   -0.329456
 ---------------------------------------------------------------------

 SCF Done:  E(RB3LYP) =  -347.863979307     A.U. after    1 cycles

 The electronic state is 1-A.
 Alpha  occ. eigenvalues --  -19.18777 -10.24485 -10.24367 -10.20406 -10.17718
 Alpha  occ. eigenvalues --  -10.17614 -10.17206 -10.16714  -1.07831  -0.87981
 Alpha  occ. eigenvalues --   -0.80574  -0.72161  -0.69691  -0.57092  -0.56284
 Alpha  occ. eigenvalues --   -0.54759  -0.49702  -0.47533  -0.47213  -0.45032
 Alpha  occ. eigenvalues --   -0.40493  -0.39517  -0.38072  -0.37398  -0.36288
 Alpha  occ. eigenvalues --   -0.34358  -0.30971  -0.28008  -0.26489  -0.19611
 Alpha virt. eigenvalues --    0.04284   0.07789   0.09829   0.10913   0.13320
 Alpha virt. eigenvalues --    0.13875   0.15026   0.15610   0.16128   0.16877
 Alpha virt. eigenvalues --    0.18157   0.18571   0.19843   0.20379   0.23822

 Mulliken charges:
               1
     1  C   -0.254657
     2  O   -0.237818
     3  C    0.339091
     4  C   -0.378532
     5  C    0.212205
     6  C   -0.372734
     7  C   -0.067052
     8  C   -0.405260
     9  H    0.140218
    10  H    0.138130
    11  H    0.135930
    12  H    0.141994
    13  H    0.103911
    14  H    0.096411
    15  H    0.078453
    16  H    0.103195
    17  H    0.112814
    18  H    0.113700
 Sum of Mulliken charges =  -0.00000

 Dipole moment (field-independent basis, Debye):
    X=             -0.3146    Y=              1.2094    Z=              0.2993  Tot=              1.2850
 Quadrupole moment (field-independent basis, Debye-Ang):
   XX=            -48.8177   YY=            -44.6067   ZZ=            -48.6591
   XY=             -3.7052   XZ=             -1.5933   YZ=              1.4436

  Exact polarizability:  82.419  -2.258  81.538   1.251   3.526  61.990
 Approx polarizability: 114.171  -6.913 119.005   1.651   8.415  93.569

                      1                      2                      3
                      A                      A                      A
 Frequencies --     61.1821               122.9068               124.9739
 Red. masses --      2.0462                 3.3547                 1.3644
 Frc consts  --      0.0045                 0.0299                 0.0126
 IR Inten    --      2.0592                 0.3027                 0.6317

                      4                      5                      6
                      A                      A                      A
 Frequencies --    175.1718               212.1589               223.3391
 Red. masses --      2.2686                 1.1865                 2.7204
 Frc consts  --      0.0410                 0.0315                 0.0799
 IR Inten    --      0.7682                 0.0834                 1.2288

                      7                      8                      9
                      A                      A                      A
 Frequencies --    312.9497               385.1519               421.3051
 Red. masses --      2.2255                 2.8243                 2.0964
 Frc consts  --      0.1284                 0.2468                 0.2192
 IR Inten    --      4.5968                 5.5347                 0.7336

                     10                     11                     12
                      A                      A                      A
 Frequencies --    512.3511               528.0049               658.2292
 Red. masses --      3.1360                 2.6375                 4.4343
 Frc consts  --      0.4850                 0.4332                 1.1320
 IR Inten    --      6.7247                 7.5476                 0.6376

                     13                     14                     15
                      A                      A                      A
 Frequencies --    678.1400               715.8000               795.7054
 Red. masses --      2.2156                 3.0577                 2.3126
 Frc consts  --      0.6003                 0.9231                 0.8627
 IR Inten    --     34.4551                 1.6474                 4.9654

                     16                     17                     18
                      A                      A                      A
 Frequencies --    879.5773               929.0872               969.9951
 Red. masses --      1.2737                 2.5950                 1.4952
 Frc consts  --      0.5806                 1.3198                 0.8289
 IR Inten    --      5.2754                19.0235                 6.3086

                     19                     20                     21
                      A                      A                      A
 Frequencies --    985.2119              1036.2465              1042.4800
 Red. masses --      1.6059                 2.1052                 1.5524
 Frc consts  --      0.9184                 1.3319                 0.9940
 IR Inten    --     14.4690                17.2329                19.2681

                     22                     23                     24
                      A                      A                      A
 Frequencies --   1102.2100              1109.1911              1133.3476
 Red. masses --      2.0502                 2.3582                 1.9033
 Frc consts  --      1.4675                 1.7094                 1.4404
 IR Inten    --     14.9851                11.0879                28.8360

                     25                     26                     27
                      A                      A                      A
 Frequencies --   1168.0811              1174.2691              1175.7465
 Red. masses --      1.8412                 1.4287                 1.6467
 Frc consts  --      1.4801                 1.1607                 1.3412
 IR Inten    --     61.8323                12.2591                 7.6940

                     28                     29                     30
                      A                      A                      A
 Frequencies --   1243.3858              1352.4039              1409.7905
 Red. masses --      1.9806                 1.6248                 1.2508
 Frc consts  --      1.8040                 1.7509                 1.4647
 IR Inten    --    122.8637                17.1675                 2.2526

                     31                     32                     33
                      A                      A                      A
 Frequencies --   1436.2132              1474.9104              1485.6865
 Red. masses --      1.5583                 1.1500                 1.0534
 Frc consts  --      1.8938                 1.4740                 1.3699
 IR Inten    --      1.8093                 2.0341                 4.5383

                     34                     35                     36
                      A                      A                      A
 Frequencies --   1493.0665              1494.8058              1503.2476
 Red. masses --      1.1625                 1.0896                 1.0486
 Frc consts  --      1.5269                 1.4345                 1.3961
 IR Inten    --     12.9311                 4.7905                22.3907

                     37                     38                     39
                      A                      A                      A
 Frequencies --   1509.8802              1873.8050              3018.1009
 Red. masses --      1.8956                 7.9281                 1.0350
 Frc consts  --      2.5461                16.4010                 5.5549
 IR Inten    --      6.4264               193.7884                34.5343

                     40                     41                     42
                      A                      A                      A
 Frequencies --   3031.5180              3077.2196              3084.2825
 Red. masses --      1.0317                 1.1011                 1.0968
 Frc consts  --      5.5861                 6.1431                 6.1473
 IR Inten    --     40.1783                30.5960                17.2906

                     43                     44                     45
                      A                      A                      A
 Frequencies --   3097.5398              3103.4344              3112.2909
 Red. masses --      1.0541                 1.1061                 1.0894
 Frc consts  --      5.9586                 6.2769                 6.2170
 IR Inten    --     23.6968                24.6083                39.4611

                     46                     47                     48
                      A                      A                      A
 Frequencies --   3147.1731              3180.6203              3302.0889
 Red. masses --      1.1027                 1.1149                 1.1160
 Frc consts  --      6.4348                 6.6455                 7.1693
 IR Inten    --     18.4797                18.5032                 4.4730

 - Thermochemistry -
 -------------------
 Temperature   298.150 Kelvin.  Pressure   1.00000 Atm.
 Atom     1 has atomic number  6 and mass  12.00000

 Molecular mass:   110.07317 amu.
 Principal axes and moments of inertia in atomic units:
                           1         2         3
     Eigenvalues --   606.317591111.944261444.30081
           X            0.99981  -0.01689  -0.00984
           Y            0.01688   0.99986  -0.00167
           Z            0.00987   0.00150   0.99995
 This molecule is an asymmetric top.
 Rotational symmetry number  1.
 Warning -- assumption of classical behavior for rotation
           may cause significant error
 Rotational temperatures (Kelvin)      0.14285     0.07789     0.05997
 Rotational constants (GHZ):           2.97656     1.62305     1.24956
 Zero-point vibrational energy     395152.1 (Joules/Mol)
                                   94.44363 (Kcal/Mol)
 Warning -- explicit consideration of  11 degrees of freedom as
           vibrations may cause significant error
 Vibrational temperatures:     88.03   176.84   179.81   252.03   305.25
          (Kelvin)            321.34   450.26   554.15   606.16   737.16
                              759.68   947.04   975.69  1029.88  1144.84
                             1265.52  1336.75  1395.61  1417.50  1490.93
                             1499.90  1585.83  1595.88  1630.63  1680.61
                             1689.51  1691.64  1788.95  1945.81  2028.37
                             2066.39  2122.07  2137.57  2148.19  2150.69
                             2162.84  2172.38  2695.99  4342.37  4361.68
                             4427.43  4437.59  4456.67  4465.15  4477.89
                             4528.08  4576.20  4750.97

 Zero-point correction=                           0.150505 (Hartree/Particle)
 Thermal correction to Energy=                    0.159517
 Thermal correction to Enthalpy=                  0.160461
 Thermal correction to Gibbs Free Energy=         0.116756
 Sum of electronic and zero-point Energies=           -347.713474
 Sum of electronic and thermal Energies=              -347.704462
 Sum of electronic and thermal Enthalpies=            -347.703518
 Sum of electronic and thermal Free Energies=         -347.747223

                     E (Thermal)             CV                S
                      KCal/Mol        Cal/Mol-Kelvin    Cal/Mol-Kelvin
 Total                  100.099             32.438             91.986
 Electronic               0.000              0.000              0.000
 Translational            0.889              2.981             40.004
 Rotational               0.889              2.981             28.367
 Vibrational             98.321             26.476             23.615
 Vibration     1          0.597              1.973              4.419
 Vibration     2          0.610              1.930              3.054
 Vibration     3          0.610              1.928              3.022
 Vibration     4          0.627              1.873              2.379
 Vibration     5          0.643              1.822              2.025
 Vibration     6          0.649              1.806              1.932
 Vibration     7          0.701              1.649              1.347
 Vibration     8          0.754              1.502              1.019
 Vibration     9          0.784              1.424              0.888
 Vibration    10          0.867              1.223              0.628
 Vibration    11          0.883              1.188              0.592

                           ! Non-Optimized Parameters !
 Normal termination of Gaussian 16 at Thu Aug  4 00:43:31 2022.
