 Gaussian 16, Revision A.03,
 Gaussian 16:  ES64L-G16RevA.03 25-Dec-2016

 -----------------------------
 # opt freq b3lyp/6-31g(2df,p)
 -----------------------------

 -------------------
 Title Card Required
 -------------------
 Symbolic Z-matrix:
 Charge =  0 Multiplicity = 1

 SCF Done:  E(RB3LYP) =  -405.754266949     A.U. after   12 cycles
 SCF Done:  E(RB3LYP) =  -405.757840901     A.U. after   10 cycles
 SCF Done:  E(RB3LYP) =  -405.758292782     A.U. after   10 cycles
 SCF Done:  E(RB3LYP) =  -405.758373557     A.U. after    9 cycles
 SCF Done:  E(RB3LYP) =  -405.758388491     A.U. after    8 cycles
 SCF Done:  E(RB3LYP) =  -405.758397140     A.U. after    8 cycles
 SCF Done:  E(RB3LYP) =  -405.758399270     A.U. after    8 cycles
 SCF Done:  E(RB3LYP) =  -405.758399817     A.U. after    7 cycles
 SCF Done:  E(RB3LYP) =  -405.758399860     A.U. after    6 cycles
 Optimization completed.
    -- Stationary point found.
 Normal termination of Gaussian 16 at Wed Aug  3 23:40:11 2022.

 ----------------------------------------------------------------------
 #N Geom=AllCheck Guess=TCheck SCRF=Check GenChk RB3LYP/6-31G(2df,p) Fr
 eq
 ----------------------------------------------------------------------

 Structure from the checkpoint file:  "COC1CCCNCC1.chk"
 -------------------
 Title Card Required
 -------------------
 Charge =  0 Multiplicity = 1

                         Standard orientation:
 ---------------------------------------------------------------------
 Center     Atomic      Atomic             Coordinates (Angstroms)
 Number     Number       Type             X           Y           Z
 ---------------------------------------------------------------------
      1          6           0       -3.116134    0.170576    0.497192
      2          8           0       -2.149659   -0.431361   -0.328807
      3          6           0       -0.796205   -0.177337    0.042962
      4          6           0       -0.358995    1.220054   -0.431785
      5          6           0        1.010910    1.698502    0.069743
      6          6           0        2.195138    0.742126   -0.164745
      7          7           0        2.165798   -0.481802    0.630108
      8          6           0        1.375854   -1.603084    0.122040
      9          6           0        0.042330   -1.291660   -0.593544
     10          1           0       -4.094501   -0.171096    0.148976
     11          1           0       -3.099433    1.269748    0.450689
     12          1           0       -2.992924   -0.127687    1.550972
     13          1           0       -0.715693   -0.236968    1.143722
     14          1           0       -1.111030    1.955273   -0.123892
     15          1           0       -0.371656    1.208945   -1.529341
     16          1           0        0.955749    1.899750    1.149869
     17          1           0        1.234508    2.664540   -0.401168
     18          1           0        3.121922    1.283242    0.068217
     19          1           0        2.263927    0.465740   -1.224267
     20          1           0        1.889106   -0.260297    1.578850
     21          1           0        1.180129   -2.258612    0.978034
     22          1           0        1.996128   -2.189980   -0.569625
     23          1           0       -0.564829   -2.202769   -0.610090
     24          1           0        0.227904   -1.031384   -1.642423
 ---------------------------------------------------------------------

 SCF Done:  E(RB3LYP) =  -405.758399860     A.U. after    1 cycles

 The electronic state is 1-A.
 Alpha  occ. eigenvalues --  -19.13228 -14.30416 -10.22695 -10.22031 -10.20082
 Alpha  occ. eigenvalues --  -10.20019 -10.17970 -10.17606 -10.17013  -1.02446
 Alpha  occ. eigenvalues --   -0.89595  -0.78650  -0.76386  -0.68842  -0.66833
 Alpha  occ. eigenvalues --   -0.63238  -0.57779  -0.56072  -0.49125  -0.48135
 Alpha  occ. eigenvalues --   -0.46814  -0.45679  -0.43416  -0.42676  -0.41927
 Alpha  occ. eigenvalues --   -0.39126  -0.38799  -0.37271  -0.35813  -0.34641
 Alpha  occ. eigenvalues --   -0.33104  -0.32192  -0.32028  -0.30124  -0.24697
 Alpha  occ. eigenvalues --   -0.20852
 Alpha virt. eigenvalues --    0.07528   0.09533   0.10194   0.11267   0.12552
 Alpha virt. eigenvalues --    0.14888   0.15200   0.15425   0.15840   0.16101
 Alpha virt. eigenvalues --    0.16639   0.17753   0.18817   0.19763   0.20343

 Mulliken charges:
               1
     1  C   -0.240325
     2  O   -0.247535
     3  C    0.150028
     4  C   -0.203681
     5  C   -0.203690
     6  C   -0.149151
     7  N   -0.273507
     8  C   -0.171506
     9  C   -0.219793
    10  H    0.125358
    11  H    0.103957
    12  H    0.099763
    13  H    0.047168
    14  H    0.092169
    15  H    0.101170
    16  H    0.087232
    17  H    0.093133
    18  H    0.095985
    19  H    0.102174
    20  H    0.209352
    21  H    0.100136
    22  H    0.100394
    23  H    0.103674
    24  H    0.097495
 Sum of Mulliken charges =   0.00000

 Dipole moment (field-independent basis, Debye):
    X=             -0.5217    Y=              0.9622    Z=              0.8980  Tot=              1.4158
 Quadrupole moment (field-independent basis, Debye-Ang):
   XX=            -60.6502   YY=            -56.5311   ZZ=            -55.3681
   XY=              0.1620   XZ=             -3.0685   YZ=             -0.1963

  Exact polarizability:  95.812   0.893  86.598  -1.834   0.054  74.301
 Approx polarizability: 119.117   1.772 118.745  -1.162   0.959 118.475

                      1                      2                      3
                      A                      A                      A
 Frequencies --     77.6156                97.0062               142.6585
 Red. masses --      2.1655                 2.2755                 1.6713
 Frc consts  --      0.0077                 0.0126                 0.0200
 IR Inten    --      0.8828                 1.4563                 0.1112

                      4                      5                      6
                      A                      A                      A
 Frequencies --    191.3250               207.8942               252.4804
 Red. masses --      2.0564                 1.6020                 2.6656
 Frc consts  --      0.0444                 0.0408                 0.1001
 IR Inten    --      3.2803                 1.6294                 1.0480

                      7                      8                      9
                      A                      A                      A
 Frequencies --    307.7624               342.2844               368.2600
 Red. masses --      2.8870                 2.6929                 2.8204
 Frc consts  --      0.1611                 0.1859                 0.2254
 IR Inten    --      2.8409                 3.3486                 3.9166

                     10                     11                     12
                      A                      A                      A
 Frequencies --    432.2789               484.8214               513.3116
 Red. masses --      2.6513                 2.5565                 1.8227
 Frc consts  --      0.2919                 0.3540                 0.2830
 IR Inten    --      4.9914                 0.2943                 3.4215

                     13                     14                     15
                      A                      A                      A
 Frequencies --    576.1187               681.5799               784.8650
 Red. masses --      2.4833                 1.5404                 1.7752
 Frc consts  --      0.4856                 0.4216                 0.6443
 IR Inten    --      4.5299               116.2667                 0.9850

                     16                     17                     18
                      A                      A                      A
 Frequencies --    823.1502               864.0711               890.7693
 Red. masses --      1.7674                 1.7645                 2.1503
 Frc consts  --      0.7056                 0.7762                 1.0053
 IR Inten    --     14.4137                 1.6655                 3.2266

                     19                     20                     21
                      A                      A                      A
 Frequencies --    905.3027               910.9894              1005.9228
 Red. masses --      2.3246                 2.3426                 3.0418
 Frc consts  --      1.1225                 1.1455                 1.8134
 IR Inten    --      4.5406                11.1864                 8.4613

                     22                     23                     24
                      A                      A                      A
 Frequencies --   1021.2613              1037.2936              1078.6436
 Red. masses --      1.6950                 2.0808                 1.8404
 Frc consts  --      1.0416                 1.3191                 1.2616
 IR Inten    --      7.3169                 1.4296                 1.7980

                     25                     26                     27
                      A                      A                      A
 Frequencies --   1091.5685              1120.0398              1142.5174
 Red. masses --      1.6949                 2.6092                 5.3674
 Frc consts  --      1.1898                 1.9286                 4.1280
 IR Inten    --     10.9573                 5.9802               145.2828

                     28                     29                     30
                      A                      A                      A
 Frequencies --   1180.8201              1182.2825              1213.1217
 Red. masses --      3.2838                 1.3162                 1.4408
 Frc consts  --      2.6977                 1.0840                 1.2493
 IR Inten    --     50.6119                 7.1058                30.9106

                     31                     32                     33
                      A                      A                      A
 Frequencies --   1231.1840              1241.4523              1264.5209
 Red. masses --      1.5068                 1.4032                 1.3385
 Frc consts  --      1.3457                 1.2742                 1.2610
 IR Inten    --      4.2568                 0.3922                 7.7175

                     34                     35                     36
                      A                      A                      A
 Frequencies --   1275.5810              1333.1769              1343.9621
 Red. masses --      1.2971                 1.2712                 1.2288
 Frc consts  --      1.2435                 1.3312                 1.3077
 IR Inten    --     11.3825                 1.1349                 1.3397

                     37                     38                     39
                      A                      A                      A
 Frequencies --   1356.5100              1376.8620              1380.6933
 Red. masses --      1.2135                 1.2511                 1.3377
 Frc consts  --      1.3156                 1.3974                 1.5025
 IR Inten    --      6.0274                11.9018                 0.5695

                     40                     41                     42
                      A                      A                      A
 Frequencies --   1391.4234              1399.1308              1417.9911
 Red. masses --      1.4194                 1.3536                 1.3781
 Frc consts  --      1.6191                 1.5612                 1.6325
 IR Inten    --      2.4765                18.1404                 5.4853

                     43                     44                     45
                      A                      A                      A
 Frequencies --   1474.6786              1477.6436              1483.1550
 Red. masses --      1.0829                 1.1105                 1.0863
 Frc consts  --      1.3875                 1.4286                 1.4079
 IR Inten    --      2.7873                 1.6834                 4.5844

                     46                     47                     48
                      A                      A                      A
 Frequencies --   1488.0528              1491.1777              1494.0588
 Red. masses --      1.0930                 1.0771                 1.0831
 Frc consts  --      1.4260                 1.4112                 1.4245
 IR Inten    --      0.2638                 0.7768                 4.7038

                     49                     50                     51
                      A                      A                      A
 Frequencies --   1507.9674              1511.6740              1512.9017
 Red. masses --      1.0862                 1.0817                 1.1832
 Frc consts  --      1.4553                 1.4563                 1.5957
 IR Inten    --      7.8530                 7.8781                 7.8875

                     52                     53                     54
                      A                      A                      A
 Frequencies --   2932.8348              2969.9176              2996.7496
 Red. masses --      1.0804                 1.0396                 1.0653
 Frc consts  --      5.4755                 5.4028                 5.6365
 IR Inten    --     32.4667                62.4052                18.5027

                     55                     56                     57
                      A                      A                      A
 Frequencies --   3002.8627              3010.0115              3015.3375
 Red. masses --      1.0677                 1.0659                 1.0954
 Frc consts  --      5.6725                 5.6897                 5.8679
 IR Inten    --     61.7216                50.3613                38.3980

                     58                     59                     60
                      A                      A                      A
 Frequencies --   3022.8338              3034.6128              3044.1977
 Red. masses --      1.0685                 1.0655                 1.0913
 Frc consts  --      5.7526                 5.7809                 5.9583
 IR Inten    --     32.1971                18.0182                64.0768

                     61                     62                     63
                      A                      A                      A
 Frequencies --   3055.3745              3056.9945              3067.5420
 Red. masses --      1.0945                 1.0970                 1.1010
 Frc consts  --      6.0201                 6.0401                 6.1039
 IR Inten    --      9.5195                38.2680                52.6129

                     64                     65                     66
                      A                      A                      A
 Frequencies --   3082.5377              3106.1628              3538.8675
 Red. masses --      1.1009                 1.0955                 1.0741
 Frc consts  --      6.1634                 6.2277                 7.9251
 IR Inten    --     48.0143                33.3652                 0.0435

 - Thermochemistry -
 -------------------
 Temperature   298.150 Kelvin.  Pressure   1.00000 Atm.
 Atom     1 has atomic number  6 and mass  12.00000

 Molecular mass:   129.11536 amu.
 Principal axes and moments of inertia in atomic units:
                           1         2         3
     Eigenvalues --   664.386371628.385022053.77411
           X            0.99987  -0.00602  -0.01467
           Y            0.00606   0.99998   0.00273
           Z            0.01465  -0.00282   0.99989
 This molecule is an asymmetric top.
 Rotational symmetry number  1.
 Warning -- assumption of classical behavior for rotation
           may cause significant error
 Rotational temperatures (Kelvin)      0.13037     0.05319     0.04217
 Rotational constants (GHZ):           2.71640     1.10830     0.87874
 Zero-point vibrational energy     576113.5 (Joules/Mol)
                                  137.69442 (Kcal/Mol)
 Warning -- explicit consideration of  13 degrees of freedom as
           vibrations may cause significant error
 Vibrational temperatures:    111.67   139.57   205.25   275.27   299.11
          (Kelvin)            363.26   442.80   492.47   529.84   621.95
                              697.55   738.54   828.91   980.64  1129.25
                             1184.33  1243.21  1281.62  1302.53  1310.71
                             1447.30  1469.37  1492.43  1551.93  1570.52
                             1611.49  1643.83  1698.94  1701.04  1745.41
                             1771.40  1786.17  1819.36  1835.28  1918.14
                             1933.66  1951.72  1981.00  1986.51  2001.95
                             2013.04  2040.17  2121.73  2126.00  2133.93
                             2140.98  2145.47  2149.62  2169.63  2174.96
                             2176.73  4219.70  4273.05  4311.65  4320.45
                             4330.74  4338.40  4349.18  4366.13  4379.92
                             4396.00  4398.33  4413.51  4435.08  4469.08
                             5091.64

 Zero-point correction=                           0.219430 (Hartree/Particle)
 Thermal correction to Energy=                    0.228983
 Thermal correction to Enthalpy=                  0.229927
 Thermal correction to Gibbs Free Energy=         0.184997
 Sum of electronic and zero-point Energies=           -405.538970
 Sum of electronic and thermal Energies=              -405.529417
 Sum of electronic and thermal Enthalpies=            -405.528473
 Sum of electronic and thermal Free Energies=         -405.573403

                     E (Thermal)             CV                S
                      KCal/Mol        Cal/Mol-Kelvin    Cal/Mol-Kelvin
 Total                  143.689             36.296             94.564
 Electronic               0.000              0.000              0.000
 Translational            0.889              2.981             40.480
 Rotational               0.889              2.981             29.187
 Vibrational            141.911             30.334             24.897
 Vibration     1          0.599              1.964              3.950
 Vibration     2          0.603              1.951              3.514
 Vibration     3          0.616              1.911              2.768
 Vibration     4          0.634              1.852              2.215
 Vibration     5          0.641              1.829              2.062
 Vibration     6          0.664              1.759              1.713
 Vibration     7          0.698              1.659              1.374
 Vibration     8          0.721              1.591              1.201
 Vibration     9          0.741              1.537              1.087
 Vibration    10          0.793              1.400              0.851
 Vibration    11          0.841              1.284              0.697
 Vibration    12          0.868              1.221              0.626
 Vibration    13          0.933              1.083              0.493

 Optimization completed.
    -- Stationary point found.
 Normal termination of Gaussian 16 at Thu Aug  4 00:18:29 2022.
