 Gaussian 16, Revision A.03,
 Gaussian 16:  ES64L-G16RevA.03 25-Dec-2016

 -----------------------------
 # opt freq b3lyp/6-31g(2df,p)
 -----------------------------

 -------------------
 Title Card Required
 -------------------
 Symbolic Z-matrix:
 Charge =  0 Multiplicity = 1

 SCF Done:  E(RB3LYP) =  -453.937755646     A.U. after   14 cycles
 SCF Done:  E(RB3LYP) =  -453.964862407     A.U. after   13 cycles
 SCF Done:  E(RB3LYP) =  -453.974158267     A.U. after   12 cycles
 SCF Done:  E(RB3LYP) =  -453.976544681     A.U. after   12 cycles
 SCF Done:  E(RB3LYP) =  -453.980496666     A.U. after   12 cycles
 SCF Done:  E(RB3LYP) =  -453.981129335     A.U. after   12 cycles
 SCF Done:  E(RB3LYP) =  -453.981401899     A.U. after   11 cycles
 SCF Done:  E(RB3LYP) =  -453.981447163     A.U. after   10 cycles
 SCF Done:  E(RB3LYP) =  -453.981459658     A.U. after    9 cycles
 SCF Done:  E(RB3LYP) =  -453.981463981     A.U. after    8 cycles
 SCF Done:  E(RB3LYP) =  -453.981464380     A.U. after    8 cycles
 Optimization completed.
    -- Stationary point found.
 Normal termination of Gaussian 16 at Sun Jul  3 19:49:35 2022.

 ----------------------------------------------------------------------
 #N Geom=AllCheck Guess=TCheck SCRF=Check GenChk RB3LYP/6-31G(2df,p) Fr
 eq
 ----------------------------------------------------------------------

 Structure from the checkpoint file:  "COC1NC12OC2CtN.chk"
 -------------------
 Title Card Required
 -------------------
 Charge =  0 Multiplicity = 1

                         Standard orientation:
 ---------------------------------------------------------------------
 Center     Atomic      Atomic             Coordinates (Angstroms)
 Number     Number       Type             X           Y           Z
 ---------------------------------------------------------------------
      1          6           0       -2.909758    1.001784   -0.161182
      2          8           0       -2.091735    0.236966    0.708784
      3          6           0       -1.286996   -0.659284    0.041594
      4          7           0       -0.206208   -1.224960    0.864104
      5          6           0        0.132757   -0.419631   -0.251212
      6          8           0        0.953338   -0.683218   -1.347221
      7          6           0        1.185962    0.535960   -0.570332
      8          6           0        2.409365    0.572999    0.195749
      9          7           0        3.385601    0.630966    0.811130
     10          1           0       -3.527094    1.641734    0.470978
     11          1           0       -3.563975    0.360365   -0.769606
     12          1           0       -2.311348    1.630319   -0.835348
     13          1           0       -1.818265   -1.330696   -0.640262
     14          1           0       -0.061441   -2.221387    0.723660
     15          1           0        0.945568    1.456671   -1.096259
 ---------------------------------------------------------------------

 SCF Done:  E(RB3LYP) =  -453.981464380     A.U. after    1 cycles

 The electronic state is 1-A.
 Alpha  occ. eigenvalues --  -19.19710 -19.17057 -14.36001 -14.34437 -10.30239
 Alpha  occ. eigenvalues --  -10.29965 -10.29285 -10.24701 -10.23272  -1.12321
 Alpha  occ. eigenvalues --   -1.07475  -0.97990  -0.91328  -0.74942  -0.72562
 Alpha  occ. eigenvalues --   -0.66768  -0.62008  -0.57284  -0.55380  -0.53645
 Alpha  occ. eigenvalues --   -0.48580  -0.46575  -0.46127  -0.40683  -0.40136
 Alpha  occ. eigenvalues --   -0.38810  -0.37077  -0.35350  -0.34213  -0.33683
 Alpha  occ. eigenvalues --   -0.32490  -0.29702  -0.25772
 Alpha virt. eigenvalues --   -0.01605   0.01571   0.06001   0.07871   0.10641
 Alpha virt. eigenvalues --    0.11041   0.12307   0.14178   0.14813   0.15244
 Alpha virt. eigenvalues --    0.15817   0.16223   0.19344   0.22348   0.24595

 Mulliken charges:
               1
     1  C   -0.241145
     2  O   -0.214358
     3  C   -0.018935
     4  N   -0.394324
     5  C    0.450060
     6  O   -0.254659
     7  C   -0.239525
     8  C    0.331081
     9  N   -0.316088
    10  H    0.144763
    11  H    0.117222
    12  H    0.114514
    13  H    0.109691
    14  H    0.258270
    15  H    0.153432
 Sum of Mulliken charges =  -0.00000

 Dipole moment (field-independent basis, Debye):
    X=             -4.2612    Y=             -0.0210    Z=             -2.6319  Tot=              5.0085
 Quadrupole moment (field-independent basis, Debye-Ang):
   XX=            -59.5317   YY=            -44.2367   ZZ=            -56.5214
   XY=             -1.5592   XZ=             -1.0039   YZ=             -2.7648

  Exact polarizability:  91.006   3.598  60.896   6.569  -1.581  54.336
 Approx polarizability: 122.202   6.828  89.589  13.488   0.005  92.432

                      1                      2                      3
                      A                      A                      A
 Frequencies --     58.1502                97.0263               126.7204
 Red. masses --      3.3218                 4.9444                 6.0271
 Frc consts  --      0.0066                 0.0274                 0.0570
 IR Inten    --      1.2051                 2.8153                 3.2698

                      4                      5                      6
                      A                      A                      A
 Frequencies --    158.9289               213.9201               258.8183
 Red. masses --      1.7019                 1.8923                 7.0959
 Frc consts  --      0.0253                 0.0510                 0.2801
 IR Inten    --      0.9256                 4.7716                 5.7927

                      7                      8                      9
                      A                      A                      A
 Frequencies --    366.2476               392.8662               475.8584
 Red. masses --      5.8644                 4.1539                 6.0703
 Frc consts  --      0.4635                 0.3777                 0.8099
 IR Inten    --     17.6217                 2.8701                 6.8662

                     10                     11                     12
                      A                      A                      A
 Frequencies --    517.0136               556.6105               574.6790
 Red. masses --      4.2282                 6.2080                 6.8867
 Frc consts  --      0.6659                 1.1332                 1.3400
 IR Inten    --     25.7314                 0.9771                14.2962

                     13                     14                     15
                      A                      A                      A
 Frequencies --    687.1537               830.7590               861.8827
 Red. masses --      6.2673                 1.8768                 3.9907
 Frc consts  --      1.7436                 0.7632                 1.7466
 IR Inten    --      6.6482                96.5687                25.4250

                     16                     17                     18
                      A                      A                      A
 Frequencies --    927.5017               941.9976              1015.7174
 Red. masses --      6.6573                 3.4522                 1.9792
 Frc consts  --      3.3743                 1.8049                 1.2031
 IR Inten    --     40.5209                24.4043                22.8733

                     19                     20                     21
                      A                      A                      A
 Frequencies --   1024.9912              1077.6799              1124.3664
 Red. masses --      2.4359                 3.9139                 1.6744
 Frc consts  --      1.5078                 2.6782                 1.2472
 IR Inten    --     24.7958                47.1634                 7.8979

                     22                     23                     24
                      A                      A                      A
 Frequencies --   1173.8294              1180.4821              1196.7201
 Red. masses --      1.6741                 1.4080                 1.9882
 Frc consts  --      1.3591                 1.1560                 1.6776
 IR Inten    --     58.9493                20.1889               137.6134

                     25                     26                     27
                      A                      A                      A
 Frequencies --   1223.2075              1254.6125              1333.9807
 Red. masses --      1.8971                 2.1753                 1.2507
 Frc consts  --      1.6724                 2.0173                 1.3113
 IR Inten    --     11.5185                97.8499                11.0059

                     28                     29                     30
                      A                      A                      A
 Frequencies --   1386.7594              1482.8975              1488.6719
 Red. masses --      1.3012                 1.1679                 1.0503
 Frc consts  --      1.4743                 1.5131                 1.3714
 IR Inten    --     53.3596                 4.5060                 4.5511

                     31                     32                     33
                      A                      A                      A
 Frequencies --   1505.7971              1613.8075              2365.0988
 Red. masses --      1.0647                 8.0174                12.6136
 Frc consts  --      1.4223                12.3024                41.5708
 IR Inten    --      7.2351                40.6064                 4.3509

                     34                     35                     36
                      A                      A                      A
 Frequencies --   2990.0392              3043.1199              3059.7291
 Red. masses --      1.0364                 1.1036                 1.0857
 Frc consts  --      5.4595                 6.0216                 5.9885
 IR Inten    --     48.6057                50.4301                24.0328

                     37                     38                     39
                      A                      A                      A
 Frequencies --   3136.8205              3149.6291              3524.5359
 Red. masses --      1.0974                 1.0868                 1.0762
 Frc consts  --      6.3621                 6.3520                 7.8768
 IR Inten    --     18.6584                 3.1439                17.2423

 - Thermochemistry -
 -------------------
 Temperature   298.150 Kelvin.  Pressure   1.00000 Atm.
 Atom     1 has atomic number  6 and mass  12.00000

 Molecular mass:   126.04293 amu.
 Principal axes and moments of inertia in atomic units:
                           1         2         3
     Eigenvalues --   506.373551974.664842017.89250
           X            0.99983  -0.01412   0.01196
           Y            0.01691   0.95956  -0.28099
           Z           -0.00750   0.28114   0.95964
 This molecule is an asymmetric top.
 Rotational symmetry number  1.
 Warning -- assumption of classical behavior for rotation
           may cause significant error
 Rotational temperatures (Kelvin)      0.17105     0.04386     0.04292
 Rotational constants (GHZ):           3.56405     0.91395     0.89437
 Zero-point vibrational energy     289488.1 (Joules/Mol)
                                   69.18931 (Kcal/Mol)
 Warning -- explicit consideration of  12 degrees of freedom as
           vibrations may cause significant error
 Vibrational temperatures:     83.67   139.60   182.32   228.66   307.78
          (Kelvin)            372.38   526.95   565.25   684.65   743.87
                              800.84   826.83   988.66  1195.28  1240.06
                             1334.47  1355.32  1461.39  1474.73  1550.54
                             1617.71  1688.88  1698.45  1721.81  1759.92
                             1805.11  1919.30  1995.24  2133.56  2141.87
                             2166.51  2321.91  3402.85  4302.00  4378.37
                             4402.27  4513.19  4531.61  5071.02

 Zero-point correction=                           0.110260 (Hartree/Particle)
 Thermal correction to Energy=                    0.119033
 Thermal correction to Enthalpy=                  0.119977
 Thermal correction to Gibbs Free Energy=         0.075925
 Sum of electronic and zero-point Energies=           -453.871204
 Sum of electronic and thermal Energies=              -453.862432
 Sum of electronic and thermal Enthalpies=            -453.861487
 Sum of electronic and thermal Free Energies=         -453.905540

                     E (Thermal)             CV                S
                      KCal/Mol        Cal/Mol-Kelvin    Cal/Mol-Kelvin
 Total                   74.694             30.754             92.716
 Electronic               0.000              0.000              0.000
 Translational            0.889              2.981             40.408
 Rotational               0.889              2.981             29.091
 Vibrational             72.917             24.792             23.217
 Vibration     1          0.596              1.974              4.519
 Vibration     2          0.603              1.951              3.513
 Vibration     3          0.611              1.926              2.995
 Vibration     4          0.621              1.893              2.562
 Vibration     5          0.644              1.820              2.010
 Vibration     6          0.668              1.748              1.670
 Vibration     7          0.739              1.542              1.095
 Vibration     8          0.760              1.485              0.989
 Vibration     9          0.832              1.304              0.721
 Vibration    10          0.872              1.212              0.617
 Vibration    11          0.912              1.125              0.531
 Vibration    12          0.931              1.086              0.495

                           ! Non-Optimized Parameters !
 Normal termination of Gaussian 16 at Sun Jul  3 20:08:29 2022.
