 Gaussian 16, Revision A.03,
 Gaussian 16:  ES64L-G16RevA.03 25-Dec-2016

 -----------------------------
 # opt freq b3lyp/6-31g(2df,p)
 -----------------------------

 -------------------
 Title Card Required
 -------------------
 Symbolic Z-matrix:
 Charge =  0 Multiplicity = 1

 SCF Done:  E(RB3LYP) =  -440.369471994     A.U. after   12 cycles
 SCF Done:  E(RB3LYP) =  -440.380233571     A.U. after   11 cycles
 SCF Done:  E(RB3LYP) =  -440.381323903     A.U. after   10 cycles
 SCF Done:  E(RB3LYP) =  -440.381819605     A.U. after   10 cycles
 SCF Done:  E(RB3LYP) =  -440.382547574     A.U. after   12 cycles
 SCF Done:  E(RB3LYP) =  -440.383047178     A.U. after   10 cycles
 SCF Done:  E(RB3LYP) =  -440.384047290     A.U. after   10 cycles
 SCF Done:  E(RB3LYP) =  -440.385305765     A.U. after   12 cycles
 SCF Done:  E(RB3LYP) =  -440.386622892     A.U. after   11 cycles
 SCF Done:  E(RB3LYP) =  -440.388294135     A.U. after   11 cycles
 SCF Done:  E(RB3LYP) =  -440.389070722     A.U. after   10 cycles
 SCF Done:  E(RB3LYP) =  -440.389893967     A.U. after   12 cycles
 SCF Done:  E(RB3LYP) =  -440.391741413     A.U. after   12 cycles
 SCF Done:  E(RB3LYP) =  -440.385371449     A.U. after   13 cycles
 SCF Done:  E(RB3LYP) =  -440.392129667     A.U. after   11 cycles
 SCF Done:  E(RB3LYP) =  -440.392215987     A.U. after   10 cycles
 SCF Done:  E(RB3LYP) =  -440.392223703     A.U. after    8 cycles
 SCF Done:  E(RB3LYP) =  -440.392224807     A.U. after    7 cycles
 SCF Done:  E(RB3LYP) =  -440.392225237     A.U. after    6 cycles
 Optimization completed.
    -- Stationary point found.
 Normal termination of Gaussian 16 at Thu Aug  4 01:06:21 2022.

 ----------------------------------------------------------------------
 #N Geom=AllCheck Guess=TCheck SCRF=Check GenChk RB3LYP/6-31G(2df,p) Fr
 eq
 ----------------------------------------------------------------------

 Structure from the checkpoint file:  "COC1NC1C1CC1O.chk"
 -------------------
 Title Card Required
 -------------------
 Charge =  0 Multiplicity = 1

                         Standard orientation:
 ---------------------------------------------------------------------
 Center     Atomic      Atomic             Coordinates (Angstroms)
 Number     Number       Type             X           Y           Z
 ---------------------------------------------------------------------
      1          6           0        3.317281    0.982724   -0.078190
      2          8           0        2.703749   -0.260242    0.209694
      3          6           0        1.429622   -0.375144   -0.331751
      4          7           0        0.594808   -1.407471    0.240513
      5          6           0        0.256760    0.016846    0.497433
      6          6           0       -1.033118    0.524691   -0.063865
      7          6           0       -1.760376   -0.213247   -1.171956
      8          6           0       -2.326605   -0.175592    0.223796
      9          8           0       -3.422133    0.645252    0.512939
     10          1           0        4.315783    0.957348    0.363090
     11          1           0        2.752493    1.821926    0.351896
     12          1           0        3.411388    1.144844   -1.161989
     13          1           0        1.394586   -0.286181   -1.419956
     14          1           0        1.073450   -1.802721    1.046426
     15          1           0        0.518654    0.399542    1.483019
     16          1           0       -1.115771    1.607757   -0.095269
     17          1           0       -1.337884   -1.150432   -1.516036
     18          1           0       -2.253721    0.393052   -1.923608
     19          1           0       -2.267807   -1.097414    0.801981
     20          1           0       -4.209142    0.222823    0.152990
 ---------------------------------------------------------------------

 SCF Done:  E(RB3LYP) =  -440.392225237     A.U. after    1 cycles

 The electronic state is 1-A.
 Alpha  occ. eigenvalues --  -19.15249 -19.13651 -14.32526 -10.25574 -10.23130
 Alpha  occ. eigenvalues --  -10.22693 -10.21301 -10.18665 -10.17589  -1.05485
 Alpha  occ. eigenvalues --   -1.02093  -0.94741  -0.83933  -0.70170  -0.67296
 Alpha  occ. eigenvalues --   -0.61671  -0.59386  -0.55942  -0.52961  -0.51754
 Alpha  occ. eigenvalues --   -0.49069  -0.45820  -0.44801  -0.43918  -0.42370
 Alpha  occ. eigenvalues --   -0.39137  -0.37443  -0.36488  -0.34018  -0.32335
 Alpha  occ. eigenvalues --   -0.31644  -0.28368  -0.27674  -0.25390  -0.23088
 Alpha virt. eigenvalues --    0.08463   0.09351   0.09821   0.12062   0.12421
 Alpha virt. eigenvalues --    0.12735   0.13721   0.14887   0.15546   0.16071
 Alpha virt. eigenvalues --    0.17177   0.18209   0.18580   0.20213   0.22987

 Mulliken charges:
               1
     1  C   -0.237255
     2  O   -0.235266
     3  C    0.108041
     4  N   -0.355947
     5  C   -0.089459
     6  C   -0.027559
     7  C   -0.332077
     8  C    0.107389
     9  O   -0.429761
    10  H    0.132006
    11  H    0.112452
    12  H    0.112954
    13  H    0.093750
    14  H    0.238072
    15  H    0.093299
    16  H    0.095003
    17  H    0.131920
    18  H    0.106041
    19  H    0.090886
    20  H    0.285511
 Sum of Mulliken charges =  -0.00000

 Dipole moment (field-independent basis, Debye):
    X=              0.3853    Y=              0.6563    Z=             -0.4471  Tot=              0.8827
 Quadrupole moment (field-independent basis, Debye-Ang):
   XX=            -47.9447   YY=            -55.3599   ZZ=            -52.7075
   XY=              6.3530   XZ=              2.5999   YZ=             -2.3582

  Exact polarizability:  96.243   1.917  66.639   0.290  -0.325  66.855
 Approx polarizability: 116.186   0.326 103.264  -1.006   1.150 101.203

                      1                      2                      3
                      A                      A                      A
 Frequencies --     51.0813                94.8674               110.7143
 Red. masses --      3.5408                 3.1046                 3.5329
 Frc consts  --      0.0054                 0.0165                 0.0255
 IR Inten    --      2.4034                 1.3660                 0.3791

                      4                      5                      6
                      A                      A                      A
 Frequencies --    146.0913               193.4001               247.0103
 Red. masses --      2.3521                 1.3388                 3.1357
 Frc consts  --      0.0296                 0.0295                 0.1127
 IR Inten    --      2.8752                 1.2134                 5.4412

                      7                      8                      9
                      A                      A                      A
 Frequencies --    284.7319               325.8583               380.5454
 Red. masses --      2.1054                 1.6237                 3.1355
 Frc consts  --      0.1006                 0.1016                 0.2675
 IR Inten    --     41.6285                58.9657                 7.2641

                     10                     11                     12
                      A                      A                      A
 Frequencies --    419.0545               448.8766               496.5545
 Red. masses --      3.8558                 2.5992                 3.0212
 Frc consts  --      0.3989                 0.3086                 0.4389
 IR Inten    --     11.4280                 8.6062                 3.2059

                     13                     14                     15
                      A                      A                      A
 Frequencies --    609.6928               787.7650               837.5551
 Red. masses --      2.5546                 2.9968                 4.2626
 Frc consts  --      0.5595                 1.0957                 1.7618
 IR Inten    --     19.8267                 2.1099                10.9592

                     16                     17                     18
                      A                      A                      A
 Frequencies --    871.2273               896.7237               912.8527
 Red. masses --      1.8773                 2.0182                 2.5071
 Frc consts  --      0.8396                 0.9562                 1.2309
 IR Inten    --     35.0192                10.7674                59.3158

                     19                     20                     21
                      A                      A                      A
 Frequencies --    930.3695               978.1012              1023.8812
 Red. masses --      2.5143                 2.2978                 1.5299
 Frc consts  --      1.2823                 1.2952                 0.9450
 IR Inten    --     31.4854                 7.4006                 4.5990

                     22                     23                     24
                      A                      A                      A
 Frequencies --   1053.1348              1082.4249              1107.2573
 Red. masses --      1.4235                 2.4081                 1.2167
 Frc consts  --      0.9302                 1.6623                 0.8788
 IR Inten    --      7.0022                18.0123                10.2828

                     25                     26                     27
                      A                      A                      A
 Frequencies --   1119.2527              1137.1380              1141.2767
 Red. masses --      1.6119                 1.9313                 1.3513
 Frc consts  --      1.1897                 1.4714                 1.0370
 IR Inten    --     30.1158                17.9407                 9.2286

                     28                     29                     30
                      A                      A                      A
 Frequencies --   1171.0828              1183.6936              1189.1219
 Red. masses --      1.6179                 1.4112                 1.9824
 Frc consts  --      1.3073                 1.1650                 1.6516
 IR Inten    --     64.2340                 6.4870                21.1263

                     31                     32                     33
                      A                      A                      A
 Frequencies --   1200.1283              1221.8270              1262.3734
 Red. masses --      1.4347                 1.6388                 2.0754
 Frc consts  --      1.2175                 1.4415                 1.9486
 IR Inten    --     25.3576                37.7245               110.7444

                     34                     35                     36
                      A                      A                      A
 Frequencies --   1283.0071              1295.4639              1343.9262
 Red. masses --      1.6001                 1.2548                 1.1943
 Frc consts  --      1.5518                 1.2408                 1.2709
 IR Inten    --     28.8612                41.7858                24.6875

                     37                     38                     39
                      A                      A                      A
 Frequencies --   1359.2440              1421.4516              1450.7415
 Red. masses --      1.4336                 1.2526                 1.7932
 Frc consts  --      1.5605                 1.4912                 2.2236
 IR Inten    --     20.5272                18.9742                17.8901

                     40                     41                     42
                      A                      A                      A
 Frequencies --   1486.7272              1490.0742              1492.3999
 Red. masses --      1.0485                 1.4535                 1.7857
 Frc consts  --      1.3655                 1.9014                 2.3433
 IR Inten    --      4.5150                20.7747                 3.4286

                     43                     44                     45
                      A                      A                      A
 Frequencies --   1508.9915              2987.9699              3040.1872
 Red. masses --      1.0936                 1.0356                 1.1037
 Frc consts  --      1.4672                 5.4476                 6.0105
 IR Inten    --      5.6491                50.1411                47.3528

                     46                     47                     48
                      A                      A                      A
 Frequencies --   3077.7851              3105.6511              3115.8633
 Red. masses --      1.0880                 1.0874                 1.0861
 Frc consts  --      6.0725                 6.1792                 6.2127
 IR Inten    --     27.5266                24.3432                26.0064

                     49                     50                     51
                      A                      A                      A
 Frequencies --   3124.2276              3135.0751              3150.1306
 Red. masses --      1.0979                 1.0535                 1.0875
 Frc consts  --      6.3137                 6.1007                 6.3585
 IR Inten    --     26.8636                 8.6991                 9.1883

                     52                     53                     54
                      A                      A                      A
 Frequencies --   3231.4825              3511.2153              3801.5426
 Red. masses --      1.1173                 1.0749                 1.0661
 Frc consts  --      6.8743                 7.8079                 9.0779
 IR Inten    --      4.2934                 5.6250                18.5937

 - Thermochemistry -
 -------------------
 Temperature   298.150 Kelvin.  Pressure   1.00000 Atm.
 Atom     1 has atomic number  6 and mass  12.00000

 Molecular mass:   129.07898 amu.
 Principal axes and moments of inertia in atomic units:
                           1         2         3
     Eigenvalues --   385.932852482.856522577.24538
           X            0.99981   0.01937   0.00311
           Y           -0.01921   0.99876  -0.04603
           Z           -0.00400   0.04596   0.99894
 This molecule is an asymmetric top.
 Rotational symmetry number  1.
 Rotational temperatures (Kelvin)      0.22443     0.03488     0.03361
 Rotational constants (GHZ):           4.67631     0.72688     0.70026
 Zero-point vibrational energy     444585.1 (Joules/Mol)
                                  106.25839 (Kcal/Mol)
 Warning -- explicit consideration of  13 degrees of freedom as
           vibrations may cause significant error
 Vibrational temperatures:     73.49   136.49   159.29   210.19   278.26
          (Kelvin)            355.39   409.67   468.84   547.52   602.93
                              645.83   714.43   877.21  1133.42  1205.06
                             1253.50  1290.19  1313.39  1338.59  1407.27
                             1473.14  1515.23  1557.37  1593.10  1610.35
                             1636.09  1642.04  1684.93  1703.07  1710.88
                             1726.72  1757.94  1816.27  1845.96  1863.88
                             1933.61  1955.65  2045.15  2087.29  2139.07
                             2143.88  2147.23  2171.10  4299.02  4374.15
                             4428.25  4468.34  4483.03  4495.07  4510.67
                             4532.34  4649.38  5051.86  5469.57

 Zero-point correction=                           0.169334 (Hartree/Particle)
 Thermal correction to Energy=                    0.179023
 Thermal correction to Enthalpy=                  0.179967
 Thermal correction to Gibbs Free Energy=         0.134081
 Sum of electronic and zero-point Energies=           -440.222892
 Sum of electronic and thermal Energies=              -440.213202
 Sum of electronic and thermal Enthalpies=            -440.212258
 Sum of electronic and thermal Free Energies=         -440.258144

                     E (Thermal)             CV                S
                      KCal/Mol        Cal/Mol-Kelvin    Cal/Mol-Kelvin
 Total                  112.339             35.176             96.576
 Electronic               0.000              0.000              0.000
 Translational            0.889              2.981             40.479
 Rotational               0.889              2.981             29.292
 Vibrational            110.561             29.214             26.805
 Vibration     1          0.595              1.977              4.775
 Vibration     2          0.603              1.953              3.557
 Vibration     3          0.607              1.941              3.256
 Vibration     4          0.617              1.907              2.723
 Vibration     5          0.635              1.849              2.195
 Vibration     6          0.661              1.768              1.752
 Vibration     7          0.683              1.702              1.505
 Vibration     8          0.710              1.624              1.281
 Vibration     9          0.750              1.512              1.037
 Vibration    10          0.782              1.429              0.895
 Vibration    11          0.808              1.363              0.799
 Vibration    12          0.852              1.258              0.667
 Vibration    13          0.969              1.011              0.433

                           ! Non-Optimized Parameters !
 Normal termination of Gaussian 16 at Thu Aug  4 01:31:47 2022.
