 Gaussian 16, Revision A.03,
 Gaussian 16:  ES64L-G16RevA.03 25-Dec-2016

 -----------------------------
 # opt freq b3lyp/6-31g(2df,p)
 -----------------------------

 -------------------
 Title Card Required
 -------------------
 Symbolic Z-matrix:
 Charge =  0 Multiplicity = 1

 SCF Done:  E(RB3LYP) =  -424.372700494     A.U. after   13 cycles
 SCF Done:  E(RB3LYP) =  -424.395030670     A.U. after   11 cycles
 SCF Done:  E(RB3LYP) =  -424.402487794     A.U. after   11 cycles
 SCF Done:  E(RB3LYP) =  -424.406890627     A.U. after   11 cycles
 SCF Done:  E(RB3LYP) =  -424.409654951     A.U. after   11 cycles
 SCF Done:  E(RB3LYP) =  -424.410311912     A.U. after   11 cycles
 SCF Done:  E(RB3LYP) =  -424.410510505     A.U. after   10 cycles
 SCF Done:  E(RB3LYP) =  -424.410590544     A.U. after    9 cycles
 SCF Done:  E(RB3LYP) =  -424.410596550     A.U. after    8 cycles
 SCF Done:  E(RB3LYP) =  -424.410601223     A.U. after    8 cycles
 SCF Done:  E(RB3LYP) =  -424.410601720     A.U. after    7 cycles
 SCF Done:  E(RB3LYP) =  -424.410601957     A.U. after    7 cycles
 SCF Done:  E(RB3LYP) =  -424.410601997     A.U. after    6 cycles
 Optimization completed.
    -- Stationary point found.
 Normal termination of Gaussian 16 at Thu Aug  4 10:16:49 2022.

 ----------------------------------------------------------------------
 #N Geom=AllCheck Guess=TCheck SCRF=Check GenChk RB3LYP/6-31G(2df,p) Fr
 eq
 ----------------------------------------------------------------------

 Structure from the checkpoint file:  "COC12CCCCC1O2.chk"
 -------------------
 Title Card Required
 -------------------
 Charge =  0 Multiplicity = 1

                         Standard orientation:
 ---------------------------------------------------------------------
 Center     Atomic      Atomic             Coordinates (Angstroms)
 Number     Number       Type             X           Y           Z
 ---------------------------------------------------------------------
      1          6           0       -2.887333    0.259969    0.157383
      2          8           0       -1.832019   -0.197102   -0.677594
      3          6           0       -0.573803   -0.083946   -0.113266
      4          6           0       -0.036622    1.328370    0.085157
      5          6           0        1.469592    1.433664   -0.221848
      6          6           0        2.264449    0.245895    0.334669
      7          6           0        1.822561   -1.064146   -0.334765
      8          6           0        0.321366   -1.230785   -0.302753
      9          8           0       -0.316269   -0.979991    0.969471
     10          1           0       -3.818474    0.047225   -0.371278
     11          1           0       -2.826578    1.340929    0.343569
     12          1           0       -2.884658   -0.270055    1.117146
     13          1           0       -0.228925    1.626821    1.122408
     14          1           0       -0.597182    2.011780   -0.559977
     15          1           0        1.856050    2.376794    0.178165
     16          1           0        1.612308    1.475207   -1.309854
     17          1           0        2.109007    0.170123    1.416529
     18          1           0        3.336475    0.397767    0.173037
     19          1           0        2.295434   -1.928139    0.147563
     20          1           0        2.142445   -1.077425   -1.385642
     21          1           0       -0.090861   -2.088423   -0.834137
 ---------------------------------------------------------------------

 SCF Done:  E(RB3LYP) =  -424.410601997     A.U. after    1 cycles

 The electronic state is 1-A.
 Alpha  occ. eigenvalues --  -19.14581 -19.14085 -10.27439 -10.22851 -10.22350
 Alpha  occ. eigenvalues --  -10.18498 -10.18479 -10.18423 -10.18035  -1.08584
 Alpha  occ. eigenvalues --   -1.01588  -0.81018  -0.75086  -0.71299  -0.67373
 Alpha  occ. eigenvalues --   -0.62062  -0.59145  -0.53538  -0.51762  -0.47317
 Alpha  occ. eigenvalues --   -0.46390  -0.45299  -0.44124  -0.43202  -0.41475
 Alpha  occ. eigenvalues --   -0.39705  -0.37882  -0.37114  -0.35215  -0.33399
 Alpha  occ. eigenvalues --   -0.32446  -0.32285  -0.27762  -0.26597  -0.26161
 Alpha virt. eigenvalues --    0.08543   0.10512   0.10943   0.12188   0.13380
 Alpha virt. eigenvalues --    0.13753   0.14340   0.15773   0.16077   0.16471
 Alpha virt. eigenvalues --    0.17593   0.17715   0.19298   0.19435   0.20104

 Mulliken charges:
               1
     1  C   -0.266830
     2  O   -0.281526
     3  C    0.476114
     4  C   -0.272481
     5  C   -0.201637
     6  C   -0.201632
     7  C   -0.236119
     8  C   -0.002929
     9  O   -0.309604
    10  H    0.129063
    11  H    0.110100
    12  H    0.130358
    13  H    0.113026
    14  H    0.108723
    15  H    0.096083
    16  H    0.098781
    17  H    0.113178
    18  H    0.093349
    19  H    0.106444
    20  H    0.103534
    21  H    0.094005
 Sum of Mulliken charges =  -0.00000

 Dipole moment (field-independent basis, Debye):
    X=              0.5447    Y=              1.1100    Z=             -0.4381  Tot=              1.3118
 Quadrupole moment (field-independent basis, Debye-Ang):
   XX=            -50.3188   YY=            -53.4670   ZZ=            -56.7381
   XY=             -2.0784   XZ=             -1.7864   YZ=              1.9111

  Exact polarizability:  91.988  -3.949  77.280  -1.220   2.121  64.731
 Approx polarizability: 113.680  -6.147 108.391  -2.048   1.322 107.082

                      1                      2                      3
                      A                      A                      A
 Frequencies --     95.9238               121.8061               181.1726
 Red. masses --      2.7273                 2.0774                 2.3222
 Frc consts  --      0.0148                 0.0182                 0.0449
 IR Inten    --      4.6320                 0.0251                 1.5103

                      4                      5                      6
                      A                      A                      A
 Frequencies --    184.4740               283.7848               321.5063
 Red. masses --      1.2444                 2.3669                 2.2885
 Frc consts  --      0.0250                 0.1123                 0.1394
 IR Inten    --      1.4347                 3.4786                 0.6144

                      7                      8                      9
                      A                      A                      A
 Frequencies --    360.3490               399.8320               441.9254
 Red. masses --      3.7297                 3.0744                 5.0138
 Frc consts  --      0.2853                 0.2896                 0.5769
 IR Inten    --      0.9850                 1.2697                13.1613

                     10                     11                     12
                      A                      A                      A
 Frequencies --    464.6608               594.1690               650.5108
 Red. masses --      2.0590                 3.8657                 2.8911
 Frc consts  --      0.2619                 0.8041                 0.7208
 IR Inten    --      2.4904                 7.6569                 0.8614

                     13                     14                     15
                      A                      A                      A
 Frequencies --    687.5736               791.0915               835.7693
 Red. masses --      4.4644                 2.3671                 1.8768
 Frc consts  --      1.2435                 0.8728                 0.7724
 IR Inten    --      9.0752                17.5814                 8.6170

                     16                     17                     18
                      A                      A                      A
 Frequencies --    854.3463               894.2904               928.7733
 Red. masses --      2.5804                 1.9680                 2.2265
 Frc consts  --      1.1097                 0.9273                 1.1316
 IR Inten    --     14.2888                 6.6449                14.2665

                     19                     20                     21
                      A                      A                      A
 Frequencies --    944.2829               992.7071              1037.7428
 Red. masses --      2.7591                 2.2853                 2.7346
 Frc consts  --      1.4495                 1.3269                 1.7351
 IR Inten    --      5.5493                17.0956                18.3898

                     22                     23                     24
                      A                      A                      A
 Frequencies --   1043.1813              1082.7369              1085.6560
 Red. masses --      1.8271                 1.8379                 1.8100
 Frc consts  --      1.1715                 1.2695                 1.2570
 IR Inten    --      0.3120                 1.5755                14.8658

                     25                     26                     27
                      A                      A                      A
 Frequencies --   1141.8254              1177.9299              1179.6584
 Red. masses --      2.7999                 1.3805                 1.3651
 Frc consts  --      2.1507                 1.1286                 1.1193
 IR Inten    --    121.8317                 7.1499                 8.8467

                     28                     29                     30
                      A                      A                      A
 Frequencies --   1194.3622              1216.1151              1238.5240
 Red. masses --      1.4623                 1.5635                 1.8478
 Frc consts  --      1.2290                 1.3624                 1.6700
 IR Inten    --     29.9693                 7.0795                90.3309

                     31                     32                     33
                      A                      A                      A
 Frequencies --   1276.3858              1301.1052              1315.0119
 Red. masses --      1.2840                 1.2907                 1.3507
 Frc consts  --      1.2325                 1.2874                 1.3762
 IR Inten    --      5.1656                12.6349                 4.0170

                     34                     35                     36
                      A                      A                      A
 Frequencies --   1371.7083              1373.3035              1379.1781
 Red. masses --      1.6314                 1.3687                 1.4458
 Frc consts  --      1.8086                 1.5208                 1.6204
 IR Inten    --     12.3821                 7.6750                 3.6671

                     37                     38                     39
                      A                      A                      A
 Frequencies --   1392.6398              1458.5473              1472.2383
 Red. masses --      1.6219                 1.5938                 1.1083
 Frc consts  --      1.8533                 1.9976                 1.4153
 IR Inten    --      4.5074                10.7838                 0.4262

                     40                     41                     42
                      A                      A                      A
 Frequencies --   1477.4953              1487.8248              1492.0771
 Red. masses --      1.0892                 1.0971                 1.0617
 Frc consts  --      1.4009                 1.4309                 1.3927
 IR Inten    --      4.1850                 4.9486                 3.4622

                     43                     44                     45
                      A                      A                      A
 Frequencies --   1499.5059              1500.4087              1509.8967
 Red. masses --      1.2341                 1.5104                 1.1023
 Frc consts  --      1.6349                 2.0034                 1.4806
 IR Inten    --      3.1486                11.8892                 5.0889

                     46                     47                     48
                      A                      A                      A
 Frequencies --   3004.9241              3017.7915              3019.5098
 Red. masses --      1.0372                 1.0623                 1.0654
 Frc consts  --      5.5178                 5.6999                 5.7232
 IR Inten    --     43.5055                21.8766                28.7019

                     49                     50                     51
                      A                      A                      A
 Frequencies --   3035.0492              3040.9002              3058.1989
 Red. masses --      1.0626                 1.0643                 1.0965
 Frc consts  --      5.7669                 5.7983                 6.0419
 IR Inten    --     23.7949                14.3823                36.1648

                     52                     53                     54
                      A                      A                      A
 Frequencies --   3069.8722              3071.5609              3084.7750
 Red. masses --      1.1001                 1.0927                 1.1031
 Frc consts  --      6.1081                 6.0742                 6.1845
 IR Inten    --     28.3360                47.9890                20.3123

                     55                     56                     57
                      A                      A                      A
 Frequencies --   3089.4536              3115.1271              3128.4107
 Red. masses --      1.1035                 1.0884                 1.1005
 Frc consts  --      6.2059                 6.2229                 6.3457
 IR Inten    --     40.6110                28.1062                25.5775

 - Thermochemistry -
 -------------------
 Temperature   298.150 Kelvin.  Pressure   1.00000 Atm.
 Atom     1 has atomic number  6 and mass  12.00000

 Molecular mass:   128.08373 amu.
 Principal axes and moments of inertia in atomic units:
                           1         2         3
     Eigenvalues --   563.881091385.139161686.54675
           X            0.99987  -0.01135  -0.01119
           Y            0.01169   0.99946   0.03080
           Z            0.01084  -0.03093   0.99946
 This molecule is an asymmetric top.
 Rotational symmetry number  1.
 Warning -- assumption of classical behavior for rotation
           may cause significant error
 Rotational temperatures (Kelvin)      0.15360     0.06253     0.05136
 Rotational constants (GHZ):           3.20057     1.30293     1.07008
 Zero-point vibrational energy     481315.0 (Joules/Mol)
                                  115.03704 (Kcal/Mol)
 Warning -- explicit consideration of  11 degrees of freedom as
           vibrations may cause significant error
 Vibrational temperatures:    138.01   175.25   260.67   265.42   408.30
          (Kelvin)            462.58   518.46   575.27   635.83   668.54
                              854.88   935.94   989.27  1138.20  1202.49
                             1229.21  1286.68  1336.30  1358.61  1428.28
                             1493.08  1500.91  1557.82  1562.02  1642.83
                             1694.78  1697.27  1718.42  1749.72  1781.96
                             1836.43  1872.00  1892.01  1973.58  1975.88
                             1984.33  2003.70  2098.52  2118.22  2125.79
                             2140.65  2146.77  2157.45  2158.75  2172.40
                             4323.42  4341.93  4344.40  4366.76  4375.18
                             4400.07  4416.86  4419.29  4438.30  4445.03
                             4481.97  4501.09

 Zero-point correction=                           0.183323 (Hartree/Particle)
 Thermal correction to Energy=                    0.191930
 Thermal correction to Enthalpy=                  0.192874
 Thermal correction to Gibbs Free Energy=         0.150204
 Sum of electronic and zero-point Energies=           -424.227279
 Sum of electronic and thermal Energies=              -424.218672
 Sum of electronic and thermal Enthalpies=            -424.217728
 Sum of electronic and thermal Free Energies=         -424.260398

                     E (Thermal)             CV                S
                      KCal/Mol        Cal/Mol-Kelvin    Cal/Mol-Kelvin
 Total                  120.438             33.143             89.806
 Electronic               0.000              0.000              0.000
 Translational            0.889              2.981             40.456
 Rotational               0.889              2.981             28.667
 Vibrational            118.660             27.181             20.683
 Vibration     1          0.603              1.952              3.535
 Vibration     2          0.609              1.931              3.072
 Vibration     3          0.630              1.865              2.316
 Vibration     4          0.631              1.861              2.283
 Vibration     5          0.682              1.704              1.511
 Vibration     6          0.707              1.632              1.302
 Vibration     7          0.735              1.554              1.121
 Vibration     8          0.766              1.470              0.963
 Vibration     9          0.802              1.379              0.821
 Vibration    10          0.822              1.328              0.753
 Vibration    11          0.952              1.044              0.460

 Optimization completed.
    -- Stationary point found.
 Normal termination of Gaussian 16 at Thu Aug  4 10:50:10 2022.
