 Gaussian 16, Revision A.03,
 Gaussian 16:  ES64L-G16RevA.03 25-Dec-2016

 -----------------------------
 # opt freq b3lyp/6-31g(2df,p)
 -----------------------------

 -------------------
 Title Card Required
 -------------------
 Symbolic Z-matrix:
 Charge =  0 Multiplicity = 1

 SCF Done:  E(RB3LYP) =  -364.240019467     A.U. after   12 cycles
 SCF Done:  E(RB3LYP) =  -364.243169346     A.U. after   10 cycles
 SCF Done:  E(RB3LYP) =  -364.243621370     A.U. after    9 cycles
 SCF Done:  E(RB3LYP) =  -364.243731777     A.U. after    9 cycles
 SCF Done:  E(RB3LYP) =  -364.243774934     A.U. after    9 cycles
 SCF Done:  E(RB3LYP) =  -364.243789157     A.U. after    8 cycles
 SCF Done:  E(RB3LYP) =  -364.243797258     A.U. after    8 cycles
 SCF Done:  E(RB3LYP) =  -364.243797557     A.U. after    7 cycles
 Optimization completed.
    -- Stationary point found.
 Normal termination of Gaussian 16 at Thu Aug  4 05:50:00 2022.

 ----------------------------------------------------------------------
 #N Geom=AllCheck Guess=TCheck SCRF=Check GenChk RB3LYP/6-31G(2df,p) Fr
 eq
 ----------------------------------------------------------------------

 Structure from the checkpoint file:  "COCCpNpOC.chk"
 -------------------
 Title Card Required
 -------------------
 Charge =  0 Multiplicity = 1

                         Standard orientation:
 ---------------------------------------------------------------------
 Center     Atomic      Atomic             Coordinates (Angstroms)
 Number     Number       Type             X           Y           Z
 ---------------------------------------------------------------------
      1          6           0       -3.071724   -0.279139    0.016780
      2          8           0       -1.803759    0.227941   -0.322490
      3          6           0       -0.742574   -0.538123    0.202777
      4          6           0        0.566420    0.121728   -0.235460
      5          7           0        0.712959    1.512682    0.168113
      6          8           0        1.585664   -0.669404    0.320792
      7          6           0        2.876995   -0.384431   -0.183779
      8          1           0       -3.819646    0.378189   -0.433676
      9          1           0       -3.225236   -0.298569    1.107448
     10          1           0       -3.219141   -1.300896   -0.366771
     11          1           0       -0.781783   -1.576384   -0.162553
     12          1           0       -0.780329   -0.569621    1.305452
     13          1           0        0.614366    0.105084   -1.337486
     14          1           0        0.519582    1.590363    1.164698
     15          1           0        0.005664    2.065970   -0.307015
     16          1           0        3.576141   -1.034459    0.347513
     17          1           0        3.150352    0.663583   -0.021065
     18          1           0        2.939376   -0.600540   -1.261657
 ---------------------------------------------------------------------

 SCF Done:  E(RB3LYP) =  -364.243797557     A.U. after    1 cycles

 The electronic state is 1-A.
 Alpha  occ. eigenvalues --  -19.14360 -19.13515 -14.30591 -10.25059 -10.22686
 Alpha  occ. eigenvalues --  -10.22215 -10.21350  -1.04140  -1.02937  -0.87063
 Alpha  occ. eigenvalues --   -0.74292  -0.69028  -0.63749  -0.59217  -0.51425
 Alpha  occ. eigenvalues --   -0.48878  -0.48037  -0.46578  -0.45445  -0.42961
 Alpha  occ. eigenvalues --   -0.42419  -0.40810  -0.37923  -0.35795  -0.32377
 Alpha  occ. eigenvalues --   -0.31266  -0.26283  -0.25532  -0.24227
 Alpha virt. eigenvalues --    0.08582   0.10001   0.11806   0.12866   0.14097
 Alpha virt. eigenvalues --    0.14869   0.16129   0.16725   0.17181   0.18455
 Alpha virt. eigenvalues --    0.18963   0.19070   0.20142   0.22912   0.25398

 Mulliken charges:
               1
     1  C   -0.224046
     2  O   -0.238509
     3  C   -0.077838
     4  C    0.110696
     5  N   -0.502089
     6  O   -0.236862
     7  C   -0.232735
     8  H    0.126156
     9  H    0.104731
    10  H    0.106690
    11  H    0.092874
    12  H    0.086876
    13  H    0.073348
    14  H    0.223407
    15  H    0.237988
    16  H    0.120161
    17  H    0.129038
    18  H    0.100115
 Sum of Mulliken charges =   0.00000

 Dipole moment (field-independent basis, Debye):
    X=             -1.1683    Y=             -0.1685    Z=              0.1572  Tot=              1.1908
 Quadrupole moment (field-independent basis, Debye-Ang):
   XX=            -39.3367   YY=            -44.4123   ZZ=            -42.7864
   XY=             -0.3938   XZ=             -1.7092   YZ=              1.3122

  Exact polarizability:  75.679  -1.869  56.729  -0.054   0.800  53.406
 Approx polarizability:  85.041  -2.554  81.243   0.990  -1.090  79.923

                      1                      2                      3
                      A                      A                      A
 Frequencies --     76.8627               100.0417               126.5872
 Red. masses --      2.7270                 2.2699                 1.5670
 Frc consts  --      0.0095                 0.0134                 0.0148
 IR Inten    --      1.8733                 2.0325                 3.1808

                      4                      5                      6
                      A                      A                      A
 Frequencies --    149.9557               188.7856               235.2315
 Red. masses --      2.9872                 1.4526                 1.3141
 Frc consts  --      0.0396                 0.0305                 0.0428
 IR Inten    --      2.0149                 5.2352                 6.0354

                      7                      8                      9
                      A                      A                      A
 Frequencies --    241.0668               320.5204               349.7593
 Red. masses --      1.0886                 3.0221                 3.1783
 Frc consts  --      0.0373                 0.1829                 0.2291
 IR Inten    --     43.4062                 1.5761                 2.9002

                     10                     11                     12
                      A                      A                      A
 Frequencies --    408.2007               529.9048               570.6429
 Red. masses --      4.1683                 2.6761                 2.6215
 Frc consts  --      0.4092                 0.4427                 0.5030
 IR Inten    --      3.6962                 6.9658                 3.2457

                     13                     14                     15
                      A                      A                      A
 Frequencies --    885.1495               893.6403               970.8018
 Red. masses --      2.0211                 2.0822                 1.9876
 Frc consts  --      0.9330                 0.9797                 1.1036
 IR Inten    --    160.6270                32.1397                22.8769

                     16                     17                     18
                      A                      A                      A
 Frequencies --   1006.4083              1080.8978              1118.8243
 Red. masses --      2.8210                 2.6343                 2.5758
 Frc consts  --      1.6835                 1.8134                 1.8997
 IR Inten    --     14.6601                14.5969                34.7757

                     19                     20                     21
                      A                      A                      A
 Frequencies --   1159.8897              1172.0274              1181.9869
 Red. masses --      2.5847                 3.7503                 1.3056
 Frc consts  --      2.0488                 3.0352                 1.0747
 IR Inten    --    144.7281               125.3202                 5.9987

                     22                     23                     24
                      A                      A                      A
 Frequencies --   1186.0681              1211.9658              1224.2525
 Red. masses --      1.3511                 1.4374                 1.5368
 Frc consts  --      1.1199                 1.2440                 1.3571
 IR Inten    --     36.7820                31.1539                95.7308

                     25                     26                     27
                      A                      A                      A
 Frequencies --   1238.5176              1295.3465              1339.2098
 Red. masses --      1.6542                 1.5149                 1.2913
 Frc consts  --      1.4950                 1.4976                 1.3645
 IR Inten    --      4.4110                 7.0869                42.5059

                     28                     29                     30
                      A                      A                      A
 Frequencies --   1417.4120              1425.7178              1475.0359
 Red. masses --      1.4991                 1.1965                 1.1381
 Frc consts  --      1.7745                 1.4329                 1.4589
 IR Inten    --      0.8093                15.1269                 0.7542

                     31                     32                     33
                      A                      A                      A
 Frequencies --   1480.8597              1484.9903              1485.3011
 Red. masses --      1.1349                 1.0990                 1.0580
 Frc consts  --      1.4664                 1.4279                 1.3752
 IR Inten    --      5.4068                 1.7343                 8.2531

                     34                     35                     36
                      A                      A                      A
 Frequencies --   1502.6960              1517.1437              1523.9331
 Red. masses --      1.0627                 1.0563                 1.0887
 Frc consts  --      1.4138                 1.4325                 1.4897
 IR Inten    --     13.6957                 5.0463                 1.0317

                     37                     38                     39
                      A                      A                      A
 Frequencies --   1647.9443              2954.1778              2965.4962
 Red. masses --      1.1035                 1.0593                 1.0734
 Frc consts  --      1.7657                 5.4468                 5.5616
 IR Inten    --     26.4105                16.0497                41.9293

                     40                     41                     42
                      A                      A                      A
 Frequencies --   2973.6005              2987.0186              3004.4470
 Red. masses --      1.0429                 1.0475                 1.1019
 Frc consts  --      5.4331                 5.5067                 5.8606
 IR Inten    --     74.8215                65.0051                90.4737

                     43                     44                     45
                      A                      A                      A
 Frequencies --   3015.7159              3070.1860              3111.6874
 Red. masses --      1.1034                 1.0866                 1.0962
 Frc consts  --      5.9124                 6.0346                 6.2537
 IR Inten    --     43.2083                38.2291                30.4083

                     46                     47                     48
                      A                      A                      A
 Frequencies --   3121.6680              3476.4512              3567.6146
 Red. masses --      1.1027                 1.0510                 1.0893
 Frc consts  --      6.3309                 7.4840                 8.1688
 IR Inten    --     25.5329                 0.5399                 2.4051

 - Thermochemistry -
 -------------------
 Temperature   298.150 Kelvin.  Pressure   1.00000 Atm.
 Atom     1 has atomic number  6 and mass  12.00000

 Molecular mass:   105.07898 amu.
 Principal axes and moments of inertia in atomic units:
                           1         2         3
     Eigenvalues --   262.156061446.537351612.26352
           X            0.99990   0.00895  -0.01132
           Y           -0.00873   0.99977   0.01969
           Z            0.01150  -0.01959   0.99974
 This molecule is an asymmetric top.
 Rotational symmetry number  1.
 Rotational temperatures (Kelvin)      0.33039     0.05988     0.05372
 Rotational constants (GHZ):           6.88422     1.24763     1.11938
 Zero-point vibrational energy     415532.7 (Joules/Mol)
                                   99.31470 (Kcal/Mol)
 Warning -- explicit consideration of  12 degrees of freedom as
           vibrations may cause significant error
 Vibrational temperatures:    110.59   143.94   182.13   215.75   271.62
          (Kelvin)            338.45   346.84   461.16   503.23   587.31
                              762.41   821.03  1273.53  1285.75  1396.77
                             1448.00  1555.17  1609.74  1668.82  1686.29
                             1700.62  1706.49  1743.75  1761.43  1781.95
                             1863.71  1926.82  2039.34  2051.29  2122.25
                             2130.63  2136.57  2137.02  2162.04  2182.83
                             2192.60  2371.02  4250.40  4266.69  4278.35
                             4297.65  4322.73  4338.94  4417.31  4477.02
                             4491.38  5001.84  5133.00

 Zero-point correction=                           0.158268 (Hartree/Particle)
 Thermal correction to Energy=                    0.167398
 Thermal correction to Enthalpy=                  0.168342
 Thermal correction to Gibbs Free Energy=         0.124479
 Sum of electronic and zero-point Energies=           -364.085530
 Sum of electronic and thermal Energies=              -364.076399
 Sum of electronic and thermal Enthalpies=            -364.075455
 Sum of electronic and thermal Free Energies=         -364.119318

                     E (Thermal)             CV                S
                      KCal/Mol        Cal/Mol-Kelvin    Cal/Mol-Kelvin
 Total                  105.044             30.948             92.318
 Electronic               0.000              0.000              0.000
 Translational            0.889              2.981             39.866
 Rotational               0.889              2.981             27.905
 Vibrational            103.266             24.986             24.547
 Vibration     1          0.599              1.965              3.969
 Vibration     2          0.604              1.949              3.454
 Vibration     3          0.611              1.927              2.997
 Vibration     4          0.618              1.903              2.673
 Vibration     5          0.633              1.855              2.240
 Vibration     6          0.655              1.787              1.839
 Vibration     7          0.658              1.777              1.795
 Vibration     8          0.706              1.634              1.307
 Vibration     9          0.727              1.576              1.167
 Vibration    10          0.773              1.452              0.933
 Vibration    11          0.885              1.184              0.587
 Vibration    12          0.927              1.095              0.503

 Optimization completed.
    -- Stationary point found.
 Normal termination of Gaussian 16 at Thu Aug  4 06:07:37 2022.
