 Gaussian 16, Revision A.03,
 Gaussian 16:  ES64L-G16RevA.03 25-Dec-2016

 -----------------------------
 # opt freq b3lyp/6-31g(2df,p)
 -----------------------------

 -------------------
 Title Card Required
 -------------------
 Symbolic Z-matrix:
 Charge =  0 Multiplicity = 1

 SCF Done:  E(RB3LYP) =  -347.814608748     A.U. after   13 cycles
 SCF Done:  E(RB3LYP) =  -347.853551070     A.U. after   11 cycles
 SCF Done:  E(RB3LYP) =  -347.877162887     A.U. after   12 cycles
 SCF Done:  E(RB3LYP) =  -347.880657345     A.U. after   11 cycles
 SCF Done:  E(RB3LYP) =  -347.883493649     A.U. after   12 cycles
 SCF Done:  E(RB3LYP) =  -347.884472071     A.U. after   11 cycles
 SCF Done:  E(RB3LYP) =  -347.885028264     A.U. after   12 cycles
 SCF Done:  E(RB3LYP) =  -347.885447826     A.U. after   11 cycles
 SCF Done:  E(RB3LYP) =  -347.885468366     A.U. after   11 cycles
 SCF Done:  E(RB3LYP) =  -347.885508386     A.U. after    9 cycles
 SCF Done:  E(RB3LYP) =  -347.885513250     A.U. after    9 cycles
 SCF Done:  E(RB3LYP) =  -347.885514875     A.U. after    9 cycles
 Optimization completed.
    -- Stationary point found.
 Normal termination of Gaussian 16 at Thu Aug  4 03:10:57 2022.

 ----------------------------------------------------------------------
 #N Geom=AllCheck Guess=TCheck SCRF=Check GenChk RB3LYP/6-31G(2df,p) Fr
 eq
 ----------------------------------------------------------------------

 Structure from the checkpoint file:  "COCC1dCC2CC12.chk"
 -------------------
 Title Card Required
 -------------------
 Charge =  0 Multiplicity = 1

                         Standard orientation:
 ---------------------------------------------------------------------
 Center     Atomic      Atomic             Coordinates (Angstroms)
 Number     Number       Type             X           Y           Z
 ---------------------------------------------------------------------
      1          6           0       -3.283764   -0.285788   -0.012174
      2          8           0       -1.945843   -0.219657   -0.441160
      3          6           0       -1.105440    0.428856    0.496888
      4          6           0        0.293504    0.391581    0.000136
      5          6           0        1.292238    1.282656   -0.102020
      6          6           0        2.323474    0.224763   -0.461902
      7          6           0        2.357717   -0.839376    0.619340
      8          6           0        1.192447   -0.787806   -0.353486
      9          1           0       -3.850665   -0.806309   -0.787890
     10          1           0       -3.719017    0.716154    0.133296
     11          1           0       -3.383918   -0.840609    0.935001
     12          1           0       -1.176687   -0.085497    1.474036
     13          1           0       -1.426168    1.472243    0.656738
     14          1           0        1.387932    2.330154    0.161620
     15          1           0        3.067131    0.278796   -1.245953
     16          1           0        2.207143   -0.554697    1.657418
     17          1           0        3.066448   -1.652447    0.469440
     18          1           0        0.973497   -1.589847   -1.045119
 ---------------------------------------------------------------------

 SCF Done:  E(RB3LYP) =  -347.885514875     A.U. after    1 cycles

 The electronic state is 1-A.
 Alpha  occ. eigenvalues --  -19.13686 -10.22935 -10.22175 -10.19216 -10.18970
 Alpha  occ. eigenvalues --  -10.18763 -10.18618 -10.18108  -1.02964  -0.90055
 Alpha  occ. eigenvalues --   -0.75672  -0.70465  -0.64579  -0.60722  -0.57712
 Alpha  occ. eigenvalues --   -0.50876  -0.49837  -0.48046  -0.47404  -0.44992
 Alpha  occ. eigenvalues --   -0.43365  -0.40486  -0.39390  -0.34638  -0.33141
 Alpha  occ. eigenvalues --   -0.31578  -0.29887  -0.29766  -0.25340  -0.21358
 Alpha virt. eigenvalues --    0.00417   0.09344   0.11951   0.12838   0.13572
 Alpha virt. eigenvalues --    0.13684   0.14788   0.16093   0.16643   0.17067
 Alpha virt. eigenvalues --    0.17240   0.18025   0.18793   0.22153   0.23277

 Mulliken charges:
               1
     1  C   -0.218681
     2  O   -0.233505
     3  C   -0.202178
     4  C    0.330553
     5  C   -0.225979
     6  C   -0.069697
     7  C   -0.265997
     8  C   -0.140129
     9  H    0.126693
    10  H    0.102089
    11  H    0.101339
    12  H    0.092175
    13  H    0.092262
    14  H    0.095685
    15  H    0.095795
    16  H    0.109107
    17  H    0.108605
    18  H    0.101864
 Sum of Mulliken charges =  -0.00000

 Dipole moment (field-independent basis, Debye):
    X=             -0.2258    Y=              0.0751    Z=              0.9502  Tot=              0.9795
 Quadrupole moment (field-independent basis, Debye-Ang):
   XX=            -43.2480   YY=            -46.8744   ZZ=            -48.6643
   XY=             -0.9210   XZ=             -2.1283   YZ=              0.8262

  Exact polarizability:  95.311   0.928  72.389  -1.725  -0.018  58.798
 Approx polarizability: 123.268   9.115 112.847  -2.639  -1.270  90.500

                      1                      2                      3
                      A                      A                      A
 Frequencies --     65.3970                90.1545               123.1820
 Red. masses --      3.0024                 2.2925                 3.3306
 Frc consts  --      0.0076                 0.0110                 0.0298
 IR Inten    --      0.4395                 4.4444                 1.8900

                      4                      5                      6
                      A                      A                      A
 Frequencies --    222.8025               248.5081               346.3405
 Red. masses --      1.6424                 1.7378                 2.9816
 Frc consts  --      0.0480                 0.0632                 0.2107
 IR Inten    --      0.8214                 2.9238                 0.6730

                      7                      8                      9
                      A                      A                      A
 Frequencies --    398.7999               439.0415               568.8663
 Red. masses --      3.3423                 2.1440                 3.0162
 Frc consts  --      0.3132                 0.2435                 0.5751
 IR Inten    --      0.1613                 1.4575                 2.6413

                     10                     11                     12
                      A                      A                      A
 Frequencies --    726.7131               794.6071               803.9995
 Red. masses --      3.4115                 1.7894                 1.2994
 Frc consts  --      1.0615                 0.6657                 0.4949
 IR Inten    --      1.3707                27.6904                12.4630

                     13                     14                     15
                      A                      A                      A
 Frequencies --    840.4040               867.8542               911.0936
 Red. masses --      1.5588                 2.9402                 3.0788
 Frc consts  --      0.6486                 1.3047                 1.5058
 IR Inten    --     24.1611                 2.4522                 1.4831

                     16                     17                     18
                      A                      A                      A
 Frequencies --    950.4166               983.6436              1008.2349
 Red. masses --      1.8649                 4.0385                 1.7229
 Frc consts  --      0.9925                 2.3022                 1.0319
 IR Inten    --      3.8433                25.2703                 1.8012

                     19                     20                     21
                      A                      A                      A
 Frequencies --   1027.8325              1041.9953              1046.0199
 Red. masses --      1.5875                 1.4334                 1.3928
 Frc consts  --      0.9881                 0.9170                 0.8979
 IR Inten    --      9.3387                 0.0388                 8.3412

                     22                     23                     24
                      A                      A                      A
 Frequencies --   1091.2505              1143.6980              1167.1237
 Red. masses --      1.2883                 3.7781                 1.9198
 Frc consts  --      0.9039                 2.9117                 1.5408
 IR Inten    --      3.3777               136.0408                34.7156

                     25                     26                     27
                      A                      A                      A
 Frequencies --   1180.0416              1194.7280              1222.1763
 Red. masses --      1.3271                 1.4927                 1.5552
 Frc consts  --      1.0888                 1.2553                 1.3687
 IR Inten    --      4.6689                12.8665                36.5020

                     28                     29                     30
                      A                      A                      A
 Frequencies --   1238.6692              1248.2457              1290.0651
 Red. masses --      1.9423                 1.3754                 2.3976
 Frc consts  --      1.7558                 1.2626                 2.3510
 IR Inten    --      0.5595                10.2811                 2.3758

                     31                     32                     33
                      A                      A                      A
 Frequencies --   1315.1076              1400.5707              1475.8597
 Red. masses --      2.0827                 1.3892                 1.1962
 Frc consts  --      2.1223                 1.6055                 1.5351
 IR Inten    --      8.7498                59.6790                 1.0121

                     34                     35                     36
                      A                      A                      A
 Frequencies --   1476.7608              1484.5108              1494.9830
 Red. masses --      1.1553                 1.0499                 1.0742
 Frc consts  --      1.4844                 1.3632                 1.4146
 IR Inten    --      2.1895                 4.6390                 6.2950

                     37                     38                     39
                      A                      A                      A
 Frequencies --   1516.2347              1689.8785              2922.3251
 Red. masses --      1.0763                 7.8113                 1.0638
 Frc consts  --      1.4579                13.1427                 5.3527
 IR Inten    --      3.1112                 4.6856                37.9886

                     40                     41                     42
                      A                      A                      A
 Frequencies --   2963.4263              2973.8143              3006.1000
 Red. masses --      1.0443                 1.0854                 1.1028
 Frc consts  --      5.4033                 5.6556                 5.8717
 IR Inten    --     67.2595                62.8979                58.4367

                     43                     44                     45
                      A                      A                      A
 Frequencies --   3096.5152              3112.8216              3184.7022
 Red. masses --      1.0538                 1.0953                 1.1119
 Frc consts  --      5.9531                 6.2533                 6.6445
 IR Inten    --     35.3677                29.9407                 2.1980

                     46                     47                     48
                      A                      A                      A
 Frequencies --   3187.5546              3201.6379              3214.8463
 Red. masses --      1.0995                 1.0918                 1.0961
 Frc consts  --      6.5818                 6.5936                 6.6747
 IR Inten    --     26.6729                17.4544                12.0450

 - Thermochemistry -
 -------------------
 Temperature   298.150 Kelvin.  Pressure   1.00000 Atm.
 Atom     1 has atomic number  6 and mass  12.00000

 Molecular mass:   110.07317 amu.
 Principal axes and moments of inertia in atomic units:
                           1         2         3
     Eigenvalues --   292.439041676.425761793.11920
           X            0.99996  -0.00608  -0.00692
           Y            0.00624   0.99970   0.02376
           Z            0.00677  -0.02381   0.99969
 This molecule is an asymmetric top.
 Rotational symmetry number  1.
 Rotational temperatures (Kelvin)      0.29618     0.05167     0.04830
 Rotational constants (GHZ):           6.17134     1.07654     1.00648
 Zero-point vibrational energy     400746.3 (Joules/Mol)
                                   95.78067 (Kcal/Mol)
 Warning -- explicit consideration of   9 degrees of freedom as
           vibrations may cause significant error
 Vibrational temperatures:     94.09   129.71   177.23   320.56   357.55
          (Kelvin)            498.31   573.78   631.68   818.47  1045.58
                             1143.26  1156.78  1209.15  1248.65  1310.86
                             1367.44  1415.24  1450.63  1478.82  1499.20
                             1504.99  1570.07  1645.53  1679.23  1697.82
                             1718.95  1758.44  1782.17  1795.95  1856.12
                             1892.15  2015.11  2123.43  2124.73  2135.88
                             2150.95  2181.52  2431.36  4204.57  4263.71
                             4278.66  4325.11  4455.19  4478.66  4582.08
                             4586.18  4606.44  4625.45

 Zero-point correction=                           0.152636 (Hartree/Particle)
 Thermal correction to Energy=                    0.160715
 Thermal correction to Enthalpy=                  0.161659
 Thermal correction to Gibbs Free Energy=         0.119548
 Sum of electronic and zero-point Energies=           -347.732879
 Sum of electronic and thermal Energies=              -347.724800
 Sum of electronic and thermal Enthalpies=            -347.723856
 Sum of electronic and thermal Free Energies=         -347.765967

                     E (Thermal)             CV                S
                      KCal/Mol        Cal/Mol-Kelvin    Cal/Mol-Kelvin
 Total                  100.850             29.399             88.629
 Electronic               0.000              0.000              0.000
 Translational            0.889              2.981             40.004
 Rotational               0.889              2.981             28.266
 Vibrational             99.073             23.437             20.360
 Vibration     1          0.597              1.971              4.287
 Vibration     2          0.602              1.956              3.657
 Vibration     3          0.610              1.930              3.050
 Vibration     4          0.648              1.806              1.936
 Vibration     5          0.662              1.765              1.741
 Vibration     6          0.724              1.583              1.183
 Vibration     7          0.765              1.473              0.967
 Vibration     8          0.799              1.385              0.830
 Vibration     9          0.925              1.099              0.506

                           ! Non-Optimized Parameters !
 Normal termination of Gaussian 16 at Thu Aug  4 03:30:13 2022.
