 Gaussian 16, Revision A.03,
 Gaussian 16:  ES64L-G16RevA.03 25-Dec-2016

 -----------------------------
 # opt freq b3lyp/6-31g(2df,p)
 -----------------------------

 -------------------
 Title Card Required
 -------------------
 Symbolic Z-matrix:
 Charge =  0 Multiplicity = 1

 SCF Done:  E(RB3LYP) =  -502.047791848     A.U. after   12 cycles
 SCF Done:  E(RB3LYP) =  -502.051909720     A.U. after   11 cycles
 SCF Done:  E(RB3LYP) =  -502.053321925     A.U. after   10 cycles
 SCF Done:  E(RB3LYP) =  -502.054124465     A.U. after   10 cycles
 SCF Done:  E(RB3LYP) =  -502.054307643     A.U. after   10 cycles
 SCF Done:  E(RB3LYP) =  -502.054393102     A.U. after   10 cycles
 SCF Done:  E(RB3LYP) =  -502.054459833     A.U. after   10 cycles
 SCF Done:  E(RB3LYP) =  -502.054533117     A.U. after    9 cycles
 SCF Done:  E(RB3LYP) =  -502.054617796     A.U. after   10 cycles
 SCF Done:  E(RB3LYP) =  -502.054615616     A.U. after    8 cycles
 SCF Done:  E(RB3LYP) =  -502.054638622     A.U. after   10 cycles
 SCF Done:  E(RB3LYP) =  -502.054650470     A.U. after    8 cycles
 SCF Done:  E(RB3LYP) =  -502.054641016     A.U. after   10 cycles
 SCF Done:  E(RB3LYP) =  -502.054657301     A.U. after   10 cycles
 SCF Done:  E(RB3LYP) =  -502.054657762     A.U. after    8 cycles
 SCF Done:  E(RB3LYP) =  -502.054658557     A.U. after    9 cycles
 SCF Done:  E(RB3LYP) =  -502.054658971     A.U. after    8 cycles
 SCF Done:  E(RB3LYP) =  -502.054658985     A.U. after    6 cycles
 SCF Done:  E(RB3LYP) =  -502.054658989     A.U. after    6 cycles
 Optimization completed.
    -- Stationary point found.
 Normal termination of Gaussian 16 at Wed Aug  3 03:33:58 2022.

 ----------------------------------------------------------------------
 #N Geom=AllCheck Guess=TCheck SCRF=Check GenChk RB3LYP/6-31G(2df,p) Fr
 eq
 ----------------------------------------------------------------------

 Structure from the checkpoint file:  "COCCpCCOpCCO.chk"
 -------------------
 Title Card Required
 -------------------
 Charge =  0 Multiplicity = 1

                         Standard orientation:
 ---------------------------------------------------------------------
 Center     Atomic      Atomic             Coordinates (Angstroms)
 Number     Number       Type             X           Y           Z
 ---------------------------------------------------------------------
      1          6           0       -3.039899   -2.019107    0.014214
      2          8           0       -2.065342   -1.046855   -0.278879
      3          6           0       -0.777732   -1.402768    0.177697
      4          6           0        0.232362   -0.306194   -0.167119
      5          6           0       -0.157142    1.063376    0.433162
      6          6           0       -1.129720    1.888446   -0.416319
      7          8           0       -1.356358    3.180313    0.134151
      8          6           0        1.634191   -0.755636    0.294049
      9          6           0        2.780812   -0.035365   -0.420047
     10          8           0        4.057430   -0.485586    0.006145
     11          1           0       -3.992843   -1.659162   -0.380950
     12          1           0       -3.142113   -2.181510    1.099096
     13          1           0       -2.803241   -2.987258   -0.454732
     14          1           0       -0.466162   -2.355837   -0.282646
     15          1           0       -0.793870   -1.563765    1.271358
     16          1           0        0.246132   -0.216797   -1.263365
     17          1           0        0.738402    1.676584    0.584053
     18          1           0       -0.591352    0.905893    1.431534
     19          1           0       -2.065914    1.338911   -0.564881
     20          1           0       -0.691632    2.064806   -1.405694
     21          1           0       -1.857759    3.065162    0.947234
     22          1           0        1.765038   -1.831290    0.124849
     23          1           0        1.727696   -0.598211    1.378697
     24          1           0        2.687265    1.055687   -0.307720
     25          1           0        2.736978   -0.249733   -1.493785
     26          1           0        4.160301   -0.242979    0.931790
 ---------------------------------------------------------------------

 SCF Done:  E(RB3LYP) =  -502.054658989     A.U. after    1 cycles

 The electronic state is 1-A.
 Alpha  occ. eigenvalues --  -19.14546 -19.13265 -19.12453 -10.22967 -10.22873
 Alpha  occ. eigenvalues --  -10.22563 -10.21330 -10.19293 -10.18359 -10.17704
 Alpha  occ. eigenvalues --   -1.03834  -1.01357  -1.00450  -0.81641  -0.73564
 Alpha  occ. eigenvalues --   -0.72297  -0.66929  -0.62189  -0.61182  -0.57231
 Alpha  occ. eigenvalues --   -0.50754  -0.49738  -0.48934  -0.48167  -0.46218
 Alpha  occ. eigenvalues --   -0.45112  -0.43549  -0.41865  -0.41180  -0.39632
 Alpha  occ. eigenvalues --   -0.38609  -0.36841  -0.35135  -0.34243  -0.33254
 Alpha  occ. eigenvalues --   -0.32990  -0.31777  -0.30258  -0.26476  -0.26030
 Alpha  occ. eigenvalues --   -0.25552
 Alpha virt. eigenvalues --    0.07508   0.07892   0.08483   0.09895   0.10957
 Alpha virt. eigenvalues --    0.11816   0.13612   0.14668   0.15210   0.15335
 Alpha virt. eigenvalues --    0.16299   0.16768   0.16940   0.18238   0.19874

 Mulliken charges:
               1
     1  C   -0.230713
     2  O   -0.230724
     3  C   -0.060303
     4  C   -0.020808
     5  C   -0.197762
     6  C   -0.073245
     7  O   -0.421176
     8  C   -0.218636
     9  C   -0.067807
    10  O   -0.417343
    11  H    0.128408
    12  H    0.103753
    13  H    0.106313
    14  H    0.086207
    15  H    0.081347
    16  H    0.081083
    17  H    0.100397
    18  H    0.081270
    19  H    0.112936
    20  H    0.103576
    21  H    0.278083
    22  H    0.102071
    23  H    0.085456
    24  H    0.094542
    25  H    0.112710
    26  H    0.280366
 Sum of Mulliken charges =   0.00000

 Dipole moment (field-independent basis, Debye):
    X=             -1.3375    Y=             -1.7491    Z=              2.0470  Tot=              3.0064
 Quadrupole moment (field-independent basis, Debye-Ang):
   XX=            -65.9628   YY=            -68.5640   ZZ=            -59.0808
   XY=              5.7322   XZ=              1.5433   YZ=              2.2091

  Exact polarizability: 102.874   0.977  90.212   0.070   0.623  78.669
 Approx polarizability: 124.480  -1.285 121.306  -0.359   1.158 122.208

                      1                      2                      3
                      A                      A                      A
 Frequencies --     38.6727                69.7070                73.0516
 Red. masses --      1.9409                 3.6105                 3.4169
 Frc consts  --      0.0017                 0.0103                 0.0107
 IR Inten    --      3.7708                 0.7374                 0.7835

                      4                      5                      6
                      A                      A                      A
 Frequencies --     81.3525                92.7517               125.9068
 Red. masses --      2.0495                 2.2239                 3.3071
 Frc consts  --      0.0080                 0.0113                 0.0309
 IR Inten    --      2.6888                 3.6473                 0.9452

                      7                      8                      9
                      A                      A                      A
 Frequencies --    135.1897               209.0688               232.6569
 Red. masses --      2.4581                 2.5073                 1.5064
 Frc consts  --      0.0265                 0.0646                 0.0480
 IR Inten    --      2.0821                 4.2635                 2.8049

                     10                     11                     12
                      A                      A                      A
 Frequencies --    251.1337               290.4668               295.4848
 Red. masses --      2.3998                 1.2586                 1.1795
 Frc consts  --      0.0892                 0.0626                 0.0607
 IR Inten    --      6.1333                61.3020               119.6691

                     13                     14                     15
                      A                      A                      A
 Frequencies --    317.9048               331.6728               340.8356
 Red. masses --      3.4019                 3.6344                 3.3179
 Frc consts  --      0.2026                 0.2356                 0.2271
 IR Inten    --     18.8074                 8.8932                 1.9402

                     16                     17                     18
                      A                      A                      A
 Frequencies --    469.8452               494.3062               576.9053
 Red. masses --      2.9505                 2.5472                 2.9862
 Frc consts  --      0.3838                 0.3667                 0.5856
 IR Inten    --      7.3910                 1.5346                 4.1813

                     19                     20                     21
                      A                      A                      A
 Frequencies --    776.2895               781.9895               908.6512
 Red. masses --      1.1714                 1.1755                 2.3353
 Frc consts  --      0.4159                 0.4235                 1.1360
 IR Inten    --      4.7493                 5.3254                 0.2356

                     22                     23                     24
                      A                      A                      A
 Frequencies --    955.7030               986.5502               988.2608
 Red. masses --      2.1188                 2.0563                 1.7991
 Frc consts  --      1.1402                 1.1791                 1.0353
 IR Inten    --     14.7499                27.3098                26.9956

                     25                     26                     27
                      A                      A                      A
 Frequencies --   1021.0812              1031.4268              1069.4177
 Red. masses --      3.6341                 3.5541                 4.1162
 Frc consts  --      2.2324                 2.2277                 2.7736
 IR Inten    --      7.7639                22.8582               114.4170

                     28                     29                     30
                      A                      A                      A
 Frequencies --   1078.5367              1091.3920              1117.9341
 Red. masses --      3.5577                 1.9077                 1.7137
 Frc consts  --      2.4383                 1.3388                 1.2619
 IR Inten    --    101.5613                 2.3520                 0.3693

                     31                     32                     33
                      A                      A                      A
 Frequencies --   1133.0961              1159.3652              1169.7335
 Red. masses --      2.0732                 2.5493                 1.8769
 Frc consts  --      1.5683                 2.0189                 1.5131
 IR Inten    --     18.5934               103.4097                67.3311

                     34                     35                     36
                      A                      A                      A
 Frequencies --   1181.1241              1211.2440              1227.5643
 Red. masses --      1.2569                 1.4667                 1.6038
 Frc consts  --      1.0331                 1.2678                 1.4239
 IR Inten    --      1.3475                 5.8743                33.7844

                     37                     38                     39
                      A                      A                      A
 Frequencies --   1271.9035              1282.1074              1299.2064
 Red. masses --      1.2517                 1.1959                 1.2477
 Frc consts  --      1.1930                 1.1583                 1.2409
 IR Inten    --      3.3645                 0.7403                 5.8485

                     40                     41                     42
                      A                      A                      A
 Frequencies --   1319.0314              1327.4627              1353.7174
 Red. masses --      1.1710                 1.1812                 1.3434
 Frc consts  --      1.2004                 1.2264                 1.4504
 IR Inten    --      6.9046                 0.2034                 2.2178

                     43                     44                     45
                      A                      A                      A
 Frequencies --   1379.4648              1401.8506              1404.0897
 Red. masses --      1.3053                 1.3087                 1.2900
 Frc consts  --      1.4634                 1.5152                 1.4984
 IR Inten    --     13.2797                14.7934                15.9050

                     46                     47                     48
                      A                      A                      A
 Frequencies --   1416.7265              1422.6210              1426.0170
 Red. masses --      1.2623                 1.3310                 1.3282
 Frc consts  --      1.4927                 1.5871                 1.5913
 IR Inten    --     23.7114                29.6223                40.8256

                     49                     50                     51
                      A                      A                      A
 Frequencies --   1478.7614              1485.3087              1486.9428
 Red. masses --      1.1328                 1.0468                 1.0914
 Frc consts  --      1.4594                 1.3606                 1.4218
 IR Inten    --      2.1451                 4.9079                 1.6443

                     52                     53                     54
                      A                      A                      A
 Frequencies --   1487.8850              1503.1388              1513.3028
 Red. masses --      1.0973                 1.0638                 1.0920
 Frc consts  --      1.4313                 1.4161                 1.4734
 IR Inten    --      1.8708                 9.1476                 0.7856

                     55                     56                     57
                      A                      A                      A
 Frequencies --   1518.0164              1526.9153              2934.6949
 Red. masses --      1.0924                 1.0919                 1.0577
 Frc consts  --      1.4832                 1.5000                 5.3671
 IR Inten    --      0.6261                 0.9768                33.7592

                     58                     59                     60
                      A                      A                      A
 Frequencies --   2967.6814              2971.6689              2986.1673
 Red. masses --      1.0787                 1.0551                 1.0684
 Frc consts  --      5.5972                 5.4898                 5.6132
 IR Inten    --     44.1081                74.2971                45.8832

                     61                     62                     63
                      A                      A                      A
 Frequencies --   2997.0834              2999.9356              3011.0682
 Red. masses --      1.0753                 1.0659                 1.0737
 Frc consts  --      5.6909                 5.6516                 5.7354
 IR Inten    --      1.4145                11.1343                67.7083

                     64                     65                     66
                      A                      A                      A
 Frequencies --   3013.7686              3035.5677              3050.1511
 Red. masses --      1.1030                 1.0580                 1.0908
 Frc consts  --      5.9029                 5.7438                 5.9792
 IR Inten    --     49.7425                46.4208                17.4231

                     67                     68                     69
                      A                      A                      A
 Frequencies --   3055.7963              3072.7618              3085.6378
 Red. masses --      1.0939                 1.0996                 1.1072
 Frc consts  --      6.0185                 6.1169                 6.2112
 IR Inten    --      8.2912                63.3491                51.8914

                     70                     71                     72
                      A                      A                      A
 Frequencies --   3114.5501              3816.0748              3818.4348
 Red. masses --      1.0960                 1.0661                 1.0662
 Frc consts  --      6.2639                 9.1473                 9.1590
 IR Inten    --     27.0097                16.0938                14.8011

 - Thermochemistry -
 -------------------
 Temperature   298.150 Kelvin.  Pressure   1.00000 Atm.
 Atom     1 has atomic number  6 and mass  12.00000

 Molecular mass:   148.10994 amu.
 Principal axes and moments of inertia in atomic units:
                           1         2         3
     Eigenvalues --  1406.046592601.238383826.01184
           X            0.99938   0.03520  -0.00056
           Y           -0.03520   0.99937  -0.00350
           Z            0.00044   0.00351   0.99999
 This molecule is an asymmetric top.
 Rotational symmetry number  1.
 Warning -- assumption of classical behavior for rotation
           may cause significant error
 Rotational temperatures (Kelvin)      0.06160     0.03330     0.02264
 Rotational constants (GHZ):           1.28356     0.69380     0.47170
 Zero-point vibrational energy     607414.6 (Joules/Mol)
                                  145.17557 (Kcal/Mol)
 Warning -- explicit consideration of  18 degrees of freedom as
           vibrations may cause significant error
 Vibrational temperatures:     55.64   100.29   105.10   117.05   133.45
          (Kelvin)            181.15   194.51   300.80   334.74   361.33
                              417.92   425.14   457.39   477.20   490.39
                              676.00   711.20   830.04  1116.91  1125.11
                             1307.35  1375.04  1419.43  1421.89  1469.11
                             1483.99  1538.65  1551.77  1570.27  1608.46
                             1630.27  1668.07  1682.99  1699.37  1742.71
                             1766.19  1829.99  1844.67  1869.27  1897.79
                             1909.92  1947.70  1984.74  2016.95  2020.17
                             2038.35  2046.83  2051.72  2127.61  2137.03
                             2139.38  2140.73  2162.68  2177.31  2184.09
                             2196.89  4222.37  4269.83  4275.57  4296.43
                             4312.13  4316.24  4332.26  4336.14  4367.50
                             4388.49  4396.61  4421.02  4439.54  4481.14
                             5490.48  5493.88

 Zero-point correction=                           0.231352 (Hartree/Particle)
 Thermal correction to Energy=                    0.244473
 Thermal correction to Enthalpy=                  0.245417
 Thermal correction to Gibbs Free Energy=         0.190786
 Sum of electronic and zero-point Energies=           -501.823307
 Sum of electronic and thermal Energies=              -501.810186
 Sum of electronic and thermal Enthalpies=            -501.809242
 Sum of electronic and thermal Free Energies=         -501.863873

                     E (Thermal)             CV                S
                      KCal/Mol        Cal/Mol-Kelvin    Cal/Mol-Kelvin
 Total                  153.409             45.227            114.980
 Electronic               0.000              0.000              0.000
 Translational            0.889              2.981             40.889
 Rotational               0.889              2.981             31.015
 Vibrational            151.632             39.265             43.075
 Vibration     1          0.594              1.981              5.326
 Vibration     2          0.598              1.969              4.162
 Vibration     3          0.599              1.967              4.069
 Vibration     4          0.600              1.962              3.858
 Vibration     5          0.602              1.954              3.601
 Vibration     6          0.611              1.927              3.008
 Vibration     7          0.613              1.918              2.871
 Vibration     8          0.642              1.827              2.052
 Vibration     9          0.653              1.791              1.858
 Vibration    10          0.663              1.761              1.723
 Vibration    11          0.686              1.691              1.471
 Vibration    12          0.690              1.682              1.442
 Vibration    13          0.704              1.639              1.321
 Vibration    14          0.714              1.612              1.252
 Vibration    15          0.720              1.594              1.208
 Vibration    16          0.827              1.317              0.738
 Vibration    17          0.850              1.263              0.673
 Vibration    18          0.933              1.081              0.491

 Optimization completed.
    -- Stationary point found.
 Normal termination of Gaussian 16 at Wed Aug  3 04:26:16 2022.
