 Gaussian 16, Revision A.03,
 Gaussian 16:  ES64L-G16RevA.03 25-Dec-2016

 -----------------------------
 # opt freq b3lyp/6-31g(2df,p)
 -----------------------------

 -------------------
 Title Card Required
 -------------------
 Symbolic Z-matrix:
 Charge =  0 Multiplicity = 1

 SCF Done:  E(RB3LYP) =  -311.061449928     A.U. after   12 cycles
 SCF Done:  E(RB3LYP) =  -311.065087374     A.U. after   11 cycles
 SCF Done:  E(RB3LYP) =  -311.066655298     A.U. after   10 cycles
 SCF Done:  E(RB3LYP) =  -311.068609318     A.U. after   13 cycles
 SCF Done:  E(RB3LYP) =  -311.069318364     A.U. after   10 cycles
 SCF Done:  E(RB3LYP) =  -311.069536961     A.U. after   10 cycles
 SCF Done:  E(RB3LYP) =  -311.069597796     A.U. after   10 cycles
 SCF Done:  E(RB3LYP) =  -311.069606667     A.U. after    8 cycles
 SCF Done:  E(RB3LYP) =  -311.069611316     A.U. after    8 cycles
 SCF Done:  E(RB3LYP) =  -311.069611905     A.U. after    7 cycles
 SCF Done:  E(RB3LYP) =  -311.069611941     A.U. after    5 cycles
 Optimization completed.
    -- Stationary point found.
 Normal termination of Gaussian 16 at Thu Aug  4 07:39:03 2022.

 ----------------------------------------------------------------------
 #N Geom=AllCheck Guess=TCheck SCRF=Check GenChk RB3LYP/6-31G(2df,p) Fr
 eq
 ----------------------------------------------------------------------

 Structure from the checkpoint file:  "COCC1pCpCC1.chk"
 -------------------
 Title Card Required
 -------------------
 Charge =  0 Multiplicity = 1

                         Standard orientation:
 ---------------------------------------------------------------------
 Center     Atomic      Atomic             Coordinates (Angstroms)
 Number     Number       Type             X           Y           Z
 ---------------------------------------------------------------------
      1          6           0       -2.796593    0.106435   -0.000023
      2          8           0       -1.463411   -0.339737    0.000029
      3          6           0       -0.527446    0.715523    0.000016
      4          6           0        0.887568    0.170450   -0.000025
      5          6           0        1.939850    1.260865   -0.000009
      6          6           0        1.165869   -1.103551    0.756764
      7          6           0        1.165861   -1.103567   -0.756751
      8          1           0       -3.438624   -0.777854    0.000183
      9          1           0       -3.025180    0.711936   -0.891589
     10          1           0       -3.025140    0.712287    0.891318
     11          1           0       -0.680243    1.357097    0.887263
     12          1           0       -0.680302    1.357129   -0.887192
     13          1           0        1.852750    1.902161    0.885661
     14          1           0        1.852307    1.902586   -0.885331
     15          1           0        2.946243    0.831913   -0.000379
     16          1           0        0.331124   -1.587663    1.249108
     17          1           0        2.116304   -1.190416    1.273161
     18          1           0        0.331117   -1.587691   -1.249089
     19          1           0        2.116274   -1.190514   -1.273181
 ---------------------------------------------------------------------

 SCF Done:  E(RB3LYP) =  -311.069611941     A.U. after    1 cycles

 The electronic state is 1-A.
 Alpha  occ. eigenvalues --  -19.13987 -10.22403 -10.22396 -10.18960 -10.17470
 Alpha  occ. eigenvalues --  -10.17087 -10.17063  -1.03357  -0.85395  -0.72608
 Alpha  occ. eigenvalues --   -0.70343  -0.63858  -0.58950  -0.53553  -0.49000
 Alpha  occ. eigenvalues --   -0.48157  -0.47137  -0.43926  -0.41556  -0.41457
 Alpha  occ. eigenvalues --   -0.38606  -0.38326  -0.34910  -0.33717  -0.32157
 Alpha  occ. eigenvalues --   -0.27746  -0.26929  -0.24981
 Alpha virt. eigenvalues --    0.08964   0.10562   0.12444   0.13024   0.13141
 Alpha virt. eigenvalues --    0.14413   0.15940   0.16683   0.17173   0.17678
 Alpha virt. eigenvalues --    0.19797   0.20033   0.20194   0.21769   0.23967

 Mulliken charges:
               1
     1  C   -0.223748
     2  O   -0.233829
     3  C   -0.111372
     4  C    0.330536
     5  C   -0.463553
     6  C   -0.291259
     7  C   -0.291269
     8  H    0.126542
     9  H    0.103787
    10  H    0.103785
    11  H    0.081873
    12  H    0.081870
    13  H    0.113260
    14  H    0.113255
    15  H    0.115979
    16  H    0.121656
    17  H    0.100417
    18  H    0.121653
    19  H    0.100417
 Sum of Mulliken charges =  -0.00000

 Dipole moment (field-independent basis, Debye):
    X=             -0.4662    Y=              1.0273    Z=             -0.0000  Tot=              1.1281
 Quadrupole moment (field-independent basis, Debye-Ang):
   XX=            -40.3592   YY=            -45.3849   ZZ=            -44.7668
   XY=             -0.5161   XZ=             -0.0001   YZ=              0.0001

  Exact polarizability:  77.364  -0.069  67.090   0.000   0.000  61.185
 Approx polarizability:  94.068  -0.942  95.359   0.000   0.000  91.364

                      1                      2                      3
                      A                      A                      A
 Frequencies --     85.2364               114.5485               176.7729
 Red. masses --      2.5807                 1.9412                 3.0501
 Frc consts  --      0.0110                 0.0150                 0.0562
 IR Inten    --      2.9879                 0.3127                 1.1110

                      4                      5                      6
                      A                      A                      A
 Frequencies --    215.6184               235.2183               313.1828
 Red. masses --      1.0487                 1.2620                 2.7637
 Frc consts  --      0.0287                 0.0411                 0.1597
 IR Inten    --      0.0071                 2.3495                 0.1570

                      7                      8                      9
                      A                      A                      A
 Frequencies --    325.9215               380.9576               391.4234
 Red. masses --      1.7867                 2.9990                 2.1913
 Frc consts  --      0.1118                 0.2564                 0.1978
 IR Inten    --      0.0081                 2.5043                 0.3583

                     10                     11                     12
                      A                      A                      A
 Frequencies --    487.2884               722.2646               793.7116
 Red. masses --      3.1999                 3.2783                 1.0264
 Frc consts  --      0.4477                 1.0076                 0.3810
 IR Inten    --      1.6896                 1.7755                 0.4261

                     13                     14                     15
                      A                      A                      A
 Frequencies --    861.4164               898.6988               947.7788
 Red. masses --      3.0521                 1.1684                 1.8543
 Frc consts  --      1.3344                 0.5560                 0.9814
 IR Inten    --      6.3483                 0.1758                 4.1704

                     16                     17                     18
                      A                      A                      A
 Frequencies --    957.7568              1002.3899              1046.7895
 Red. masses --      1.7210                 3.6544                 1.3496
 Frc consts  --      0.9301                 2.1634                 0.8713
 IR Inten    --     12.5993                 7.1426                13.4566

                     19                     20                     21
                      A                      A                      A
 Frequencies --   1062.5139              1068.3329              1084.8193
 Red. masses --      1.3667                 1.9701                 1.4008
 Frc consts  --      0.9091                 1.3248                 0.9713
 IR Inten    --      1.1409                 0.1461                 0.2194

                     22                     23                     24
                      A                      A                      A
 Frequencies --   1143.7177              1163.8414              1188.7470
 Red. masses --      1.8015                 4.6721                 1.3326
 Frc consts  --      1.3885                 3.7286                 1.1095
 IR Inten    --      0.8229               149.0011                 2.0547

                     25                     26                     27
                      A                      A                      A
 Frequencies --   1195.4936              1224.9540              1276.1983
 Red. masses --      1.2921                 1.7668                 1.1166
 Frc consts  --      1.0880                 1.5620                 1.0715
 IR Inten    --      0.0872                52.9767                 6.1290

                     28                     29                     30
                      A                      A                      A
 Frequencies --   1294.1900              1361.2827              1418.1338
 Red. masses --      2.2530                 2.3900                 1.3214
 Frc consts  --      2.2233                 2.6095                 1.5657
 IR Inten    --      6.4840                 0.1773                 1.4734

                     31                     32                     33
                      A                      A                      A
 Frequencies --   1427.5664              1455.9830              1478.9180
 Red. masses --      1.4487                 1.0873                 1.1734
 Frc consts  --      1.7395                 1.3581                 1.5121
 IR Inten    --     21.3294                 3.0733                 3.6654

                     34                     35                     36
                      A                      A                      A
 Frequencies --   1485.0830              1490.8919              1496.0413
 Red. masses --      1.0467                 1.0451                 1.1315
 Frc consts  --      1.3600                 1.3687                 1.4920
 IR Inten    --      4.9254                 2.5796                12.2154

                     37                     38                     39
                      A                      A                      A
 Frequencies --   1501.3916              1512.4918              1527.3076
 Red. masses --      1.0800                 1.3050                 1.0915
 Frc consts  --      1.4343                 1.7589                 1.5001
 IR Inten    --      6.0618                 3.0648                 0.6552

                     40                     41                     42
                      A                      A                      A
 Frequencies --   2927.7670              2950.7960              2969.1110
 Red. masses --      1.0528                 1.1049                 1.0374
 Frc consts  --      5.3172                 5.6680                 5.3884
 IR Inten    --     51.4114                64.9563                79.5186

                     43                     44                     45
                      A                      A                      A
 Frequencies --   3011.6516              3017.8725              3073.6802
 Red. masses --      1.1030                 1.0367                 1.1006
 Frc consts  --      5.8944                 5.5631                 6.1265
 IR Inten    --     56.7907                39.8055                30.6290

                     46                     47                     48
                      A                      A                      A
 Frequencies --   3101.3639              3112.3352              3131.8619
 Red. masses --      1.0993                 1.0958                 1.0516
 Frc consts  --      6.2296                 6.2541                 6.0773
 IR Inten    --     22.1527                28.5753                20.1698

                     49                     50                     51
                      A                      A                      A
 Frequencies --   3135.7207              3219.4325              3232.1990
 Red. masses --      1.0588                 1.1160                 1.1148
 Frc consts  --      6.1339                 6.8150                 6.8617
 IR Inten    --     14.6279                 0.0001                14.3511

 - Thermochemistry -
 -------------------
 Temperature   298.150 Kelvin.  Pressure   1.00000 Atm.
 Atom     1 has atomic number  6 and mass  12.00000

 Molecular mass:   100.08882 amu.
 Principal axes and moments of inertia in atomic units:
                           1         2         3
     Eigenvalues --   367.537321070.626671260.14264
           X            1.00000  -0.00026   0.00000
           Y            0.00026   1.00000   0.00000
           Z           -0.00000  -0.00000   1.00000
 This molecule is an asymmetric top.
 Rotational symmetry number  1.
 Rotational temperatures (Kelvin)      0.23566     0.08090     0.06873
 Rotational constants (GHZ):           4.91036     1.68569     1.43217
 Zero-point vibrational energy     446797.2 (Joules/Mol)
                                  106.78710 (Kcal/Mol)
 Warning -- explicit consideration of  10 degrees of freedom as
           vibrations may cause significant error
 Vibrational temperatures:    122.64   164.81   254.34   310.23   338.43
          (Kelvin)            450.60   468.93   548.11   563.17   701.10
                             1039.18  1141.97  1239.39  1293.03  1363.64
                             1378.00  1442.22  1506.10  1528.72  1537.09
                             1560.81  1645.55  1674.51  1710.34  1720.05
                             1762.44  1836.16  1862.05  1958.58  2040.38
                             2053.95  2094.83  2127.83  2136.70  2145.06
                             2152.47  2160.17  2176.14  2197.46  4212.40
                             4245.54  4271.89  4333.09  4342.05  4422.34
                             4462.17  4477.96  4506.05  4511.60  4632.05
                             4650.41

 Zero-point correction=                           0.170176 (Hartree/Particle)
 Thermal correction to Energy=                    0.178511
 Thermal correction to Enthalpy=                  0.179455
 Thermal correction to Gibbs Free Energy=         0.137761
 Sum of electronic and zero-point Energies=           -310.899436
 Sum of electronic and thermal Energies=              -310.891101
 Sum of electronic and thermal Enthalpies=            -310.890157
 Sum of electronic and thermal Free Energies=         -310.931851

                     E (Thermal)             CV                S
                      KCal/Mol        Cal/Mol-Kelvin    Cal/Mol-Kelvin
 Total                  112.017             30.198             87.752
 Electronic               0.000              0.000              0.000
 Translational            0.889              2.981             39.721
 Rotational               0.889              2.981             27.697
 Vibrational            110.240             24.236             20.334
 Vibration     1          0.601              1.959              3.767
 Vibration     2          0.607              1.937              3.190
 Vibration     3          0.628              1.871              2.362
 Vibration     4          0.645              1.817              1.996
 Vibration     5          0.655              1.787              1.839
 Vibration     6          0.701              1.649              1.345
 Vibration     7          0.710              1.624              1.280
 Vibration     8          0.751              1.511              1.035
 Vibration     9          0.759              1.489              0.995
 Vibration    10          0.843              1.278              0.691

 Optimization completed.
    -- Stationary point found.
 Normal termination of Gaussian 16 at Thu Aug  4 08:00:00 2022.
