 Gaussian 16, Revision A.03,
 Gaussian 16:  ES64L-G16RevA.03 25-Dec-2016

 -----------------------------
 # opt freq b3lyp/6-31g(2df,p)
 -----------------------------

 -------------------
 Title Card Required
 -------------------
 Symbolic Z-matrix:
 Charge =  0 Multiplicity = 1

 SCF Done:  E(RB3LYP) =  -422.974231670     A.U. after   19 cycles
 SCF Done:  E(RB3LYP) =  -423.019280392     A.U. after   16 cycles
 SCF Done:  E(RB3LYP) =  -423.073244253     A.U. after   16 cycles
 SCF Done:  E(RB3LYP) =  -423.090824503     A.U. after   14 cycles
 SCF Done:  E(RB3LYP) =  -423.108979704     A.U. after   15 cycles
 SCF Done:  E(RB3LYP) =  -423.116295316     A.U. after   15 cycles
 SCF Done:  E(RB3LYP) =  -423.122697308     A.U. after   15 cycles
 SCF Done:  E(RB3LYP) =  -423.124785501     A.U. after   14 cycles
 SCF Done:  E(RB3LYP) =  -423.126526822     A.U. after   15 cycles
 SCF Done:  E(RB3LYP) =  -423.127021459     A.U. after   14 cycles
 SCF Done:  E(RB3LYP) =  -423.127992928     A.U. after   14 cycles
 SCF Done:  E(RB3LYP) =  -423.128369070     A.U. after   15 cycles
 SCF Done:  E(RB3LYP) =  -423.128492912     A.U. after   14 cycles
 SCF Done:  E(RB3LYP) =  -423.128536850     A.U. after   14 cycles
 SCF Done:  E(RB3LYP) =  -423.128556069     A.U. after   11 cycles
 SCF Done:  E(RB3LYP) =  -423.128564787     A.U. after   12 cycles
 SCF Done:  E(RB3LYP) =  -423.128568738     A.U. after   11 cycles
 SCF Done:  E(RB3LYP) =  -423.128569981     A.U. after   11 cycles
 SCF Done:  E(RB3LYP) =  -423.128570145     A.U. after   10 cycles
 Optimization completed.
    -- Stationary point found.
 Normal termination of Gaussian 16 at Sun Jul  3 18:38:27 2022.

 ----------------------------------------------------------------------
 #N Geom=AllCheck Guess=TCheck SCRF=Check GenChk RB3LYP/6-31G(2df,p) Fr
 eq
 ----------------------------------------------------------------------

 Structure from the checkpoint file:  "COCC1CC2CpdOpC12.chk"
 -------------------
 Title Card Required
 -------------------
 Charge =  0 Multiplicity = 1

                         Standard orientation:
 ---------------------------------------------------------------------
 Center     Atomic      Atomic             Coordinates (Angstroms)
 Number     Number       Type             X           Y           Z
 ---------------------------------------------------------------------
      1          6           0       -3.598200   -0.141238    0.421818
      2          8           0       -2.398534    0.220951   -0.225058
      3          6           0       -1.317538   -0.616144    0.112248
      4          6           0       -0.074546   -0.101477   -0.632814
      5          6           0        0.364453    1.308302   -0.194562
      6          6           0        1.762062    1.136242    0.222612
      7          6           0        2.280192   -0.215795    0.121608
      8          8           0        3.396252   -0.643319    0.412134
      9          6           0        1.130886   -0.920031   -0.408682
     10          1           0       -4.367940    0.562400    0.096999
     11          1           0       -3.503030   -0.086251    1.517302
     12          1           0       -3.912167   -1.161948    0.154389
     13          1           0       -1.524933   -1.659806   -0.175616
     14          1           0       -1.132305   -0.603469    1.199657
     15          1           0       -0.349531   -0.095425   -1.700602
     16          1           0       -0.274255    1.702817    0.609649
     17          1           0        0.264955    2.046247   -1.006283
     18          1           0        2.375813    1.961441    0.575952
     19          1           0        1.157789   -1.986217   -0.621420
 ---------------------------------------------------------------------

 SCF Done:  E(RB3LYP) =  -423.128570145     A.U. after    1 cycles

 The electronic state is 1-A.
 Alpha  occ. eigenvalues --  -19.15872 -19.05051 -10.25143 -10.23876 -10.23157
 Alpha  occ. eigenvalues --  -10.23117 -10.22519 -10.21859 -10.21322  -1.05218
 Alpha  occ. eigenvalues --   -0.97061  -0.86866  -0.76503  -0.72330  -0.69027
 Alpha  occ. eigenvalues --   -0.64402  -0.58053  -0.54688  -0.51215  -0.49861
 Alpha  occ. eigenvalues --   -0.48090  -0.46717  -0.43958  -0.41727  -0.40702
 Alpha  occ. eigenvalues --   -0.38649  -0.37747  -0.36432  -0.36248  -0.35372
 Alpha  occ. eigenvalues --   -0.33486  -0.27457  -0.20423  -0.20062
 Alpha virt. eigenvalues --   -0.11736   0.07201   0.07972   0.09726   0.11707
 Alpha virt. eigenvalues --    0.12311   0.13004   0.13516   0.14639   0.15441
 Alpha virt. eigenvalues --    0.16145   0.16985   0.17637   0.19588   0.20539

 Mulliken charges:
               1
     1  C   -0.232645
     2  O   -0.232808
     3  C   -0.077346
     4  C   -0.045821
     5  C   -0.271182
     6  C   -0.115010
     7  C    0.366679
     8  O   -0.450512
     9  C   -0.156780
    10  H    0.133628
    11  H    0.110093
    12  H    0.110515
    13  H    0.098564
    14  H    0.099876
    15  H    0.117922
    16  H    0.146050
    17  H    0.141322
    18  H    0.131184
    19  H    0.126269
 Sum of Mulliken charges =   0.00000

 Dipole moment (field-independent basis, Debye):
    X=             -5.4556    Y=              1.2628    Z=             -0.5344  Tot=              5.6253
 Quadrupole moment (field-independent basis, Debye-Ang):
   XX=            -70.2216   YY=            -49.4711   ZZ=            -52.5561
   XY=              8.0498   XZ=             -5.1305   YZ=              1.6962

  Exact polarizability: 108.649   3.404  92.497   7.113   6.515  59.499
 Approx polarizability: 152.512  20.412 210.775  22.422  30.325 102.156

                      1                      2                      3
                      A                      A                      A
 Frequencies --     53.0878                80.6886               107.9148
 Red. masses --      4.8133                 3.1872                 2.1406
 Frc consts  --      0.0080                 0.0122                 0.0147
 IR Inten    --      6.5027                 3.3829                 5.8485

                      4                      5                      6
                      A                      A                      A
 Frequencies --    123.2606               184.9532               234.2189
 Red. masses --      2.2424                 2.5556                 1.3441
 Frc consts  --      0.0201                 0.0515                 0.0434
 IR Inten    --      0.4816                 1.8200                 2.4808

                      7                      8                      9
                      A                      A                      A
 Frequencies --    324.3281               345.7861               403.9567
 Red. masses --      3.7220                 2.9953                 1.8869
 Frc consts  --      0.2307                 0.2110                 0.1814
 IR Inten    --      1.1852                 2.6931                 2.0186

                     10                     11                     12
                      A                      A                      A
 Frequencies --    461.7169               501.6765               656.6675
 Red. masses --      4.1524                 2.4779                 6.7882
 Frc consts  --      0.5216                 0.3674                 1.7246
 IR Inten    --      0.6926                 1.4467                 6.2916

                     13                     14                     15
                      A                      A                      A
 Frequencies --    723.3145               792.8024               856.8255
 Red. masses --      3.2242                 2.0026                 2.4832
 Frc consts  --      0.9939                 0.7416                 1.0741
 IR Inten    --      9.9317                10.9988                 2.5864

                     16                     17                     18
                      A                      A                      A
 Frequencies --    884.6337               927.5240               938.1197
 Red. masses --      1.4933                 1.7353                 3.0264
 Frc consts  --      0.6885                 0.8796                 1.5693
 IR Inten    --      9.2558                 4.2282                 5.6030

                     19                     20                     21
                      A                      A                      A
 Frequencies --    981.5098              1001.2265              1026.9634
 Red. masses --      2.3917                 1.9994                 1.4968
 Frc consts  --      1.3575                 1.1809                 0.9301
 IR Inten    --     40.8801                15.1976                 2.5223

                     22                     23                     24
                      A                      A                      A
 Frequencies --   1059.6983              1094.8744              1151.8959
 Red. masses --      1.8286                 1.4991                 2.0901
 Frc consts  --      1.2098                 1.0588                 1.6339
 IR Inten    --      1.2208                 1.4581               109.5452

                     25                     26                     27
                      A                      A                      A
 Frequencies --   1159.3252              1184.4778              1192.8642
 Red. masses --      2.1582                 1.3194                 2.6838
 Frc consts  --      1.7090                 1.0906                 2.2500
 IR Inten    --     81.0260                 0.8313                23.5673

                     28                     29                     30
                      A                      A                      A
 Frequencies --   1213.7769              1243.2299              1257.2134
 Red. masses --      1.6637                 1.2962                 1.9964
 Frc consts  --      1.4441                 1.1803                 1.8592
 IR Inten    --     35.8054                10.2713                21.4008

                     31                     32                     33
                      A                      A                      A
 Frequencies --   1285.4565              1303.3247              1348.2231
 Red. masses --      2.0754                 1.4358                 2.7768
 Frc consts  --      2.0205                 1.4370                 2.9738
 IR Inten    --     52.7713                 5.0806                 6.3257

                     34                     35                     36
                      A                      A                      A
 Frequencies --   1370.3457              1405.3839              1432.0304
 Red. masses --      2.0588                 1.3320                 1.1022
 Frc consts  --      2.2779                 1.5501                 1.3317
 IR Inten    --     20.6402                30.2737                14.3646

                     37                     38                     39
                      A                      A                      A
 Frequencies --   1479.9279              1486.1086              1502.7509
 Red. masses --      1.1475                 1.0464                 1.0589
 Frc consts  --      1.4807                 1.3616                 1.4089
 IR Inten    --      1.8841                 5.6529                11.9866

                     40                     41                     42
                      A                      A                      A
 Frequencies --   1528.0214              1749.4051              2955.8354
 Red. masses --      1.0916                 9.9945                 1.0538
 Frc consts  --      1.5017                18.0216                 5.4245
 IR Inten    --      1.5442               512.0273                22.5377

                     43                     44                     45
                      A                      A                      A
 Frequencies --   2969.3765              2977.8458              2992.7163
 Red. masses --      1.0783                 1.0391                 1.0711
 Frc consts  --      5.6018                 5.4288                 5.6520
 IR Inten    --      5.0353                73.8981                14.4623

                     46                     47                     48
                      A                      A                      A
 Frequencies --   2995.0726              3013.4788              3023.4331
 Red. masses --      1.1010                 1.0894                 1.1036
 Frc consts  --      5.8190                 5.8287                 5.9439
 IR Inten    --     46.0217                 5.5293                46.4181

                     49                     50                     51
                      A                      A                      A
 Frequencies --   3119.7912              3173.4604              3177.5943
 Red. masses --      1.0966                 1.0903                 1.0907
 Frc consts  --      6.2884                 6.4691                 6.4885
 IR Inten    --     24.8478                 5.3691                 5.7635

 - Thermochemistry -
 -------------------
 Temperature   298.150 Kelvin.  Pressure   1.00000 Atm.
 Atom     1 has atomic number  6 and mass  12.00000

 Molecular mass:   126.06808 amu.
 Principal axes and moments of inertia in atomic units:
                           1         2         3
     Eigenvalues --   362.198902318.192982518.74633
           X            0.99983   0.01465  -0.01079
           Y           -0.01451   0.99981   0.01292
           Z            0.01098  -0.01276   0.99986
 This molecule is an asymmetric top.
 Rotational symmetry number  1.
 Rotational temperatures (Kelvin)      0.23913     0.03736     0.03439
 Rotational constants (GHZ):           4.98274     0.77851     0.71652
 Zero-point vibrational energy     409470.5 (Joules/Mol)
                                   97.86579 (Kcal/Mol)
 Warning -- explicit consideration of  11 degrees of freedom as
           vibrations may cause significant error
 Vibrational temperatures:     76.38   116.09   155.27   177.34   266.11
          (Kelvin)            336.99   466.64   497.51   581.20   664.31
                              721.80   944.80  1040.69  1140.67  1232.78
                             1272.79  1334.50  1349.75  1412.17  1440.54
                             1477.57  1524.67  1575.28  1657.32  1668.01
                             1704.20  1716.27  1746.35  1788.73  1808.85
                             1849.49  1875.19  1939.79  1971.62  2022.03
                             2060.37  2129.29  2138.18  2162.12  2198.48
                             2517.00  4252.79  4272.27  4284.46  4305.85
                             4309.24  4335.72  4350.05  4488.68  4565.90
                             4571.85

 Zero-point correction=                           0.155959 (Hartree/Particle)
 Thermal correction to Energy=                    0.165325
 Thermal correction to Enthalpy=                  0.166270
 Thermal correction to Gibbs Free Energy=         0.120781
 Sum of electronic and zero-point Energies=           -422.972611
 Sum of electronic and thermal Energies=              -422.963245
 Sum of electronic and thermal Enthalpies=            -422.962301
 Sum of electronic and thermal Free Energies=         -423.007789

                     E (Thermal)             CV                S
                      KCal/Mol        Cal/Mol-Kelvin    Cal/Mol-Kelvin
 Total                  103.743             33.275             95.739
 Electronic               0.000              0.000              0.000
 Translational            0.889              2.981             40.409
 Rotational               0.889              2.981             29.138
 Vibrational            101.966             27.314             26.193
 Vibration     1          0.596              1.976              4.699
 Vibration     2          0.600              1.962              3.874
 Vibration     3          0.606              1.943              3.306
 Vibration     4          0.610              1.930              3.049
 Vibration     5          0.631              1.860              2.278
 Vibration     6          0.654              1.789              1.846
 Vibration     7          0.709              1.627              1.288
 Vibration     8          0.724              1.584              1.185
 Vibration     9          0.769              1.462              0.948
 Vibration    10          0.819              1.335              0.761
 Vibration    11          0.857              1.246              0.654

 Optimization completed.
    -- Stationary point found.
 Normal termination of Gaussian 16 at Sun Jul  3 19:06:32 2022.
