 Gaussian 16, Revision A.03,
 Gaussian 16:  ES64L-G16RevA.03 25-Dec-2016

 -----------------------------
 # opt freq b3lyp/6-31g(2df,p)
 -----------------------------

 -------------------
 Title Card Required
 -------------------
 Symbolic Z-matrix:
 Charge =  0 Multiplicity = 1

 SCF Done:  E(RB3LYP) =  -461.538377653     A.U. after   12 cycles
 SCF Done:  E(RB3LYP) =  -461.543298898     A.U. after   11 cycles
 SCF Done:  E(RB3LYP) =  -461.543877563     A.U. after   10 cycles
 SCF Done:  E(RB3LYP) =  -461.544007836     A.U. after   10 cycles
 SCF Done:  E(RB3LYP) =  -461.544092142     A.U. after   10 cycles
 SCF Done:  E(RB3LYP) =  -461.544157443     A.U. after   10 cycles
 SCF Done:  E(RB3LYP) =  -461.544249674     A.U. after   10 cycles
 SCF Done:  E(RB3LYP) =  -461.544384838     A.U. after   11 cycles
 SCF Done:  E(RB3LYP) =  -461.544445986     A.U. after    9 cycles
 SCF Done:  E(RB3LYP) =  -461.544525670     A.U. after   10 cycles
 SCF Done:  E(RB3LYP) =  -461.544417829     A.U. after   11 cycles
 SCF Done:  E(RB3LYP) =  -461.544611591     A.U. after   10 cycles
 SCF Done:  E(RB3LYP) =  -461.544632051     A.U. after   10 cycles
 SCF Done:  E(RB3LYP) =  -461.544623388     A.U. after   10 cycles
 SCF Done:  E(RB3LYP) =  -461.544638477     A.U. after   10 cycles
 SCF Done:  E(RB3LYP) =  -461.544637982     A.U. after    7 cycles
 SCF Done:  E(RB3LYP) =  -461.544638863     A.U. after    9 cycles
 SCF Done:  E(RB3LYP) =  -461.544638954     A.U. after    7 cycles
 Optimization completed.
    -- Stationary point found.
 Normal termination of Gaussian 16 at Thu Aug  4 03:53:25 2022.

 ----------------------------------------------------------------------
 #N Geom=AllCheck Guess=TCheck SCRF=Check GenChk RB3LYP/6-31G(2df,p) Fr
 eq
 ----------------------------------------------------------------------

 Structure from the checkpoint file:  "COCC1CCCpOpO1.chk"
 -------------------
 Title Card Required
 -------------------
 Charge =  0 Multiplicity = 1

                         Standard orientation:
 ---------------------------------------------------------------------
 Center     Atomic      Atomic             Coordinates (Angstroms)
 Number     Number       Type             X           Y           Z
 ---------------------------------------------------------------------
      1          6           0        3.151149   -0.751010   -0.528405
      2          8           0        1.826957   -0.284194   -0.435135
      3          6           0        1.547294    0.353471    0.790526
      4          6           0        0.070833    0.729804    0.835293
      5          6           0       -0.406311    1.536134   -0.401292
      6          6           0       -1.721397    0.848049   -0.779157
      7          6           0       -1.499363   -0.592383   -0.297791
      8          8           0       -2.649257   -1.325361   -0.027568
      9          8           0       -0.732854   -0.449867    0.895560
     10          1           0        3.263442   -1.224519   -1.506730
     11          1           0        3.377599   -1.491974    0.253928
     12          1           0        3.881009    0.070046   -0.444664
     13          1           0        2.164070    1.262524    0.910076
     14          1           0        1.773122   -0.317292    1.634698
     15          1           0       -0.095962    1.289526    1.765720
     16          1           0        0.325266    1.436586   -1.206052
     17          1           0       -0.523467    2.598364   -0.176045
     18          1           0       -1.958819    0.899262   -1.843915
     19          1           0       -2.567445    1.270162   -0.222503
     20          1           0       -0.942550   -1.185058   -1.035642
     21          1           0       -3.108269   -0.876649    0.693234
 ---------------------------------------------------------------------

 SCF Done:  E(RB3LYP) =  -461.544638954     A.U. after    1 cycles

 The electronic state is 1-A.
 Alpha  occ. eigenvalues --  -19.14330 -19.13536 -19.13072 -10.26596 -10.23162
 Alpha  occ. eigenvalues --  -10.22605 -10.22596 -10.18218 -10.18020  -1.05804
 Alpha  occ. eigenvalues --   -1.03574  -0.99439  -0.78323  -0.75701  -0.69141
 Alpha  occ. eigenvalues --   -0.64209  -0.60325  -0.57360  -0.51059  -0.51044
 Alpha  occ. eigenvalues --   -0.47882  -0.47505  -0.46362  -0.43375  -0.41992
 Alpha  occ. eigenvalues --   -0.40524  -0.39491  -0.38984  -0.35117  -0.34114
 Alpha  occ. eigenvalues --   -0.33078  -0.32265  -0.31277  -0.28172  -0.25828
 Alpha  occ. eigenvalues --   -0.24577
 Alpha virt. eigenvalues --    0.08239   0.08956   0.10540   0.11396   0.13626
 Alpha virt. eigenvalues --    0.14122   0.14536   0.15596   0.16627   0.17305
 Alpha virt. eigenvalues --    0.18026   0.18260   0.18774   0.19713   0.20301

 Mulliken charges:
               1
     1  C   -0.224802
     2  O   -0.229515
     3  C   -0.072233
     4  C    0.116491
     5  C   -0.259421
     6  C   -0.250048
     7  C    0.224144
     8  O   -0.407498
     9  O   -0.283176
    10  H    0.128063
    11  H    0.108853
    12  H    0.102855
    13  H    0.079573
    14  H    0.097470
    15  H    0.073544
    16  H    0.125875
    17  H    0.101571
    18  H    0.107951
    19  H    0.090245
    20  H    0.094286
    21  H    0.275773
 Sum of Mulliken charges =   0.00000

 Dipole moment (field-independent basis, Debye):
    X=              1.2724    Y=              2.1655    Z=              0.3712  Tot=              2.5389
 Quadrupole moment (field-independent basis, Debye-Ang):
   XX=            -49.0945   YY=            -56.3771   ZZ=            -53.5028
   XY=             -4.7697   XZ=             -1.5202   YZ=              1.2507

  Exact polarizability:  86.756  -0.458  71.163   0.058   2.424  68.853
 Approx polarizability: 106.287   2.178 101.279  -0.716   3.738 102.620

                      1                      2                      3
                      A                      A                      A
 Frequencies --     35.9547                76.8961               111.4014
 Red. masses --      4.2579                 2.8214                 2.1986
 Frc consts  --      0.0032                 0.0098                 0.0161
 IR Inten    --      0.5874                 3.4442                 1.5496

                      4                      5                      6
                      A                      A                      A
 Frequencies --    162.5726               208.7773               232.0921
 Red. masses --      2.7445                 2.5680                 1.4722
 Frc consts  --      0.0427                 0.0660                 0.0467
 IR Inten    --      0.9661                 0.6967                 2.6707

                      7                      8                      9
                      A                      A                      A
 Frequencies --    271.2959               342.2659               342.8626
 Red. masses --      1.4359                 2.2559                 2.1465
 Frc consts  --      0.0623                 0.1557                 0.1487
 IR Inten    --     38.8648                29.8623                24.8512

                     10                     11                     12
                      A                      A                      A
 Frequencies --    435.0807               534.3015               574.4885
 Red. masses --      3.0962                 3.1761                 2.4206
 Frc consts  --      0.3453                 0.5342                 0.4707
 IR Inten    --     17.9554                 6.2032                 3.8789

                     13                     14                     15
                      A                      A                      A
 Frequencies --    640.4240               664.5031               826.3422
 Red. masses --      4.3139                 2.9506                 3.4392
 Frc consts  --      1.0425                 0.7676                 1.3837
 IR Inten    --      6.9279                 2.2675                 4.5089

                     16                     17                     18
                      A                      A                      A
 Frequencies --    859.7724               892.9523               933.6969
 Red. masses --      1.9007                 2.3244                 2.3886
 Frc consts  --      0.8278                 1.0920                 1.2269
 IR Inten    --     19.6266                21.7833                20.3522

                     19                     20                     21
                      A                      A                      A
 Frequencies --    967.1473              1003.9907              1018.8825
 Red. masses --      2.3165                 1.8747                 2.9618
 Frc consts  --      1.2766                 1.1133                 1.8116
 IR Inten    --     18.4932                22.1063                17.9178

                     22                     23                     24
                      A                      A                      A
 Frequencies --   1074.7026              1095.9486              1110.6390
 Red. masses --      2.2564                 2.7484                 2.7839
 Frc consts  --      1.5355                 1.9450                 2.0232
 IR Inten    --     34.2233               235.4328                38.4647

                     25                     26                     27
                      A                      A                      A
 Frequencies --   1154.3912              1163.9784              1173.1510
 Red. masses --      1.9266                 2.1228                 2.7622
 Frc consts  --      1.5127                 1.6945                 2.2398
 IR Inten    --     44.2142                82.8923                91.3647

                     28                     29                     30
                      A                      A                      A
 Frequencies --   1187.7846              1221.0313              1229.7136
 Red. masses --      1.3689                 1.4930                 1.7374
 Frc consts  --      1.1379                 1.3115                 1.5480
 IR Inten    --      9.9123                16.2701                29.7841

                     31                     32                     33
                      A                      A                      A
 Frequencies --   1269.2269              1300.8023              1313.2589
 Red. masses --      1.1186                 1.3548                 1.2546
 Frc consts  --      1.0617                 1.3507                 1.2749
 IR Inten    --      9.0154                 6.1215                 0.4138

                     34                     35                     36
                      A                      A                      A
 Frequencies --   1337.2942              1355.7389              1378.5603
 Red. masses --      1.2786                 1.4366                 1.4810
 Frc consts  --      1.3472                 1.5557                 1.6582
 IR Inten    --      1.0039                 2.7908                24.3361

                     37                     38                     39
                      A                      A                      A
 Frequencies --   1392.4161              1414.6307              1445.4055
 Red. masses --      1.4680                 1.3387                 1.2533
 Frc consts  --      1.6770                 1.5784                 1.5427
 IR Inten    --      3.8460                21.7833                77.5890

                     40                     41                     42
                      A                      A                      A
 Frequencies --   1477.8446              1483.1090              1485.7057
 Red. masses --      1.1369                 1.0896                 1.0469
 Frc consts  --      1.4629                 1.4122                 1.3615
 IR Inten    --      4.6208                 2.2382                 4.9284

                     43                     44                     45
                      A                      A                      A
 Frequencies --   1496.5263              1502.3905              1521.7724
 Red. masses --      1.0763                 1.0987                 1.1020
 Frc consts  --      1.4202                 1.4611                 1.5036
 IR Inten    --      7.4378                11.7990                 2.4409

                     46                     47                     48
                      A                      A                      A
 Frequencies --   2944.4969              2971.5123              2995.8460
 Red. masses --      1.0605                 1.0396                 1.0965
 Frc consts  --      5.4172                 5.4083                 5.7982
 IR Inten    --     37.5717                78.1853                50.6873

                     49                     50                     51
                      A                      A                      A
 Frequencies --   3010.0261              3016.6053              3023.9447
 Red. masses --      1.0850                 1.1028                 1.0809
 Frc consts  --      5.7917                 5.9127                 5.8237
 IR Inten    --     67.2854                48.4581                17.8336

                     52                     53                     54
                      A                      A                      A
 Frequencies --   3036.6412              3073.2026              3108.2280
 Red. masses --      1.0715                 1.0599                 1.0977
 Frc consts  --      5.8216                 5.8980                 6.2480
 IR Inten    --     45.6414                22.0834                14.2561

                     55                     56                     57
                      A                      A                      A
 Frequencies --   3114.1530              3123.9181              3783.7956
 Red. masses --      1.0961                 1.1051                 1.0648
 Frc consts  --      6.2632                 6.3538                 8.9821
 IR Inten    --     27.3415                26.0170                16.1942

 - Thermochemistry -
 -------------------
 Temperature   298.150 Kelvin.  Pressure   1.00000 Atm.
 Atom     1 has atomic number  6 and mass  12.00000

 Molecular mass:   132.07864 amu.
 Principal axes and moments of inertia in atomic units:
                           1         2         3
     Eigenvalues --   606.732861837.772032008.07952
           X            0.99968  -0.02488   0.00360
           Y            0.02482   0.99957   0.01586
           Z           -0.00400  -0.01577   0.99987
 This molecule is an asymmetric top.
 Rotational symmetry number  1.
 Warning -- assumption of classical behavior for rotation
           may cause significant error
 Rotational temperatures (Kelvin)      0.14275     0.04713     0.04313
 Rotational constants (GHZ):           2.97452     0.98203     0.89874
 Zero-point vibrational energy     478052.2 (Joules/Mol)
                                  114.25723 (Kcal/Mol)
 Warning -- explicit consideration of  12 degrees of freedom as
           vibrations may cause significant error
 Vibrational temperatures:     51.73   110.64   160.28   233.91   300.38
          (Kelvin)            333.93   390.33   492.44   493.30   625.98
                              768.74   826.56   921.43   956.07  1188.92
                             1237.02  1284.76  1343.38  1391.51  1444.52
                             1465.94  1546.26  1576.83  1597.96  1660.91
                             1674.71  1687.90  1708.96  1756.79  1769.28
                             1826.13  1871.56  1889.49  1924.07  1950.61
                             1983.44  2003.38  2035.34  2079.62  2126.29
                             2133.86  2137.60  2153.17  2161.60  2189.49
                             4236.47  4275.34  4310.35  4330.76  4340.22
                             4350.78  4369.05  4421.65  4472.05  4480.57
                             4494.62  5444.04

 Zero-point correction=                           0.182080 (Hartree/Particle)
 Thermal correction to Energy=                    0.191710
 Thermal correction to Enthalpy=                  0.192654
 Thermal correction to Gibbs Free Energy=         0.146505
 Sum of electronic and zero-point Energies=           -461.362558
 Sum of electronic and thermal Energies=              -461.352929
 Sum of electronic and thermal Enthalpies=            -461.351985
 Sum of electronic and thermal Free Energies=         -461.398134

                     E (Thermal)             CV                S
                      KCal/Mol        Cal/Mol-Kelvin    Cal/Mol-Kelvin
 Total                  120.300             34.757             97.129
 Electronic               0.000              0.000              0.000
 Translational            0.889              2.981             40.547
 Rotational               0.889              2.981             29.194
 Vibrational            118.523             28.795             27.388
 Vibration     1          0.594              1.982              5.470
 Vibration     2          0.599              1.965              3.969
 Vibration     3          0.607              1.940              3.244
 Vibration     4          0.623              1.888              2.520
 Vibration     5          0.642              1.827              2.054
 Vibration     6          0.653              1.792              1.863
 Vibration     7          0.675              1.726              1.588
 Vibration     8          0.721              1.591              1.202
 Vibration     9          0.722              1.590              1.199
 Vibration    10          0.796              1.394              0.842
 Vibration    11          0.889              1.174              0.578
 Vibration    12          0.931              1.086              0.496

 Optimization completed.
    -- Stationary point found.
 Normal termination of Gaussian 16 at Thu Aug  4 04:24:16 2022.
