 Gaussian 16, Revision A.03,
 Gaussian 16:  ES64L-G16RevA.03 25-Dec-2016

 -----------------------------
 # opt freq b3lyp/6-31g(2df,p)
 -----------------------------

 -------------------
 Title Card Required
 -------------------
 Symbolic Z-matrix:
 Charge =  0 Multiplicity = 1

 SCF Done:  E(RB3LYP) =  -461.498366414     A.U. after   13 cycles
 SCF Done:  E(RB3LYP) =  -461.507691956     A.U. after   11 cycles
 SCF Done:  E(RB3LYP) =  -461.508853344     A.U. after   11 cycles
 SCF Done:  E(RB3LYP) =  -461.509593516     A.U. after   11 cycles
 SCF Done:  E(RB3LYP) =  -461.510229076     A.U. after   11 cycles
 SCF Done:  E(RB3LYP) =  -461.510473069     A.U. after   10 cycles
 SCF Done:  E(RB3LYP) =  -461.510544213     A.U. after   10 cycles
 SCF Done:  E(RB3LYP) =  -461.510561017     A.U. after   10 cycles
 SCF Done:  E(RB3LYP) =  -461.510564961     A.U. after    8 cycles
 SCF Done:  E(RB3LYP) =  -461.510566077     A.U. after    8 cycles
 SCF Done:  E(RB3LYP) =  -461.510566318     A.U. after    7 cycles
 Optimization completed.
    -- Stationary point found.
 Normal termination of Gaussian 16 at Thu Aug  4 02:55:43 2022.

 ----------------------------------------------------------------------
 #N Geom=AllCheck Guess=TCheck SCRF=Check GenChk RB3LYP/6-31G(2df,p) Fr
 eq
 ----------------------------------------------------------------------

 Structure from the checkpoint file:  "COCCpCpC1OC1O.chk"
 -------------------
 Title Card Required
 -------------------
 Charge =  0 Multiplicity = 1

                         Standard orientation:
 ---------------------------------------------------------------------
 Center     Atomic      Atomic             Coordinates (Angstroms)
 Number     Number       Type             X           Y           Z
 ---------------------------------------------------------------------
      1          6           0       -3.303103   -1.133479    0.175807
      2          8           0       -2.428778   -0.132619   -0.286152
      3          6           0       -1.074467   -0.417517   -0.010424
      4          6           0       -0.221237    0.746947   -0.518371
      5          6           0       -0.645907    2.076480    0.126947
      6          6           0        1.263227    0.523562   -0.303263
      7          8           0        1.701865    0.185013    1.043507
      8          6           0        1.941840   -0.743194    0.003415
      9          8           0        3.250446   -1.012354   -0.330095
     10          1           0       -4.319478   -0.824191   -0.079796
     11          1           0       -3.234123   -1.264695    1.267264
     12          1           0       -3.098155   -2.106615   -0.298596
     13          1           0       -0.782323   -1.356243   -0.510263
     14          1           0       -0.917238   -0.555220    1.071931
     15          1           0       -0.378855    0.818875   -1.603418
     16          1           0       -0.445169    2.057652    1.203279
     17          1           0       -1.712650    2.248630   -0.023886
     18          1           0       -0.091382    2.916003   -0.304687
     19          1           0        1.886059    1.295919   -0.763503
     20          1           0        1.396132   -1.681022    0.069537
     21          1           0        3.746809   -0.186205   -0.290604
 ---------------------------------------------------------------------

 SCF Done:  E(RB3LYP) =  -461.510566318     A.U. after    1 cycles

 The electronic state is 1-A.
 Alpha  occ. eigenvalues --  -19.15804 -19.15248 -19.14218 -10.28482 -10.23838
 Alpha  occ. eigenvalues --  -10.22799 -10.22554 -10.19644 -10.17151  -1.09457
 Alpha  occ. eigenvalues --   -1.03561  -1.02098  -0.80198  -0.70805  -0.67937
 Alpha  occ. eigenvalues --   -0.64803  -0.63965  -0.57270  -0.52560  -0.51396
 Alpha  occ. eigenvalues --   -0.48554  -0.46923  -0.46033  -0.43489  -0.42420
 Alpha  occ. eigenvalues --   -0.40244  -0.39597  -0.38390  -0.37141  -0.35765
 Alpha  occ. eigenvalues --   -0.34448  -0.33182  -0.31603  -0.28258  -0.26348
 Alpha  occ. eigenvalues --   -0.25513
 Alpha virt. eigenvalues --    0.07668   0.08782   0.10062   0.10567   0.11882
 Alpha virt. eigenvalues --    0.13066   0.13619   0.15314   0.15663   0.16181
 Alpha virt. eigenvalues --    0.16774   0.17748   0.18645   0.19682   0.21916

 Mulliken charges:
               1
     1  C   -0.229499
     2  O   -0.236193
     3  C   -0.067027
     4  C   -0.033181
     5  C   -0.390548
     6  C   -0.016049
     7  O   -0.275694
     8  C    0.190806
     9  O   -0.420200
    10  H    0.127254
    11  H    0.106276
    12  H    0.103309
    13  H    0.083396
    14  H    0.103755
    15  H    0.089782
    16  H    0.128504
    17  H    0.135748
    18  H    0.107306
    19  H    0.085599
    20  H    0.116580
    21  H    0.290077
 Sum of Mulliken charges =  -0.00000

 Dipole moment (field-independent basis, Debye):
    X=             -0.4384    Y=              0.1372    Z=             -0.8438  Tot=              0.9607
 Quadrupole moment (field-independent basis, Debye-Ang):
   XX=            -52.6671   YY=            -53.6940   ZZ=            -57.0314
   XY=              7.1730   XZ=             -3.6412   YZ=             -1.8318

  Exact polarizability:  90.088   0.215  76.098  -1.456  -1.592  61.084
 Approx polarizability: 108.933  -2.892 106.704   0.257  -2.219  98.587

                      1                      2                      3
                      A                      A                      A
 Frequencies --     50.6421                83.9277                95.7358
 Red. masses --      3.5493                 2.5624                 2.6380
 Frc consts  --      0.0054                 0.0106                 0.0142
 IR Inten    --      2.8939                 0.6222                 2.0682

                      4                      5                      6
                      A                      A                      A
 Frequencies --    122.4962               174.4691               222.3609
 Red. masses --      3.3433                 2.4156                 1.1118
 Frc consts  --      0.0296                 0.0433                 0.0324
 IR Inten    --      2.7679                 5.2620                 0.1481

                      7                      8                      9
                      A                      A                      A
 Frequencies --    236.0115               247.2901               280.2763
 Red. masses --      1.7849                 1.2750                 2.3650
 Frc consts  --      0.0586                 0.0459                 0.1095
 IR Inten    --      5.3951                35.8588                22.1817

                     10                     11                     12
                      A                      A                      A
 Frequencies --    319.7939               352.7959               413.3058
 Red. masses --      2.8709                 3.1075                 2.9066
 Frc consts  --      0.1730                 0.2279                 0.2925
 IR Inten    --     14.4325                11.4338                 7.6822

                     13                     14                     15
                      A                      A                      A
 Frequencies --    485.1234               557.7277               642.8387
 Red. masses --      2.6026                 4.5722                 3.6313
 Frc consts  --      0.3609                 0.8379                 0.8841
 IR Inten    --      1.5621                22.6389                14.8855

                     16                     17                     18
                      A                      A                      A
 Frequencies --    774.0887               857.5468               923.2547
 Red. masses --      5.9356                 2.6595                 2.5343
 Frc consts  --      2.0955                 1.1523                 1.2728
 IR Inten    --      7.5854                 2.9720                46.8883

                     19                     20                     21
                      A                      A                      A
 Frequencies --    934.4921               969.2616               999.2989
 Red. masses --      1.4684                 1.9122                 4.1986
 Frc consts  --      0.7555                 1.0584                 2.4703
 IR Inten    --     12.7864                 3.5079                23.4803

                     22                     23                     24
                      A                      A                      A
 Frequencies --   1049.8496              1078.1382              1111.4579
 Red. masses --      1.8646                 1.5250                 2.7161
 Frc consts  --      1.2108                 1.0444                 1.9769
 IR Inten    --     47.3063                 6.6308               220.3364

                     25                     26                     27
                      A                      A                      A
 Frequencies --   1151.0237              1157.9287              1163.5000
 Red. masses --      1.7551                 1.5325                 3.9927
 Frc consts  --      1.3700                 1.2106                 3.1846
 IR Inten    --      7.9108                 4.0680               104.9151

                     28                     29                     30
                      A                      A                      A
 Frequencies --   1178.2408              1199.9066              1228.6465
 Red. masses --      1.4962                 1.6825                 1.7182
 Frc consts  --      1.2238                 1.4272                 1.5282
 IR Inten    --     18.6388                19.5049                33.5105

                     31                     32                     33
                      A                      A                      A
 Frequencies --   1271.8505              1291.0645              1303.4160
 Red. masses --      1.2522                 1.4058                 1.3665
 Frc consts  --      1.1934                 1.3806                 1.3678
 IR Inten    --     11.9920                32.5354                 4.5866

                     34                     35                     36
                      A                      A                      A
 Frequencies --   1331.9100              1353.6528              1398.3673
 Red. masses --      1.5155                 1.3572                 1.2629
 Frc consts  --      1.5840                 1.4653                 1.4550
 IR Inten    --      4.9533                 1.3573                 4.1949

                     37                     38                     39
                      A                      A                      A
 Frequencies --   1404.4900              1431.7384              1480.8790
 Red. masses --      1.3094                 1.3453                 1.1541
 Frc consts  --      1.5218                 1.6248                 1.4911
 IR Inten    --     29.1267                 9.9024                 2.8353

                     40                     41                     42
                      A                      A                      A
 Frequencies --   1485.3497              1492.8060              1500.6574
 Red. masses --      1.0479                 1.0853                 1.9264
 Frc consts  --      1.3622                 1.4250                 2.5560
 IR Inten    --      5.3845                14.8843                72.0644

                     43                     44                     45
                      A                      A                      A
 Frequencies --   1504.8205              1507.5873              1535.3260
 Red. masses --      1.0982                 1.1010                 1.0934
 Frc consts  --      1.4653                 1.4744                 1.5186
 IR Inten    --      7.9389                 5.0797                 2.7493

                     46                     47                     48
                      A                      A                      A
 Frequencies --   2953.7845              2970.8660              2990.1941
 Red. masses --      1.0532                 1.0406                 1.0990
 Frc consts  --      5.4140                 5.4115                 5.7893
 IR Inten    --     38.9764                73.9799                28.6465

                     49                     50                     51
                      A                      A                      A
 Frequencies --   3012.9017              3021.1053              3039.6077
 Red. masses --      1.1027                 1.0852                 1.0372
 Frc consts  --      5.8979                 5.8356                 5.6462
 IR Inten    --     58.2001                23.8207                21.7968

                     52                     53                     54
                      A                      A                      A
 Frequencies --   3065.5309              3103.9048              3113.5803
 Red. masses --      1.0869                 1.1014                 1.0959
 Frc consts  --      6.0178                 6.2518                 6.2594
 IR Inten    --     35.9619                29.4166                29.8196

                     55                     56                     57
                      A                      A                      A
 Frequencies --   3140.3394              3152.5042              3801.5455
 Red. masses --      1.0996                 1.0888                 1.0651
 Frc consts  --      6.3892                 6.3756                 9.0689
 IR Inten    --     13.2800                23.2110                31.7677

 - Thermochemistry -
 -------------------
 Temperature   298.150 Kelvin.  Pressure   1.00000 Atm.
 Atom     1 has atomic number  6 and mass  12.00000

 Molecular mass:   132.07864 amu.
 Principal axes and moments of inertia in atomic units:
                           1         2         3
     Eigenvalues --   600.818732217.488082580.94988
           X            0.99972   0.02107  -0.01046
           Y           -0.02124   0.99963  -0.01697
           Z            0.01010   0.01718   0.99980
 This molecule is an asymmetric top.
 Rotational symmetry number  1.
 Warning -- assumption of classical behavior for rotation
           may cause significant error
 Rotational temperatures (Kelvin)      0.14416     0.03906     0.03356
 Rotational constants (GHZ):           3.00380     0.81387     0.69925
 Zero-point vibrational energy     470857.4 (Joules/Mol)
                                  112.53762 (Kcal/Mol)
 Warning -- explicit consideration of  14 degrees of freedom as
           vibrations may cause significant error
 Vibrational temperatures:     72.86   120.75   137.74   176.24   251.02
          (Kelvin)            319.93   339.57   355.80   403.26   460.11
                              507.59   594.65   697.98   802.45   924.90
                             1113.74  1233.82  1328.36  1344.53  1394.55
                             1437.77  1510.50  1551.20  1599.14  1656.07
                             1666.00  1674.02  1695.23  1726.40  1767.75
                             1829.91  1857.55  1875.32  1916.32  1947.60
                             2011.94  2020.75  2059.95  2130.65  2137.09
                             2147.81  2159.11  2165.10  2169.08  2208.99
                             4249.84  4274.41  4302.22  4334.89  4346.70
                             4373.32  4410.62  4465.83  4479.75  4518.25
                             4535.75  5469.58

 Zero-point correction=                           0.179340 (Hartree/Particle)
 Thermal correction to Energy=                    0.190012
 Thermal correction to Enthalpy=                  0.190956
 Thermal correction to Gibbs Free Energy=         0.142793
 Sum of electronic and zero-point Energies=           -461.331226
 Sum of electronic and thermal Energies=              -461.320554
 Sum of electronic and thermal Enthalpies=            -461.319610
 Sum of electronic and thermal Free Energies=         -461.367774

                     E (Thermal)             CV                S
                      KCal/Mol        Cal/Mol-Kelvin    Cal/Mol-Kelvin
 Total                  119.234             37.448            101.368
 Electronic               0.000              0.000              0.000
 Translational            0.889              2.981             40.547
 Rotational               0.889              2.981             29.621
 Vibrational            117.457             31.486             31.200
 Vibration     1          0.595              1.977              4.792
 Vibration     2          0.601              1.960              3.797
 Vibration     3          0.603              1.952              3.539
 Vibration     4          0.610              1.930              3.061
 Vibration     5          0.627              1.874              2.387
 Vibration     6          0.648              1.807              1.940
 Vibration     7          0.655              1.786              1.833
 Vibration     8          0.661              1.767              1.750
 Vibration     9          0.680              1.710              1.532
 Vibration    10          0.706              1.636              1.311
 Vibration    11          0.729              1.570              1.154
 Vibration    12          0.777              1.441              0.915
 Vibration    13          0.841              1.283              0.696
 Vibration    14          0.913              1.123              0.528

                           ! Non-Optimized Parameters !
 Normal termination of Gaussian 16 at Thu Aug  4 03:25:30 2022.
