 Gaussian 16, Revision A.03,
 Gaussian 16:  ES64L-G16RevA.03 25-Dec-2016

 -----------------------------
 # opt freq b3lyp/6-31g(2df,p)
 -----------------------------

 -------------------
 Title Card Required
 -------------------
 Symbolic Z-matrix:
 Charge =  0 Multiplicity = 1

 SCF Done:  E(RB3LYP) =  -401.146453876     A.U. after   13 cycles
 SCF Done:  E(RB3LYP) =  -401.149063668     A.U. after   12 cycles
 SCF Done:  E(RB3LYP) =  -401.149381610     A.U. after   10 cycles
 SCF Done:  E(RB3LYP) =  -401.149595336     A.U. after   10 cycles
 SCF Done:  E(RB3LYP) =  -401.149639753     A.U. after    9 cycles
 SCF Done:  E(RB3LYP) =  -401.149643642     A.U. after    8 cycles
 SCF Done:  E(RB3LYP) =  -401.149644641     A.U. after    7 cycles
 SCF Done:  E(RB3LYP) =  -401.149645076     A.U. after    6 cycles
 SCF Done:  E(RB3LYP) =  -401.149645491     A.U. after    7 cycles
 SCF Done:  E(RB3LYP) =  -401.149646138     A.U. after    7 cycles
 SCF Done:  E(RB3LYP) =  -401.149646633     A.U. after    8 cycles
 SCF Done:  E(RB3LYP) =  -401.149647097     A.U. after    7 cycles
 SCF Done:  E(RB3LYP) =  -401.149647248     A.U. after    7 cycles
 Optimization completed.
    -- Stationary point found.
 Normal termination of Gaussian 16 at Thu Aug  4 10:02:51 2022.

 ----------------------------------------------------------------------
 #N Geom=AllCheck Guess=TCheck SCRF=Check GenChk RB3LYP/6-31G(2df,p) Fr
 eq
 ----------------------------------------------------------------------

 Structure from the checkpoint file:  "COCC1CCpdOpN1.chk"
 -------------------
 Title Card Required
 -------------------
 Charge =  0 Multiplicity = 1

                         Standard orientation:
 ---------------------------------------------------------------------
 Center     Atomic      Atomic             Coordinates (Angstroms)
 Number     Number       Type             X           Y           Z
 ---------------------------------------------------------------------
      1          6           0        2.872169   -0.838654    0.021792
      2          8           0        1.505711   -0.503142    0.077622
      3          6           0        1.261196    0.865368   -0.127521
      4          6           0       -0.234967    1.134190   -0.052893
      5          6           0       -1.016339    0.449420    1.109922
      6          6           0       -1.765677   -0.324884   -0.001908
      7          8           0       -2.612054   -1.174632   -0.050096
      8          7           0       -1.074387    0.360636   -0.974922
      9          1           0        2.950191   -1.914905    0.190905
     10          1           0        3.453979   -0.312247    0.794696
     11          1           0        3.310414   -0.599079   -0.959808
     12          1           0        1.650905    1.187598   -1.110105
     13          1           0        1.772203    1.478798    0.635425
     14          1           0       -0.397951    2.215884   -0.130830
     15          1           0       -1.645717    1.106891    1.711312
     16          1           0       -0.406592   -0.189618    1.748087
     17          1           0       -1.014273    0.211773   -1.971783
 ---------------------------------------------------------------------

 SCF Done:  E(RB3LYP) =  -401.149647248     A.U. after    1 cycles

 The electronic state is 1-A.
 Alpha  occ. eigenvalues --  -19.15237 -19.10062 -14.34590 -10.27171 -10.24160
 Alpha  occ. eigenvalues --  -10.23624 -10.23371 -10.19042  -1.04776  -1.02737
 Alpha  occ. eigenvalues --   -0.94521  -0.76467  -0.72651  -0.67510  -0.60218
 Alpha  occ. eigenvalues --   -0.57733  -0.51303  -0.49712  -0.48312  -0.46165
 Alpha  occ. eigenvalues --   -0.44284  -0.42963  -0.40953  -0.37684  -0.37535
 Alpha  occ. eigenvalues --   -0.36492  -0.35552  -0.32766  -0.26852  -0.25259
 Alpha  occ. eigenvalues --   -0.24295
 Alpha virt. eigenvalues --    0.04174   0.07403   0.10075   0.11002   0.11572
 Alpha virt. eigenvalues --    0.13542   0.14305   0.15023   0.15582   0.16916
 Alpha virt. eigenvalues --    0.17328   0.18810   0.19258   0.22498   0.26040

 Mulliken charges:
               1
     1  C   -0.226410
     2  O   -0.226272
     3  C   -0.078737
     4  C    0.029250
     5  C   -0.391130
     6  C    0.438296
     7  O   -0.358575
     8  N   -0.315583
     9  H    0.134867
    10  H    0.106929
    11  H    0.106227
    12  H    0.087706
    13  H    0.093739
    14  H    0.084743
    15  H    0.125379
    16  H    0.143097
    17  H    0.246472
 Sum of Mulliken charges =  -0.00000

 Dipole moment (field-independent basis, Debye):
    X=              3.8706    Y=              2.8577    Z=             -0.6192  Tot=              4.8510
 Quadrupole moment (field-independent basis, Debye-Ang):
   XX=            -52.4948   YY=            -48.3553   ZZ=            -43.2495
   XY=             -6.2232   XZ=             -0.1116   YZ=             -0.0062

  Exact polarizability:  73.906   4.991  62.763  -1.873  -0.120  61.423
 Approx polarizability:  95.704  14.656  95.445  -3.487  -2.470  91.697

                      1                      2                      3
                      A                      A                      A
 Frequencies --     51.7414                83.3500               119.3955
 Red. masses --      6.2209                 2.5707                 2.1557
 Frc consts  --      0.0098                 0.0105                 0.0181
 IR Inten    --      0.3603                 2.8921                 0.4191

                      4                      5                      6
                      A                      A                      A
 Frequencies --    206.6305               232.1759               321.6244
 Red. masses --      3.8483                 1.3178                 2.4897
 Frc consts  --      0.0968                 0.0419                 0.1517
 IR Inten    --      2.2440                 3.3831                 0.7716

                      7                      8                      9
                      A                      A                      A
 Frequencies --    346.3811               366.0092               492.5046
 Red. masses --      3.4951                 1.0831                 3.6102
 Frc consts  --      0.2471                 0.0855                 0.5159
 IR Inten    --      5.4325               102.7132                 2.2821

                     10                     11                     12
                      A                      A                      A
 Frequencies --    566.3338               623.6175               724.4855
 Red. masses --      2.5319                 3.5258                 3.9400
 Frc consts  --      0.4785                 0.8079                 1.2184
 IR Inten    --     28.4930                 2.1857                 4.4814

                     13                     14                     15
                      A                      A                      A
 Frequencies --    801.6626               906.8333               945.5385
 Red. masses --      2.6595                 2.2268                 2.2795
 Frc consts  --      1.0070                 1.0789                 1.2008
 IR Inten    --      1.7276                 8.9328                10.4995

                     16                     17                     18
                      A                      A                      A
 Frequencies --    969.3324              1039.2156              1065.7714
 Red. masses --      4.0709                 2.5430                 1.8010
 Frc consts  --      2.2536                 1.6181                 1.2053
 IR Inten    --      9.6169                 4.4616                 2.2045

                     19                     20                     21
                      A                      A                      A
 Frequencies --   1078.9884              1129.1133              1170.1025
 Red. masses --      2.3912                 1.3876                 3.4056
 Frc consts  --      1.6402                 1.0423                 2.7472
 IR Inten    --     55.3273                 9.5795               101.1482

                     22                     23                     24
                      A                      A                      A
 Frequencies --   1183.0699              1185.0619              1201.7391
 Red. masses --      2.1568                 1.3375                 1.3995
 Frc consts  --      1.7786                 1.1067                 1.1908
 IR Inten    --     66.9772                 5.0905                 0.7888

                     25                     26                     27
                      A                      A                      A
 Frequencies --   1229.9243              1247.6870              1305.5638
 Red. masses --      1.8341                 1.2681                 1.5190
 Frc consts  --      1.6346                 1.1631                 1.5255
 IR Inten    --     41.2686                 2.4124                20.9279

                     28                     29                     30
                      A                      A                      A
 Frequencies --   1377.0809              1397.3300              1416.1353
 Red. masses --      1.5855                 2.0825                 1.3097
 Frc consts  --      1.7715                 2.3957                 1.5475
 IR Inten    --     21.7378                34.4110                33.0267

                     31                     32                     33
                      A                      A                      A
 Frequencies --   1451.6140              1480.9253              1486.4063
 Red. masses --      1.1411                 1.1492                 1.0467
 Frc consts  --      1.4167                 1.4849                 1.3626
 IR Inten    --     13.0920                 1.6431                 5.6025

                     34                     35                     36
                      A                      A                      A
 Frequencies --   1499.4513              1523.3213              1899.8418
 Red. masses --      1.0626                 1.1000                11.4724
 Frc consts  --      1.4076                 1.5040                24.3973
 IR Inten    --     11.2519                 1.7498               536.3837

                     37                     38                     39
                      A                      A                      A
 Frequencies --   2939.5008              2968.5087              2973.0951
 Red. masses --      1.0554                 1.1001                 1.0401
 Frc consts  --      5.3728                 5.7119                 5.4170
 IR Inten    --     39.5983                55.4146                71.5282

                     40                     41                     42
                      A                      A                      A
 Frequencies --   3017.2418              3034.0183              3095.2716
 Red. masses --      1.1033                 1.0853                 1.0593
 Frc consts  --      5.9180                 5.8862                 5.9795
 IR Inten    --     52.8473                54.0139                10.3975

                     43                     44                     45
                      A                      A                      A
 Frequencies --   3120.1344              3161.7402              3605.6137
 Red. masses --      1.0961                 1.1070                 1.0794
 Frc consts  --      6.2869                 6.5199                 8.2678
 IR Inten    --     22.6636                 4.8883                15.6867

 - Thermochemistry -
 -------------------
 Temperature   298.150 Kelvin.  Pressure   1.00000 Atm.
 Atom     1 has atomic number  6 and mass  12.00000

 Molecular mass:   115.06333 amu.
 Principal axes and moments of inertia in atomic units:
                           1         2         3
     Eigenvalues --   428.399571474.735741605.62703
           X            0.99973  -0.02258  -0.00623
           Y            0.02266   0.99965   0.01363
           Z            0.00592  -0.01377   0.99989
 This molecule is an asymmetric top.
 Rotational symmetry number  1.
 Rotational temperatures (Kelvin)      0.20218     0.05873     0.05394
 Rotational constants (GHZ):           4.21275     1.22377     1.12401
 Zero-point vibrational energy     371088.1 (Joules/Mol)
                                   88.69218 (Kcal/Mol)
 Warning -- explicit consideration of  10 degrees of freedom as
           vibrations may cause significant error
 Vibrational temperatures:     74.44   119.92   171.78   297.30   334.05
          (Kelvin)            462.75   498.37   526.61   708.60   814.83
                              897.25  1042.37  1153.41  1304.73  1360.42
                             1394.65  1495.20  1533.41  1552.42  1624.54
                             1683.52  1702.17  1705.04  1729.03  1769.59
                             1795.14  1878.42  1981.31  2010.45  2037.50
                             2088.55  2130.72  2138.61  2157.38  2191.72
                             2733.45  4229.29  4271.02  4277.62  4341.14
                             4365.28  4453.41  4489.18  4549.04  5187.67

 Zero-point correction=                           0.141340 (Hartree/Particle)
 Thermal correction to Energy=                    0.149781
 Thermal correction to Enthalpy=                  0.150726
 Thermal correction to Gibbs Free Energy=         0.107565
 Sum of electronic and zero-point Energies=           -401.008307
 Sum of electronic and thermal Energies=              -400.999866
 Sum of electronic and thermal Enthalpies=            -400.998922
 Sum of electronic and thermal Free Energies=         -401.042082

                     E (Thermal)             CV                S
                      KCal/Mol        Cal/Mol-Kelvin    Cal/Mol-Kelvin
 Total                   93.989             29.639             90.839
 Electronic               0.000              0.000              0.000
 Translational            0.889              2.981             40.136
 Rotational               0.889              2.981             28.408
 Vibrational             92.212             23.677             22.295
 Vibration     1          0.596              1.977              4.750
 Vibration     2          0.600              1.961              3.810
 Vibration     3          0.609              1.933              3.110
 Vibration     4          0.641              1.830              2.073
 Vibration     5          0.653              1.792              1.862
 Vibration     6          0.707              1.632              1.302
 Vibration     7          0.724              1.583              1.183
 Vibration     8          0.739              1.542              1.096
 Vibration     9          0.848              1.267              0.677
 Vibration    10          0.922              1.104              0.511

 Optimization completed.
    -- Stationary point found.
 Normal termination of Gaussian 16 at Thu Aug  4 10:22:17 2022.
