 Gaussian 16, Revision A.03,
 Gaussian 16:  ES64L-G16RevA.03 25-Dec-2016

 -----------------------------
 # opt freq b3lyp/6-31g(2df,p)
 -----------------------------

 -------------------
 Title Card Required
 -------------------
 Symbolic Z-matrix:
 Charge =  0 Multiplicity = 1

 SCF Done:  E(RB3LYP) =  -386.261239423     A.U. after   12 cycles
 SCF Done:  E(RB3LYP) =  -386.266530586     A.U. after   10 cycles
 SCF Done:  E(RB3LYP) =  -386.268007899     A.U. after   10 cycles
 SCF Done:  E(RB3LYP) =  -386.268779163     A.U. after   10 cycles
 SCF Done:  E(RB3LYP) =  -386.269008761     A.U. after   10 cycles
 SCF Done:  E(RB3LYP) =  -386.269057607     A.U. after    9 cycles
 SCF Done:  E(RB3LYP) =  -386.269083958     A.U. after    9 cycles
 SCF Done:  E(RB3LYP) =  -386.269097341     A.U. after    9 cycles
 SCF Done:  E(RB3LYP) =  -386.269131385     A.U. after   10 cycles
 SCF Done:  E(RB3LYP) =  -386.269309550     A.U. after   11 cycles
 SCF Done:  E(RB3LYP) =  -386.272335607     A.U. after   13 cycles
 SCF Done:  E(RB3LYP) =  -386.274572457     A.U. after   10 cycles
 SCF Done:  E(RB3LYP) =  -386.274830673     A.U. after   10 cycles
 SCF Done:  E(RB3LYP) =  -386.275068677     A.U. after   10 cycles
 SCF Done:  E(RB3LYP) =  -386.275153919     A.U. after    9 cycles
 SCF Done:  E(RB3LYP) =  -386.275178570     A.U. after    9 cycles
 SCF Done:  E(RB3LYP) =  -386.275184682     A.U. after    8 cycles
 SCF Done:  E(RB3LYP) =  -386.275186107     A.U. after    7 cycles
 SCF Done:  E(RB3LYP) =  -386.275186532     A.U. after    7 cycles
 Optimization completed.
    -- Stationary point found.
 Normal termination of Gaussian 16 at Thu Aug  4 17:50:32 2022.

 ----------------------------------------------------------------------
 #N Geom=AllCheck Guess=TCheck SCRF=Check GenChk RB3LYP/6-31G(2df,p) Fr
 eq
 ----------------------------------------------------------------------

 Structure from the checkpoint file:  "COCC1pOCpCC1.chk"
 -------------------
 Title Card Required
 -------------------
 Charge =  0 Multiplicity = 1

                         Standard orientation:
 ---------------------------------------------------------------------
 Center     Atomic      Atomic             Coordinates (Angstroms)
 Number     Number       Type             X           Y           Z
 ---------------------------------------------------------------------
      1          6           0        2.933432   -0.139671    0.056872
      2          8           0        1.574983    0.084257    0.349080
      3          6           0        0.706524   -0.607668   -0.530287
      4          6           0       -0.732468   -0.291935   -0.201372
      5          8           0       -1.189183    0.963694   -0.615065
      6          6           0       -0.767946    2.058921    0.185079
      7          6           0       -1.750547   -1.386996   -0.345194
      8          6           0       -1.357164   -0.897257    1.031971
      9          1           0        3.523319    0.424922    0.783010
     10          1           0        3.197105    0.199660   -0.957480
     11          1           0        3.196917   -1.206653    0.138009
     12          1           0        0.877578   -1.694106   -0.448944
     13          1           0        0.908424   -0.316554   -1.574437
     14          1           0       -1.272123    2.943207   -0.213163
     15          1           0        0.316292    2.202294    0.145085
     16          1           0       -1.059717    1.924521    1.236024
     17          1           0       -1.422300   -2.369180   -0.667113
     18          1           0       -2.718677   -1.080686   -0.723004
     19          1           0       -0.745044   -1.533052    1.661674
     20          1           0       -2.079161   -0.290342    1.565809
 ---------------------------------------------------------------------

 SCF Done:  E(RB3LYP) =  -386.275186532     A.U. after    1 cycles

 The electronic state is 1-A.
 Alpha  occ. eigenvalues --  -19.14071 -19.13495 -10.23437 -10.22700 -10.22489
 Alpha  occ. eigenvalues --  -10.21053 -10.18246 -10.18213  -1.03867  -1.02291
 Alpha  occ. eigenvalues --   -0.84811  -0.72784  -0.68252  -0.64554  -0.60169
 Alpha  occ. eigenvalues --   -0.55324  -0.50504  -0.49020  -0.48151  -0.46338
 Alpha  occ. eigenvalues --   -0.43632  -0.43293  -0.42000  -0.39410  -0.38650
 Alpha  occ. eigenvalues --   -0.36320  -0.34188  -0.31762  -0.30647  -0.27105
 Alpha  occ. eigenvalues --   -0.25746  -0.24295
 Alpha virt. eigenvalues --    0.08155   0.10388   0.11278   0.12226   0.12913
 Alpha virt. eigenvalues --    0.15201   0.15758   0.16060   0.16465   0.17170
 Alpha virt. eigenvalues --    0.17988   0.18462   0.18969   0.20324   0.21988

 Mulliken charges:
               1
     1  C   -0.225461
     2  O   -0.232686
     3  C   -0.126112
     4  C    0.427672
     5  O   -0.292134
     6  C   -0.244907
     7  C   -0.320380
     8  C   -0.311980
     9  H    0.126939
    10  H    0.105182
    11  H    0.102645
    12  H    0.081808
    13  H    0.095032
    14  H    0.116060
    15  H    0.124765
    16  H    0.103383
    17  H    0.110026
    18  H    0.124135
    19  H    0.117274
    20  H    0.118739
 Sum of Mulliken charges =  -0.00000

 Dipole moment (field-independent basis, Debye):
    X=              1.0850    Y=             -0.6825    Z=              0.1906  Tot=              1.2959
 Quadrupole moment (field-independent basis, Debye-Ang):
   XX=            -46.6261   YY=            -47.0928   ZZ=            -50.5193
   XY=             -0.5464   XZ=             -2.0132   YZ=              1.3838

  Exact polarizability:  79.330   2.099  74.632  -0.056   1.147  63.283
 Approx polarizability:  98.337   1.964 101.065   1.293   1.429  96.050

                      1                      2                      3
                      A                      A                      A
 Frequencies --     75.1325                92.5008               111.8076
 Red. masses --      2.5376                 2.2825                 1.7028
 Frc consts  --      0.0084                 0.0115                 0.0125
 IR Inten    --      0.9406                 3.4398                 1.3151

                      4                      5                      6
                      A                      A                      A
 Frequencies --    173.3520               189.5952               232.6169
 Red. masses --      3.2125                 1.3689                 1.3331
 Frc consts  --      0.0569                 0.0290                 0.0425
 IR Inten    --      1.4034                 3.0707                 3.4243

                      7                      8                      9
                      A                      A                      A
 Frequencies --    269.4936               306.2906               357.7905
 Red. masses --      2.1085                 3.0482                 2.7044
 Frc consts  --      0.0902                 0.1685                 0.2040
 IR Inten    --      1.2828                 1.0587                 1.6434

                     10                     11                     12
                      A                      A                      A
 Frequencies --    384.7593               467.7771               549.5645
 Red. masses --      2.6215                 3.2106                 3.4696
 Frc consts  --      0.2287                 0.4139                 0.6174
 IR Inten    --      4.4427                 9.7521                 0.5862

                     13                     14                     15
                      A                      A                      A
 Frequencies --    747.0092               780.8696               886.3753
 Red. masses --      2.5228                 1.1614                 1.7590
 Frc consts  --      0.8294                 0.4172                 0.8142
 IR Inten    --      4.2533                 1.3959                16.7303

                     16                     17                     18
                      A                      A                      A
 Frequencies --    926.1025               935.4904               978.0745
 Red. masses --      1.8807                 1.8528                 2.6114
 Frc consts  --      0.9503                 0.9553                 1.4719
 IR Inten    --      6.0403                 2.9137                18.6830

                     19                     20                     21
                      A                      A                      A
 Frequencies --   1009.6726              1040.7826              1055.6941
 Red. masses --      3.7701                 1.5052                 1.9888
 Frc consts  --      2.2645                 0.9607                 1.3059
 IR Inten    --     12.5675                 2.7786                 1.5508

                     22                     23                     24
                      A                      A                      A
 Frequencies --   1079.0377              1105.0345              1148.9800
 Red. masses --      1.4709                 4.9682                 6.1840
 Frc consts  --      1.0090                 3.5744                 4.8100
 IR Inten    --      4.0013                79.6068               174.9943

                     25                     26                     27
                      A                      A                      A
 Frequencies --   1183.7863              1185.9513              1188.4285
 Red. masses --      1.2859                 1.2726                 1.2807
 Frc consts  --      1.0617                 1.0546                 1.0657
 IR Inten    --      6.8605                 0.8183                 0.8368

                     28                     29                     30
                      A                      A                      A
 Frequencies --   1221.2093              1228.8301              1250.2712
 Red. masses --      1.5414                 1.5766                 1.4603
 Frc consts  --      1.3544                 1.4026                 1.3449
 IR Inten    --     24.1869                13.9566                14.0263

                     31                     32                     33
                      A                      A                      A
 Frequencies --   1309.5886              1339.3196              1426.6151
 Red. masses --      2.2010                 1.7680                 1.5073
 Frc consts  --      2.2240                 1.8685                 1.8074
 IR Inten    --     45.9267                44.9356                20.2362

                     34                     35                     36
                      A                      A                      A
 Frequencies --   1455.8755              1476.0882              1478.1741
 Red. masses --      1.0944                 1.1640                 1.1183
 Frc consts  --      1.3667                 1.4942                 1.4397
 IR Inten    --      2.8598                 5.7839                 1.8979

                     37                     38                     39
                      A                      A                      A
 Frequencies --   1484.9238              1486.1039              1494.7731
 Red. masses --      1.0526                 1.0773                 1.1802
 Frc consts  --      1.3675                 1.4018                 1.5537
 IR Inten    --      2.8198                 2.4656                10.7376

                     40                     41                     42
                      A                      A                      A
 Frequencies --   1499.5871              1514.3462              1519.5706
 Red. masses --      1.2730                 1.0651                 1.0833
 Frc consts  --      1.6867                 1.4391                 1.4738
 IR Inten    --      7.0162                 5.0233                 4.4923

                     43                     44                     45
                      A                      A                      A
 Frequencies --   2954.2411              2969.5415              2991.8873
 Red. masses --      1.0516                 1.0408                 1.1044
 Frc consts  --      5.4073                 5.4074                 5.8248
 IR Inten    --     29.1966                81.4487                61.5041

                     46                     47                     48
                      A                      A                      A
 Frequencies --   3005.3005              3010.7355              3079.7500
 Red. masses --      1.0399                 1.1031                 1.0922
 Frc consts  --      5.5335                 5.8911                 6.1033
 IR Inten    --     47.4389                47.1050                40.1334

                     49                     50                     51
                      A                      A                      A
 Frequencies --   3113.1496              3118.6501              3137.3859
 Red. masses --      1.0958                 1.1047                 1.0510
 Frc consts  --      6.2570                 6.3302                 6.0952
 IR Inten    --     28.0707                27.9345                15.3867

                     52                     53                     54
                      A                      A                      A
 Frequencies --   3140.9549              3221.4481              3235.1447
 Red. masses --      1.0583                 1.1182                 1.1157
 Frc consts  --      6.1513                 6.8374                 6.8800
 IR Inten    --      5.0402                 0.2855                12.4325

 - Thermochemistry -
 -------------------
 Temperature   298.150 Kelvin.  Pressure   1.00000 Atm.
 Atom     1 has atomic number  6 and mass  12.00000

 Molecular mass:   116.08373 amu.
 Principal axes and moments of inertia in atomic units:
                           1         2         3
     Eigenvalues --   621.826711194.173881541.23764
           X            0.99986  -0.00271  -0.01635
           Y            0.00316   0.99962   0.02721
           Z            0.01627  -0.02725   0.99950
 This molecule is an asymmetric top.
 Rotational symmetry number  1.
 Warning -- assumption of classical behavior for rotation
           may cause significant error
 Rotational temperatures (Kelvin)      0.13929     0.07253     0.05620
 Rotational constants (GHZ):           2.90232     1.51129     1.17097
 Zero-point vibrational energy     458321.9 (Joules/Mol)
                                  109.54156 (Kcal/Mol)
 Warning -- explicit consideration of  12 degrees of freedom as
           vibrations may cause significant error
 Vibrational temperatures:    108.10   133.09   160.87   249.41   272.79
          (Kelvin)            334.68   387.74   440.68   514.78   553.58
                              673.03   790.70  1074.78  1123.50  1275.30
                             1332.45  1345.96  1407.23  1452.69  1497.45
                             1518.91  1552.49  1589.90  1653.13  1703.20
                             1706.32  1709.88  1757.05  1768.01  1798.86
                             1884.21  1926.98  2052.58  2094.68  2123.76
                             2126.76  2136.47  2138.17  2150.65  2157.57
                             2178.81  2186.32  4250.49  4272.51  4304.66
                             4323.96  4331.78  4431.07  4479.13  4487.04
                             4514.00  4519.13  4634.95  4654.65

 Zero-point correction=                           0.174566 (Hartree/Particle)
 Thermal correction to Energy=                    0.184035
 Thermal correction to Enthalpy=                  0.184979
 Thermal correction to Gibbs Free Energy=         0.140186
 Sum of electronic and zero-point Energies=           -386.100621
 Sum of electronic and thermal Energies=              -386.091152
 Sum of electronic and thermal Enthalpies=            -386.090208
 Sum of electronic and thermal Free Energies=         -386.135001

                     E (Thermal)             CV                S
                      KCal/Mol        Cal/Mol-Kelvin    Cal/Mol-Kelvin
 Total                  115.484             33.624             94.275
 Electronic               0.000              0.000              0.000
 Translational            0.889              2.981             40.163
 Rotational               0.889              2.981             28.528
 Vibrational            113.706             27.662             25.585
 Vibration     1          0.599              1.966              4.014
 Vibration     2          0.602              1.955              3.606
 Vibration     3          0.607              1.940              3.237
 Vibration     4          0.627              1.875              2.399
 Vibration     5          0.633              1.854              2.232
 Vibration     6          0.653              1.791              1.859
 Vibration     7          0.674              1.729              1.599
 Vibration     8          0.697              1.662              1.382
 Vibration     9          0.733              1.559              1.132
 Vibration    10          0.754              1.503              1.020
 Vibration    11          0.825              1.322              0.744
 Vibration    12          0.905              1.141              0.545

                           ! Non-Optimized Parameters !
 Normal termination of Gaussian 16 at Thu Aug  4 18:15:38 2022.
