 Gaussian 16, Revision A.03,
 Gaussian 16:  ES64L-G16RevA.03 25-Dec-2016

 -----------------------------
 # opt freq b3lyp/6-31g(2df,p)
 -----------------------------

 -------------------
 Title Card Required
 -------------------
 Symbolic Z-matrix:
 Charge =  0 Multiplicity = 1

 SCF Done:  E(RB3LYP) =  -388.462748411     A.U. after   13 cycles
 SCF Done:  E(RB3LYP) =  -388.480497454     A.U. after   11 cycles
 SCF Done:  E(RB3LYP) =  -388.486492261     A.U. after   11 cycles
 SCF Done:  E(RB3LYP) =  -388.488389753     A.U. after   10 cycles
 SCF Done:  E(RB3LYP) =  -388.488878430     A.U. after   10 cycles
 SCF Done:  E(RB3LYP) =  -388.488950726     A.U. after    9 cycles
 SCF Done:  E(RB3LYP) =  -388.488969961     A.U. after    9 cycles
 SCF Done:  E(RB3LYP) =  -388.488981792     A.U. after    9 cycles
 SCF Done:  E(RB3LYP) =  -388.488982810     A.U. after    7 cycles
 SCF Done:  E(RB3LYP) =  -388.488982911     A.U. after    6 cycles
 Optimization completed.
    -- Stationary point found.
 Normal termination of Gaussian 16 at Thu Aug  4 12:40:59 2022.

 ----------------------------------------------------------------------
 #N Geom=AllCheck Guess=TCheck SCRF=Check GenChk RB3LYP/6-31G(2df,p) Fr
 eq
 ----------------------------------------------------------------------

 Structure from the checkpoint file:  "COCC12CCCC1C2.chk"
 -------------------
 Title Card Required
 -------------------
 Charge =  0 Multiplicity = 1

                         Standard orientation:
 ---------------------------------------------------------------------
 Center     Atomic      Atomic             Coordinates (Angstroms)
 Number     Number       Type             X           Y           Z
 ---------------------------------------------------------------------
      1          6           0       -3.262994   -0.383358   -0.312074
      2          8           0       -1.858997   -0.451383   -0.282183
      3          6           0       -1.264052    0.687017    0.313741
      4          6           0        0.222962    0.482325    0.382336
      5          6           0        0.756159   -0.758695    1.113182
      6          6           0        1.655962   -1.473696    0.078628
      7          6           0        2.196523   -0.358626   -0.849067
      8          6           0        1.123241    0.731116   -0.814201
      9          6           0        1.131651    1.686512    0.353295
     10          1           0       -3.627459   -1.303594   -0.775609
     11          1           0       -3.620227    0.475895   -0.902685
     12          1           0       -3.692226   -0.301081    0.699708
     13          1           0       -1.683745    0.840942    1.324274
     14          1           0       -1.498714    1.592744   -0.271961
     15          1           0       -0.066824   -1.400668    1.436292
     16          1           0        1.324151   -0.476915    2.008021
     17          1           0        1.033367   -2.153830   -0.512503
     18          1           0        2.448700   -2.072307    0.538335
     19          1           0        2.364779   -0.724975   -1.865835
     20          1           0        3.159064    0.024930   -0.489163
     21          1           0        0.700195    1.079714   -1.750263
     22          1           0        0.678728    2.663492    0.211107
     23          1           0        1.995482    1.691146    1.012709
 ---------------------------------------------------------------------

 SCF Done:  E(RB3LYP) =  -388.488982911     A.U. after    1 cycles

 The electronic state is 1-A.
 Alpha  occ. eigenvalues --  -19.13498 -10.22306 -10.22090 -10.18445 -10.17896
 Alpha  occ. eigenvalues --  -10.17820 -10.17320 -10.17042 -10.17002  -1.02782
 Alpha  occ. eigenvalues --   -0.87394  -0.75775  -0.72915  -0.68735  -0.63680
 Alpha  occ. eigenvalues --   -0.59882  -0.56202  -0.52650  -0.49398  -0.47992
 Alpha  occ. eigenvalues --   -0.46812  -0.44886  -0.43102  -0.40788  -0.40450
 Alpha  occ. eigenvalues --   -0.39545  -0.38012  -0.33953  -0.32787  -0.32406
 Alpha  occ. eigenvalues --   -0.32046  -0.30948  -0.27616  -0.25806  -0.24925
 Alpha virt. eigenvalues --    0.08653   0.09948   0.10973   0.11713   0.12495
 Alpha virt. eigenvalues --    0.14180   0.14798   0.15824   0.16337   0.16930
 Alpha virt. eigenvalues --    0.17416   0.17710   0.18487   0.19280   0.20692

 Mulliken charges:
               1
     1  C   -0.219998
     2  O   -0.236774
     3  C   -0.169173
     4  C    0.374497
     5  C   -0.290887
     6  C   -0.182024
     7  C   -0.231818
     8  C   -0.055796
     9  C   -0.346033
    10  H    0.124847
    11  H    0.100709
    12  H    0.101265
    13  H    0.081643
    14  H    0.078728
    15  H    0.106787
    16  H    0.089842
    17  H    0.108744
    18  H    0.086691
    19  H    0.097390
    20  H    0.094736
    21  H    0.081605
    22  H    0.102415
    23  H    0.102604
 Sum of Mulliken charges =  -0.00000

 Dipole moment (field-independent basis, Debye):
    X=             -0.6244    Y=              0.5845    Z=              0.2201  Tot=              0.8832
 Quadrupole moment (field-independent basis, Debye-Ang):
   XX=            -52.3627   YY=            -56.1726   ZZ=            -56.0652
   XY=             -0.9169   XZ=              0.4089   YZ=             -0.0915

  Exact polarizability:  96.832   0.379  84.408  -0.513   0.406  77.411
 Approx polarizability: 122.111   1.806 120.209  -0.519   1.460 117.063

                      1                      2                      3
                      A                      A                      A
 Frequencies --     77.4034                84.0109                99.4945
 Red. masses --      2.8046                 2.7517                 2.0745
 Frc consts  --      0.0099                 0.0114                 0.0121
 IR Inten    --      0.1578                 0.8038                 2.9855

                      4                      5                      6
                      A                      A                      A
 Frequencies --    160.8937               231.4853               257.6852
 Red. masses --      1.8463                 1.3469                 2.2840
 Frc consts  --      0.0282                 0.0425                 0.0894
 IR Inten    --      0.5209                 2.8390                 0.5489

                      7                      8                      9
                      A                      A                      A
 Frequencies --    316.4099               344.9622               425.6896
 Red. masses --      2.5841                 2.4084                 2.1632
 Frc consts  --      0.1524                 0.1689                 0.2310
 IR Inten    --      0.0091                 1.0522                 1.4202

                     10                     11                     12
                      A                      A                      A
 Frequencies --    485.2905               568.6698               623.1677
 Red. masses --      3.1933                 1.9102                 3.4534
 Frc consts  --      0.4431                 0.3640                 0.7902
 IR Inten    --      0.9478                 0.2398                 1.3285

                     13                     14                     15
                      A                      A                      A
 Frequencies --    759.3617               818.3084               826.1703
 Red. masses --      3.0705                 2.0803                 1.9713
 Frc consts  --      1.0432                 0.8208                 0.7928
 IR Inten    --      2.2941                 3.9306                 4.4251

                     16                     17                     18
                      A                      A                      A
 Frequencies --    847.8291               881.1293               936.1111
 Red. masses --      1.3950                 2.5485                 1.8103
 Frc consts  --      0.5908                 1.1658                 0.9347
 IR Inten    --      0.3808                 0.9605                 2.6673

                     19                     20                     21
                      A                      A                      A
 Frequencies --    945.0733               965.7714               979.2987
 Red. masses --      1.8728                 1.6382                 2.4250
 Frc consts  --      0.9855                 0.9003                 1.3702
 IR Inten    --      0.5158                 7.2435                11.9622

                     22                     23                     24
                      A                      A                      A
 Frequencies --   1018.4463              1023.9505              1061.6868
 Red. masses --      2.5139                 2.0084                 1.3111
 Frc consts  --      1.5363                 1.2407                 0.8707
 IR Inten    --      6.0219                 2.3581                 3.6593

                     25                     26                     27
                      A                      A                      A
 Frequencies --   1067.1928              1088.0914              1113.3341
 Red. masses --      1.5598                 1.6814                 1.7353
 Frc consts  --      1.0467                 1.1729                 1.2673
 IR Inten    --      0.0792                 0.2178                 3.0575

                     28                     29                     30
                      A                      A                      A
 Frequencies --   1153.7834              1180.9081              1185.7258
 Red. masses --      5.3650                 1.3674                 1.3794
 Frc consts  --      4.2079                 1.1236                 1.1426
 IR Inten    --    170.4683                 8.0916                 6.2345

                     31                     32                     33
                      A                      A                      A
 Frequencies --   1209.8434              1225.1147              1238.2312
 Red. masses --      1.4144                 1.6401                 1.3991
 Frc consts  --      1.2198                 1.4504                 1.2639
 IR Inten    --      0.6363                33.9308                 4.7403

                     34                     35                     36
                      A                      A                      A
 Frequencies --   1256.2753              1296.9387              1303.0780
 Red. masses --      1.3075                 1.6413                 1.3309
 Frc consts  --      1.2158                 1.6266                 1.3315
 IR Inten    --      2.0743                 2.5405                 2.0205

                     37                     38                     39
                      A                      A                      A
 Frequencies --   1324.8440              1332.0007              1354.1839
 Red. masses --      1.6700                 1.3447                 1.5361
 Frc consts  --      1.7270                 1.4057                 1.6597
 IR Inten    --      1.1340                 0.3678                 0.4511

                     40                     41                     42
                      A                      A                      A
 Frequencies --   1388.3796              1432.5536              1477.9454
 Red. masses --      1.4882                 1.7226                 1.1321
 Frc consts  --      1.6902                 2.0829                 1.4569
 IR Inten    --     13.2287                32.4935                 0.7660

                     43                     44                     45
                      A                      A                      A
 Frequencies --   1480.1674              1485.1518              1490.7389
 Red. masses --      1.1761                 1.0546                 1.0959
 Frc consts  --      1.5181                 1.3705                 1.4349
 IR Inten    --      0.9342                 3.9615                 0.9948

                     46                     47                     48
                      A                      A                      A
 Frequencies --   1492.6305              1502.1573              1508.9895
 Red. masses --      1.2368                 1.0693                 1.1159
 Frc consts  --      1.6234                 1.4216                 1.4971
 IR Inten    --      3.3194                 7.2179                 2.7579

                     49                     50                     51
                      A                      A                      A
 Frequencies --   1522.6573              2935.7171              2964.1195
 Red. masses --      1.0864                 1.0554                 1.0600
 Frc consts  --      1.4840                 5.3593                 5.4870
 IR Inten    --      1.6542                40.8950                82.2351

                     52                     53                     54
                      A                      A                      A
 Frequencies --   2967.1703              3005.6126              3028.0595
 Red. masses --      1.0791                 1.1028                 1.0665
 Frc consts  --      5.5977                 5.8699                 5.7618
 IR Inten    --     66.7222                56.1399                46.6039

                     55                     56                     57
                      A                      A                      A
 Frequencies --   3029.0180              3041.6741              3078.0653
 Red. masses --      1.0687                 1.0618                 1.0947
 Frc consts  --      5.7771                 5.7878                 6.1107
 IR Inten    --     30.5307                31.6403                27.5316

                     58                     59                     60
                      A                      A                      A
 Frequencies --   3089.2168              3101.7654              3108.4163
 Red. masses --      1.1003                 1.0999                 1.0545
 Frc consts  --      6.1869                 6.2348                 6.0029
 IR Inten    --     30.9923                32.1227                27.8287

                     61                     62                     63
                      A                      A                      A
 Frequencies --   3109.8254              3162.4179              3192.6987
 Red. masses --      1.0953                 1.0915                 1.1151
 Frc consts  --      6.2411                 6.4318                 6.6972
 IR Inten    --     27.8593                12.9133                17.6603

 - Thermochemistry -
 -------------------
 Temperature   298.150 Kelvin.  Pressure   1.00000 Atm.
 Atom     1 has atomic number  6 and mass  12.00000

 Molecular mass:   126.10447 amu.
 Principal axes and moments of inertia in atomic units:
                           1         2         3
     Eigenvalues --   619.759651652.345021866.43292
           X            0.99994  -0.01104   0.00005
           Y            0.01104   0.99993  -0.00338
           Z           -0.00002   0.00338   0.99999
 This molecule is an asymmetric top.
 Rotational symmetry number  1.
 Warning -- assumption of classical behavior for rotation
           may cause significant error
 Rotational temperatures (Kelvin)      0.13975     0.05242     0.04641
 Rotational constants (GHZ):           2.91200     1.09223     0.96695
 Zero-point vibrational energy     542285.1 (Joules/Mol)
                                  129.60926 (Kcal/Mol)
 Warning -- explicit consideration of  11 degrees of freedom as
           vibrations may cause significant error
 Vibrational temperatures:    111.37   120.87   143.15   231.49   333.06
          (Kelvin)            370.75   455.24   496.32   612.47   698.22
                              818.19   896.60  1092.55  1177.36  1188.67
                             1219.84  1267.75  1346.86  1359.75  1389.53
                             1408.99  1465.32  1473.24  1527.53  1535.45
                             1565.52  1601.84  1660.04  1699.06  1706.00
                             1740.69  1762.67  1781.54  1807.50  1866.01
                             1874.84  1906.15  1916.45  1948.37  1997.57
                             2061.13  2126.43  2129.63  2136.80  2144.84
                             2147.56  2161.27  2171.10  2190.76  4223.84
                             4264.71  4269.10  4324.41  4356.70  4358.08
                             4376.29  4428.65  4444.69  4462.75  4472.32
                             4474.35  4550.01  4593.58

 Zero-point correction=                           0.206545 (Hartree/Particle)
 Thermal correction to Energy=                    0.215814
 Thermal correction to Enthalpy=                  0.216758
 Thermal correction to Gibbs Free Energy=         0.172038
 Sum of electronic and zero-point Energies=           -388.282437
 Sum of electronic and thermal Energies=              -388.273169
 Sum of electronic and thermal Enthalpies=            -388.272225
 Sum of electronic and thermal Free Energies=         -388.316945

                     E (Thermal)             CV                S
                      KCal/Mol        Cal/Mol-Kelvin    Cal/Mol-Kelvin
 Total                  135.425             34.844             94.122
 Electronic               0.000              0.000              0.000
 Translational            0.889              2.981             40.409
 Rotational               0.889              2.981             29.037
 Vibrational            133.648             28.883             24.675
 Vibration     1          0.599              1.964              3.956
 Vibration     2          0.601              1.960              3.795
 Vibration     3          0.604              1.949              3.464
 Vibration     4          0.622              1.890              2.539
 Vibration     5          0.653              1.793              1.867
 Vibration     6          0.667              1.750              1.677
 Vibration     7          0.703              1.642              1.329
 Vibration     8          0.723              1.586              1.189
 Vibration     9          0.788              1.414              0.873
 Vibration    10          0.841              1.283              0.696
 Vibration    11          0.925              1.099              0.507

 Optimization completed.
    -- Stationary point found.
 Normal termination of Gaussian 16 at Thu Aug  4 13:24:03 2022.
