 Gaussian 16, Revision A.03,
 Gaussian 16:  ES64L-G16RevA.03 25-Dec-2016

 -----------------------------
 # opt freq b3lyp/6-31g(2df,p)
 -----------------------------

 -------------------
 Title Card Required
 -------------------
 Symbolic Z-matrix:
 Charge =  0 Multiplicity = 1

 SCF Done:  E(RB3LYP) =  -460.320692636     A.U. after   14 cycles
 SCF Done:  E(RB3LYP) =  -460.328618619     A.U. after   13 cycles
 SCF Done:  E(RB3LYP) =  -460.330217705     A.U. after   12 cycles
 SCF Done:  E(RB3LYP) =  -460.331026023     A.U. after   12 cycles
 SCF Done:  E(RB3LYP) =  -460.331236037     A.U. after   10 cycles
 SCF Done:  E(RB3LYP) =  -460.331301013     A.U. after   11 cycles
 SCF Done:  E(RB3LYP) =  -460.331319423     A.U. after    9 cycles
 SCF Done:  E(RB3LYP) =  -460.331326297     A.U. after    9 cycles
 SCF Done:  E(RB3LYP) =  -460.331370328     A.U. after   10 cycles
 SCF Done:  E(RB3LYP) =  -460.319334925     A.U. after   13 cycles
 SCF Done:  E(RB3LYP) =  -460.333280799     A.U. after   12 cycles
 SCF Done:  E(RB3LYP) =  -460.336839021     A.U. after   12 cycles
 SCF Done:  E(RB3LYP) =  -460.336403594     A.U. after   13 cycles
 SCF Done:  E(RB3LYP) =  -460.336715341     A.U. after   11 cycles
 SCF Done:  E(RB3LYP) =  -460.337369735     A.U. after    9 cycles
 SCF Done:  E(RB3LYP) =  -460.337530086     A.U. after   11 cycles
 SCF Done:  E(RB3LYP) =  -460.337551652     A.U. after    9 cycles
 SCF Done:  E(RB3LYP) =  -460.337553128     A.U. after    8 cycles
 SCF Done:  E(RB3LYP) =  -460.337553412     A.U. after    7 cycles
 Optimization completed.
    -- Stationary point found.
 Normal termination of Gaussian 16 at Thu Aug  4 12:20:46 2022.

 ----------------------------------------------------------------------
 #N Geom=AllCheck Guess=TCheck SCRF=Check GenChk RB3LYP/6-31G(2df,p) Fr
 eq
 ----------------------------------------------------------------------

 Structure from the checkpoint file:  "COCC1pCpCOC1dO.chk"
 -------------------
 Title Card Required
 -------------------
 Charge =  0 Multiplicity = 1

                         Standard orientation:
 ---------------------------------------------------------------------
 Center     Atomic      Atomic             Coordinates (Angstroms)
 Number     Number       Type             X           Y           Z
 ---------------------------------------------------------------------
      1          6           0       -3.047567   -0.268512   -0.076326
      2          8           0       -1.673952   -0.298315    0.238512
      3          6           0       -0.960486    0.803499   -0.269407
      4          6           0        0.519765    0.618214    0.039545
      5          6           0        1.349820    1.799280   -0.461265
      6          6           0        0.858623    0.089341    1.453246
      7          8           0        1.379948   -1.152710    0.875290
      8          6           0        1.071730   -0.752797   -0.396191
      9          8           0        1.242538   -1.342498   -1.414174
     10          1           0       -3.499635   -1.161931    0.359495
     11          1           0       -3.213649   -0.277928   -1.164036
     12          1           0       -3.540898    0.622734    0.341886
     13          1           0       -1.325148    1.745669    0.176645
     14          1           0       -1.090948    0.884477   -1.361138
     15          1           0        1.020129    2.733771    0.004919
     16          1           0        1.251796    1.904092   -1.545952
     17          1           0        2.410446    1.661043   -0.233356
     18          1           0        0.003400   -0.120584    2.095159
     19          1           0        1.644927    0.622691    1.991733
 ---------------------------------------------------------------------

 SCF Done:  E(RB3LYP) =  -460.337553412     A.U. after    1 cycles

 The electronic state is 1-A.
 Alpha  occ. eigenvalues --  -19.17496 -19.15550 -19.12841 -10.29936 -10.24584
 Alpha  occ. eigenvalues --  -10.24547 -10.23444 -10.21826 -10.19842  -1.09991
 Alpha  occ. eigenvalues --   -1.04878  -1.02620  -0.82092  -0.72550  -0.69531
 Alpha  occ. eigenvalues --   -0.65970  -0.64088  -0.51928  -0.51652  -0.50826
 Alpha  occ. eigenvalues --   -0.48834  -0.47434  -0.46379  -0.43749  -0.42740
 Alpha  occ. eigenvalues --   -0.41507  -0.41034  -0.38879  -0.36696  -0.36380
 Alpha  occ. eigenvalues --   -0.34486  -0.32474  -0.29508  -0.27131  -0.26413
 Alpha virt. eigenvalues --    0.01718   0.07287   0.09223   0.09947   0.11699
 Alpha virt. eigenvalues --    0.12448   0.12925   0.14603   0.15588   0.16184
 Alpha virt. eigenvalues --    0.16389   0.17626   0.17703   0.19278   0.20476

 Mulliken charges:
               1
     1  C   -0.229214
     2  O   -0.236939
     3  C   -0.106396
     4  C    0.058838
     5  C   -0.464432
     6  C   -0.106148
     7  O   -0.245165
     8  C    0.460652
     9  O   -0.339980
    10  H    0.135980
    11  H    0.114512
    12  H    0.106223
    13  H    0.091176
    14  H    0.108902
    15  H    0.124503
    16  H    0.141728
    17  H    0.134580
    18  H    0.135601
    19  H    0.115579
 Sum of Mulliken charges =  -0.00000

 Dipole moment (field-independent basis, Debye):
    X=             -2.0303    Y=              3.8348    Z=              1.3742  Tot=              4.5515
 Quadrupole moment (field-independent basis, Debye-Ang):
   XX=            -49.3289   YY=            -55.9692   ZZ=            -54.6004
   XY=              4.5513   XZ=              2.8222   YZ=             -1.6986

  Exact polarizability:  75.725   1.615  69.068  -0.071   2.172  71.499
 Approx polarizability:  95.020  -2.196 100.407  -0.425   6.047 113.714

                      1                      2                      3
                      A                      A                      A
 Frequencies --     71.8937                99.4130               115.9869
 Red. masses --      3.4553                 2.3693                 5.9055
 Frc consts  --      0.0105                 0.0138                 0.0468
 IR Inten    --      2.6149                 2.5165                 0.1372

                      4                      5                      6
                      A                      A                      A
 Frequencies --    164.2002               199.2192               213.0897
 Red. masses --      2.8904                 1.3538                 1.7205
 Frc consts  --      0.0459                 0.0317                 0.0460
 IR Inten    --      0.1228                 1.6921                 2.9190

                      7                      8                      9
                      A                      A                      A
 Frequencies --    235.3139               270.6701               338.6231
 Red. masses --      1.4235                 2.8103                 2.3170
 Frc consts  --      0.0464                 0.1213                 0.1565
 IR Inten    --      2.1473                 2.5076                 1.3200

                     10                     11                     12
                      A                      A                      A
 Frequencies --    367.2103               469.7810               550.3656
 Red. masses --      3.1185                 3.7369                 3.6465
 Frc consts  --      0.2478                 0.4859                 0.6508
 IR Inten    --      2.3944                 3.7811                 2.7471

                     13                     14                     15
                      A                      A                      A
 Frequencies --    693.5280               748.5122               785.8797
 Red. masses --      4.7419                 5.3928                 5.2703
 Frc consts  --      1.3438                 1.7802                 1.9178
 IR Inten    --      2.8738                 1.7438                 4.2337

                     16                     17                     18
                      A                      A                      A
 Frequencies --    863.1734               934.8795               962.0203
 Red. masses --      3.0663                 1.6658                 3.7495
 Frc consts  --      1.3460                 0.8578                 2.0445
 IR Inten    --      1.5578                 2.1494                57.9204

                     19                     20                     21
                      A                      A                      A
 Frequencies --    969.8628              1010.6999              1034.1666
 Red. masses --      2.1225                 2.8759                 1.5130
 Frc consts  --      1.1763                 1.7309                 0.9534
 IR Inten    --     29.6838                10.4044                 2.7120

                     22                     23                     24
                      A                      A                      A
 Frequencies --   1115.9511              1159.8349              1162.4071
 Red. masses --      3.8224                 3.6229                 1.2475
 Frc consts  --      2.8047                 2.8714                 0.9931
 IR Inten    --    131.6888               128.1164                 0.1610

                     25                     26                     27
                      A                      A                      A
 Frequencies --   1173.3524              1197.3808              1208.9961
 Red. masses --      1.5009                 1.6998                 2.4933
 Frc consts  --      1.2175                 1.4359                 2.1472
 IR Inten    --      8.2501                 7.6121                53.1938

                     28                     29                     30
                      A                      A                      A
 Frequencies --   1239.3721              1277.8022              1289.6255
 Red. masses --      2.1916                 1.8651                 1.4779
 Frc consts  --      1.9834                 1.7942                 1.4482
 IR Inten    --     21.0733                 1.4134                 7.4652

                     31                     32                     33
                      A                      A                      A
 Frequencies --   1354.9150              1405.3304              1424.8538
 Red. masses --      1.8563                 1.3198                 1.2900
 Frc consts  --      2.0078                 1.5358                 1.5430
 IR Inten    --     17.6790                 5.1235                18.6840

                     34                     35                     36
                      A                      A                      A
 Frequencies --   1479.2078              1486.5993              1493.6957
 Red. masses --      1.1476                 1.0463                 1.0523
 Frc consts  --      1.4795                 1.3624                 1.3833
 IR Inten    --      1.6845                 5.6336                 3.9814

                     37                     38                     39
                      A                      A                      A
 Frequencies --   1494.1940              1499.5955              1506.1440
 Red. masses --      1.0652                 1.0593                 1.0911
 Frc consts  --      1.4011                 1.4035                 1.4583
 IR Inten    --      1.9002                12.4492                 6.4829

                     40                     41                     42
                      A                      A                      A
 Frequencies --   1522.9420              1934.2581              2948.0290
 Red. masses --      1.0938                12.6512                 1.0581
 Frc consts  --      1.4947                27.8875                 5.4180
 IR Inten    --      3.5599               366.8920                41.4475

                     43                     44                     45
                      A                      A                      A
 Frequencies --   2977.7065              2988.6867              3026.1331
 Red. masses --      1.0402                 1.0977                 1.1029
 Frc consts  --      5.4341                 5.7771                 5.9507
 IR Inten    --     68.5178                39.7516                46.7103

                     46                     47                     48
                      A                      A                      A
 Frequencies --   3036.6853              3076.2082              3106.7968
 Red. masses --      1.0354                 1.0581                 1.1012
 Frc consts  --      5.6252                 5.8996                 6.2627
 IR Inten    --     18.4621                30.7686                15.6306

                     49                     50                     51
                      A                      A                      A
 Frequencies --   3116.1554              3123.4691              3150.1922
 Red. masses --      1.1018                 1.0966                 1.1106
 Frc consts  --      6.3039                 6.3034                 6.4938
 IR Inten    --     14.9724                22.2468                13.8824

 - Thermochemistry -
 -------------------
 Temperature   298.150 Kelvin.  Pressure   1.00000 Atm.
 Atom     1 has atomic number  6 and mass  12.00000

 Molecular mass:   130.06299 amu.
 Principal axes and moments of inertia in atomic units:
                           1         2         3
     Eigenvalues --   784.714201464.190261605.92124
           X            0.99872   0.04940   0.01120
           Y           -0.04845   0.99614  -0.07325
           Z           -0.01478   0.07261   0.99725
 This molecule is an asymmetric top.
 Rotational symmetry number  1.
 Warning -- assumption of classical behavior for rotation
           may cause significant error
 Rotational temperatures (Kelvin)      0.11038     0.05915     0.05393
 Rotational constants (GHZ):           2.29987     1.23259     1.12380
 Zero-point vibrational energy     413160.3 (Joules/Mol)
                                   98.74768 (Kcal/Mol)
 Warning -- explicit consideration of  12 degrees of freedom as
           vibrations may cause significant error
 Vibrational temperatures:    103.44   143.03   166.88   236.25   286.63
          (Kelvin)            306.59   338.56   389.43   487.20   528.33
                              675.91   791.85   997.83  1076.94  1130.71
                             1241.91  1345.08  1384.13  1395.42  1454.17
                             1487.94  1605.60  1668.74  1672.44  1688.19
                             1722.76  1739.48  1783.18  1838.47  1855.48
                             1949.42  2021.96  2050.05  2128.25  2138.88
                             2149.09  2149.81  2157.58  2167.01  2191.17
                             2782.97  4241.56  4284.26  4300.05  4353.93
                             4369.11  4425.98  4469.99  4483.45  4493.98
                             4532.42

 Zero-point correction=                           0.157364 (Hartree/Particle)
 Thermal correction to Energy=                    0.167032
 Thermal correction to Enthalpy=                  0.167976
 Thermal correction to Gibbs Free Energy=         0.122416
 Sum of electronic and zero-point Energies=           -460.180189
 Sum of electronic and thermal Energies=              -460.170521
 Sum of electronic and thermal Enthalpies=            -460.169577
 Sum of electronic and thermal Free Energies=         -460.215137

                     E (Thermal)             CV                S
                      KCal/Mol        Cal/Mol-Kelvin    Cal/Mol-Kelvin
 Total                  104.814             33.994             95.889
 Electronic               0.000              0.000              0.000
 Translational            0.889              2.981             40.502
 Rotational               0.889              2.981             29.002
 Vibrational            103.037             28.033             26.385
 Vibration     1          0.598              1.967              4.101
 Vibration     2          0.604              1.950              3.466
 Vibration     3          0.608              1.936              3.166
 Vibration     4          0.623              1.886              2.501
 Vibration     5          0.637              1.841              2.140
 Vibration     6          0.644              1.821              2.017
 Vibration     7          0.655              1.787              1.838
 Vibration     8          0.674              1.727              1.592
 Vibration     9          0.719              1.598              1.219
 Vibration    10          0.740              1.540              1.091
 Vibration    11          0.827              1.317              0.738
 Vibration    12          0.906              1.139              0.543

 Optimization completed.
    -- Stationary point found.
 Normal termination of Gaussian 16 at Thu Aug  4 12:48:54 2022.
