 Gaussian 16, Revision A.03,
 Gaussian 16:  ES64L-G16RevA.03 25-Dec-2016

 -----------------------------
 # opt freq b3lyp/6-31g(2df,p)
 -----------------------------

 -------------------
 Title Card Required
 -------------------
 Symbolic Z-matrix:
 Charge =  0 Multiplicity = 1

 SCF Done:  E(RB3LYP) =  -425.572319718     A.U. after   12 cycles
 SCF Done:  E(RB3LYP) =  -425.578087932     A.U. after   10 cycles
 SCF Done:  E(RB3LYP) =  -425.578929119     A.U. after   10 cycles
 SCF Done:  E(RB3LYP) =  -425.579498542     A.U. after   10 cycles
 SCF Done:  E(RB3LYP) =  -425.580092078     A.U. after   10 cycles
 SCF Done:  E(RB3LYP) =  -425.581759267     A.U. after   11 cycles
 SCF Done:  E(RB3LYP) =  -425.577869202     A.U. after   11 cycles
 SCF Done:  E(RB3LYP) =  -425.583153679     A.U. after   11 cycles
 SCF Done:  E(RB3LYP) =  -425.584403732     A.U. after   11 cycles
 SCF Done:  E(RB3LYP) =  -425.586541195     A.U. after   11 cycles
 SCF Done:  E(RB3LYP) =  -425.594118224     A.U. after   10 cycles
 SCF Done:  E(RB3LYP) =  -425.594625505     A.U. after   10 cycles
 SCF Done:  E(RB3LYP) =  -425.594743894     A.U. after    9 cycles
 SCF Done:  E(RB3LYP) =  -425.594775688     A.U. after    9 cycles
 SCF Done:  E(RB3LYP) =  -425.594781577     A.U. after    7 cycles
 SCF Done:  E(RB3LYP) =  -425.594783709     A.U. after    7 cycles
 SCF Done:  E(RB3LYP) =  -425.594784623     A.U. after    7 cycles
 SCF Done:  E(RB3LYP) =  -425.594785070     A.U. after    6 cycles
 SCF Done:  E(RB3LYP) =  -425.594785244     A.U. after    6 cycles
 Optimization completed.
    -- Stationary point found.
 Normal termination of Gaussian 16 at Thu Aug  4 06:23:47 2022.

 ----------------------------------------------------------------------
 #N Geom=AllCheck Guess=TCheck SCRF=Check GenChk RB3LYP/6-31G(2df,p) Fr
 eq
 ----------------------------------------------------------------------

 Structure from the checkpoint file:  "COCC1pOCpCC1C.chk"
 -------------------
 Title Card Required
 -------------------
 Charge =  0 Multiplicity = 1

                         Standard orientation:
 ---------------------------------------------------------------------
 Center     Atomic      Atomic             Coordinates (Angstroms)
 Number     Number       Type             X           Y           Z
 ---------------------------------------------------------------------
      1          6           0       -3.254137   -0.558031   -0.129026
      2          8           0       -1.985286   -0.090520    0.261045
      3          6           0       -0.933300   -0.683698   -0.480448
      4          6           0        0.396669   -0.111849   -0.052953
      5          8           0        0.673978    1.172266   -0.532607
      6          6           0        0.023760    2.234841    0.149450
      7          6           0        0.976417   -0.513272    1.284366
      8          6           0        1.585851   -1.041972    0.002084
      9          6           0        2.953251   -0.579738   -0.447444
     10          1           0       -3.996323   -0.054791    0.495464
     11          1           0       -3.348933   -1.646606    0.014203
     12          1           0       -3.467536   -0.334307   -1.186423
     13          1           0       -1.075151   -0.497736   -1.558034
     14          1           0       -0.937166   -1.775761   -0.327216
     15          1           0        0.401556    3.161040   -0.291275
     16          1           0        0.259393    2.227356    1.222669
     17          1           0       -1.063594    2.186954    0.035492
     18          1           0        0.404002   -1.178238    1.921565
     19          1           0        1.540875    0.245735    1.815825
     20          1           0        1.365229   -2.081763   -0.227362
     21          1           0        3.079708    0.489658   -0.267248
     22          1           0        3.095934   -0.753377   -1.519505
     23          1           0        3.741406   -1.119818    0.088171
 ---------------------------------------------------------------------

 SCF Done:  E(RB3LYP) =  -425.594785244     A.U. after    1 cycles

 The electronic state is 1-A.
 Alpha  occ. eigenvalues --  -19.13990 -19.13580 -10.23144 -10.22571 -10.22427
 Alpha  occ. eigenvalues --  -10.21096 -10.18766 -10.17774 -10.16910  -1.03822
 Alpha  occ. eigenvalues --   -1.02273  -0.85115  -0.73392  -0.69738  -0.68268
 Alpha  occ. eigenvalues --   -0.64399  -0.57494  -0.54822  -0.49812  -0.48778
 Alpha  occ. eigenvalues --   -0.48024  -0.46122  -0.43534  -0.43175  -0.42331
 Alpha  occ. eigenvalues --   -0.39777  -0.39408  -0.38416  -0.37708  -0.35062
 Alpha  occ. eigenvalues --   -0.33456  -0.31669  -0.29398  -0.26415  -0.25578
 Alpha  occ. eigenvalues --   -0.24166
 Alpha virt. eigenvalues --    0.08117   0.10023   0.11587   0.12474   0.13309
 Alpha virt. eigenvalues --    0.13492   0.15623   0.15696   0.16310   0.16633
 Alpha virt. eigenvalues --    0.17082   0.17755   0.18055   0.18896   0.19795

 Mulliken charges:
               1
     1  C   -0.225043
     2  O   -0.233132
     3  C   -0.121297
     4  C    0.409405
     5  O   -0.294801
     6  C   -0.245812
     7  C   -0.344772
     8  C   -0.061738
     9  C   -0.402110
    10  H    0.126559
    11  H    0.102440
    12  H    0.104779
    13  H    0.093917
    14  H    0.081675
    15  H    0.115709
    16  H    0.103990
    17  H    0.126311
    18  H    0.113399
    19  H    0.114145
    20  H    0.080576
    21  H    0.128596
    22  H    0.115821
    23  H    0.111383
 Sum of Mulliken charges =   0.00000

 Dipole moment (field-independent basis, Debye):
    X=             -0.8853    Y=             -0.7984    Z=              0.0952  Tot=              1.1959
 Quadrupole moment (field-independent basis, Debye-Ang):
   XX=            -53.1386   YY=            -53.3249   ZZ=            -56.8331
   XY=              0.7234   XZ=              1.9677   YZ=              1.4913

  Exact polarizability:  96.924  -2.486  82.136  -0.558   0.388  72.832
 Approx polarizability: 116.049  -3.185 114.725  -1.357   0.766 110.933

                      1                      2                      3
                      A                      A                      A
 Frequencies --     67.4391                92.4074               107.9642
 Red. masses --      2.6082                 2.3081                 1.6611
 Frc consts  --      0.0070                 0.0116                 0.0114
 IR Inten    --      0.4891                 3.3367                 1.0299

                      4                      5                      6
                      A                      A                      A
 Frequencies --    131.1765               170.7240               185.9143
 Red. masses --      2.8581                 1.1708                 1.5173
 Frc consts  --      0.0290                 0.0201                 0.0309
 IR Inten    --      1.0850                 0.3519                 2.4462

                      7                      8                      9
                      A                      A                      A
 Frequencies --    213.9689               231.5089               258.3153
 Red. masses --      2.0369                 1.3854                 2.2845
 Frc consts  --      0.0549                 0.0437                 0.0898
 IR Inten    --      2.2868                 3.0383                 2.1090

                     10                     11                     12
                      A                      A                      A
 Frequencies --    312.2730               328.5046               389.9978
 Red. masses --      3.6491                 3.1444                 2.7247
 Frc consts  --      0.2097                 0.1999                 0.2442
 IR Inten    --      1.3826                 0.7550                 6.9353

                     13                     14                     15
                      A                      A                      A
 Frequencies --    427.6895               493.4068               589.3828
 Red. masses --      2.3046                 2.7620                 3.2951
 Frc consts  --      0.2484                 0.3962                 0.6744
 IR Inten    --      0.8905                 6.2645                 0.5754

                     16                     17                     18
                      A                      A                      A
 Frequencies --    728.1698               842.2059               887.3074
 Red. masses --      2.8657                 2.0375                 1.5902
 Frc consts  --      0.8953                 0.8515                 0.7377
 IR Inten    --      4.9022                 3.3276                20.3685

                     19                     20                     21
                      A                      A                      A
 Frequencies --    925.9404               933.6759               958.8561
 Red. masses --      2.1122                 1.9167                 1.8354
 Frc consts  --      1.0670                 0.9844                 0.9943
 IR Inten    --      7.8338                 1.8345                11.7267

                     22                     23                     24
                      A                      A                      A
 Frequencies --    999.2577              1033.4339              1048.5008
 Red. masses --      2.8228                 1.5595                 1.4065
 Frc consts  --      1.6607                 0.9813                 0.9110
 IR Inten    --      8.5857                 4.4834                 0.7789

                     25                     26                     27
                      A                      A                      A
 Frequencies --   1098.7510              1117.8852              1134.9857
 Red. masses --      3.5418                 2.7957                 2.3351
 Frc consts  --      2.5192                 2.0584                 1.7723
 IR Inten    --     75.7408                21.2135                68.7487

                     28                     29                     30
                      A                      A                      A
 Frequencies --   1152.6542              1184.3535              1186.4042
 Red. masses --      3.1823                 1.2913                 1.2776
 Frc consts  --      2.4911                 1.0672                 1.0595
 IR Inten    --    115.9248                 4.6626                 2.1449

                     31                     32                     33
                      A                      A                      A
 Frequencies --   1191.0448              1220.8714              1228.2905
 Red. masses --      1.6967                 1.5674                 1.5679
 Frc consts  --      1.4181                 1.3764                 1.3937
 IR Inten    --      3.7676                28.2359                12.3342

                     34                     35                     36
                      A                      A                      A
 Frequencies --   1249.7817              1265.5407              1329.2749
 Red. masses --      1.3800                 2.0349                 1.6455
 Frc consts  --      1.2700                 1.9202                 1.7130
 IR Inten    --      2.6948                26.8422                58.4229

                     37                     38                     39
                      A                      A                      A
 Frequencies --   1400.9800              1415.0886              1430.8978
 Red. masses --      1.2856                 1.3374                 1.6034
 Frc consts  --      1.4867                 1.5779                 1.9342
 IR Inten    --      3.1391                10.2919                14.3148

                     40                     41                     42
                      A                      A                      A
 Frequencies --   1474.8922              1477.5164              1483.6032
 Red. masses --      1.1724                 1.1273                 1.1564
 Frc consts  --      1.5026                 1.4499                 1.4997
 IR Inten    --      7.9562                 2.9918                 0.4648

                     43                     44                     45
                      A                      A                      A
 Frequencies --   1484.5997              1486.3391              1493.8208
 Red. masses --      1.0708                 1.1640                 1.0936
 Frc consts  --      1.3905                 1.5151                 1.4378
 IR Inten    --      1.5234                 6.6984                 0.7332

                     46                     47                     48
                      A                      A                      A
 Frequencies --   1496.2153              1503.4741              1514.8347
 Red. masses --      1.0747                 1.1388                 1.0659
 Frc consts  --      1.4175                 1.5166                 1.4411
 IR Inten    --      8.5116                 7.9339                 3.9039

                     49                     50                     51
                      A                      A                      A
 Frequencies --   1519.2337              2953.5447              2969.1124
 Red. masses --      1.0791                 1.0516                 1.0405
 Frc consts  --      1.4674                 5.4048                 5.4045
 IR Inten    --      4.3646                28.7080                83.0449

                     52                     53                     54
                      A                      A                      A
 Frequencies --   2991.3779              3006.2397              3010.2396
 Red. masses --      1.1046                 1.0394                 1.1031
 Frc consts  --      5.8239                 5.5345                 5.8891
 IR Inten    --     59.8468                48.6917                47.3455

                     55                     56                     57
                      A                      A                      A
 Frequencies --   3034.5502              3080.6805              3091.1526
 Red. masses --      1.0376                 1.0924                 1.1013
 Frc consts  --      5.6293                 6.1086                 6.2000
 IR Inten    --     39.7697                39.3730                26.4632

                     58                     59                     60
                      A                      A                      A
 Frequencies --   3112.6793              3118.8913              3121.9377
 Red. masses --      1.0957                 1.1049                 1.0906
 Frc consts  --      6.2550                 6.3323                 6.2626
 IR Inten    --     28.6704                25.7091                 1.1669

                     61                     62                     63
                      A                      A                      A
 Frequencies --   3132.1280              3138.8005              3218.7669
 Red. masses --      1.0553                 1.0939                 1.1167
 Frc consts  --      6.0997                 6.3495                 6.8166
 IR Inten    --      8.2127                30.8376                 9.2540

 - Thermochemistry -
 -------------------
 Temperature   298.150 Kelvin.  Pressure   1.00000 Atm.
 Atom     1 has atomic number  6 and mass  12.00000

 Molecular mass:   130.09938 amu.
 Principal axes and moments of inertia in atomic units:
                           1         2         3
     Eigenvalues --   686.448521724.907692080.66370
           X            0.99998   0.00202   0.00588
           Y           -0.00220   0.99950   0.03141
           Z           -0.00581  -0.03142   0.99949
 This molecule is an asymmetric top.
 Rotational symmetry number  1.
 Warning -- assumption of classical behavior for rotation
           may cause significant error
 Rotational temperatures (Kelvin)      0.12618     0.05021     0.04163
 Rotational constants (GHZ):           2.62910     1.04628     0.86739
 Zero-point vibrational energy     531617.2 (Joules/Mol)
                                  127.05956 (Kcal/Mol)
 Warning -- explicit consideration of  15 degrees of freedom as
           vibrations may cause significant error
 Vibrational temperatures:     97.03   132.95   155.34   188.73   245.63
          (Kelvin)            267.49   307.85   333.09   371.66   449.29
                              472.64   561.12   615.35   709.90   847.99
                             1047.67  1211.75  1276.64  1332.22  1343.35
                             1379.58  1437.71  1486.88  1508.56  1580.86
                             1608.39  1632.99  1658.41  1704.02  1706.97
                             1713.65  1756.56  1767.24  1798.16  1820.83
                             1912.53  2015.70  2036.00  2058.74  2122.04
                             2125.82  2134.57  2136.01  2138.51  2149.27
                             2152.72  2163.16  2179.51  2185.84  4249.49
                             4271.89  4303.93  4325.31  4331.06  4366.04
                             4432.41  4447.48  4478.45  4487.39  4491.77
                             4506.43  4516.03  4631.09

 Zero-point correction=                           0.202482 (Hartree/Particle)
 Thermal correction to Energy=                    0.213512
 Thermal correction to Enthalpy=                  0.214456
 Thermal correction to Gibbs Free Energy=         0.166167
 Sum of electronic and zero-point Energies=           -425.392303
 Sum of electronic and thermal Energies=              -425.381273
 Sum of electronic and thermal Enthalpies=            -425.380329
 Sum of electronic and thermal Free Energies=         -425.428618

                     E (Thermal)             CV                S
                      KCal/Mol        Cal/Mol-Kelvin    Cal/Mol-Kelvin
 Total                  133.981             39.209            101.633
 Electronic               0.000              0.000              0.000
 Translational            0.889              2.981             40.502
 Rotational               0.889              2.981             29.289
 Vibrational            132.204             33.247             31.841
 Vibration     1          0.598              1.970              4.227
 Vibration     2          0.602              1.955              3.608
 Vibration     3          0.606              1.943              3.305
 Vibration     4          0.612              1.922              2.929
 Vibration     5          0.626              1.879              2.427
 Vibration     6          0.632              1.859              2.268
 Vibration     7          0.644              1.820              2.010
 Vibration     8          0.653              1.793              1.867
 Vibration     9          0.667              1.749              1.673
 Vibration    10          0.701              1.650              1.350
 Vibration    11          0.712              1.619              1.267
 Vibration    12          0.758              1.492              1.000
 Vibration    13          0.789              1.410              0.866
 Vibration    14          0.849              1.265              0.675
 Vibration    15          0.947              1.054              0.468

                           ! Non-Optimized Parameters !
 Normal termination of Gaussian 16 at Thu Aug  4 07:03:29 2022.
