 Gaussian 16, Revision A.03,
 Gaussian 16:  ES64L-G16RevA.03 25-Dec-2016

 -----------------------------
 # opt freq b3lyp/6-31g(2df,p)
 -----------------------------

 -------------------
 Title Card Required
 -------------------
 Symbolic Z-matrix:
 Charge =  0 Multiplicity = 1

 SCF Done:  E(RB3LYP) =  -405.750812827     A.U. after   13 cycles
 SCF Done:  E(RB3LYP) =  -405.754447593     A.U. after   11 cycles
 SCF Done:  E(RB3LYP) =  -405.755267673     A.U. after   10 cycles
 SCF Done:  E(RB3LYP) =  -405.755316101     A.U. after    9 cycles
 SCF Done:  E(RB3LYP) =  -405.755317759     A.U. after    7 cycles
 Optimization completed.
    -- Stationary point found.
 Normal termination of Gaussian 16 at Sun Jul  3 21:54:09 2022.

 ----------------------------------------------------------------------
 #N Geom=AllCheck Guess=TCheck SCRF=Check GenChk RB3LYP/6-31G(2df,p) Fr
 eq
 ----------------------------------------------------------------------

 Structure from the checkpoint file:  "COCCCCCpCpdN.chk"
 -------------------
 Title Card Required
 -------------------
 Charge =  0 Multiplicity = 1

                         Standard orientation:
 ---------------------------------------------------------------------
 Center     Atomic      Atomic             Coordinates (Angstroms)
 Number     Number       Type             X           Y           Z
 ---------------------------------------------------------------------
      1          6           0        4.534546    0.278776    0.000002
      2          8           0        3.342835   -0.468121    0.000006
      3          6           0        2.187135    0.340346   -0.000003
      4          6           0        0.961640   -0.563446    0.000001
      5          6           0       -0.354711    0.221232   -0.000008
      6          6           0       -1.576172   -0.704520   -0.000004
      7          6           0       -2.974780   -0.076925   -0.000012
      8          6           0       -3.146520    1.431521    0.000005
      9          7           0       -4.034276   -0.782785    0.000006
     10          1           0        5.366181   -0.430090    0.000008
     11          1           0        4.615928    0.921533    0.891434
     12          1           0        4.615931    0.921520   -0.891439
     13          1           0        2.179210    0.999408   -0.886551
     14          1           0        2.179207    0.999421    0.886535
     15          1           0        1.010996   -1.217806    0.878855
     16          1           0        1.011000   -1.217820   -0.878842
     17          1           0       -0.385377    0.878442   -0.878549
     18          1           0       -0.385381    0.878455    0.878524
     19          1           0       -1.519871   -1.367866    0.873614
     20          1           0       -1.519868   -1.367879   -0.873612
     21          1           0       -2.204591    1.979522    0.000002
     22          1           0       -3.724319    1.733498    0.878394
     23          1           0       -3.724337    1.733514   -0.878366
     24          1           0       -3.804282   -1.781292    0.000014
 ---------------------------------------------------------------------

 SCF Done:  E(RB3LYP) =  -405.755317759     A.U. after    1 cycles

 The electronic state is 1-A.
 Alpha  occ. eigenvalues --  -19.13945 -14.29680 -10.22894 -10.22835 -10.22444
 Alpha  occ. eigenvalues --  -10.19282 -10.19155 -10.18446 -10.17786  -1.03319
 Alpha  occ. eigenvalues --   -0.89562  -0.80525  -0.74565  -0.71591  -0.67818
 Alpha  occ. eigenvalues --   -0.62461  -0.59177  -0.53681  -0.49377  -0.48406
 Alpha  occ. eigenvalues --   -0.47954  -0.46292  -0.44665  -0.42472  -0.41152
 Alpha  occ. eigenvalues --   -0.40406  -0.38549  -0.36960  -0.36803  -0.35645
 Alpha  occ. eigenvalues --   -0.34108  -0.33728  -0.31680  -0.28085  -0.25563
 Alpha  occ. eigenvalues --   -0.24705
 Alpha virt. eigenvalues --    0.00400   0.08142   0.08929   0.10694   0.11746
 Alpha virt. eigenvalues --    0.11777   0.13638   0.13812   0.16041   0.16351
 Alpha virt. eigenvalues --    0.16643   0.17747   0.18609   0.19325   0.19477

 Mulliken charges:
               1
     1  C   -0.227517
     2  O   -0.230248
     3  C   -0.052727
     4  C   -0.201467
     5  C   -0.201945
     6  C   -0.277864
     7  C    0.303981
     8  C   -0.439302
     9  N   -0.453312
    10  H    0.126705
    11  H    0.102172
    12  H    0.102172
    13  H    0.082454
    14  H    0.082454
    15  H    0.107619
    16  H    0.107619
    17  H    0.104968
    18  H    0.104968
    19  H    0.121478
    20  H    0.121477
    21  H    0.118685
    22  H    0.145140
    23  H    0.145139
    24  H    0.207353
 Sum of Mulliken charges =  -0.00000

 Dipole moment (field-independent basis, Debye):
    X=              2.3277    Y=              1.0603    Z=             -0.0000  Tot=              2.5578
 Quadrupole moment (field-independent basis, Debye-Ang):
   XX=            -70.4998   YY=            -54.9768   ZZ=            -56.4099
   XY=              2.1567   XZ=             -0.0000   YZ=             -0.0000

  Exact polarizability: 113.282   3.591  84.652  -0.000   0.000  68.737
 Approx polarizability: 130.512   7.252 124.498  -0.000  -0.000 106.080

 ******    2 imaginary frequencies (negative Signs) ******

                      1                      2                      3
                      A                      A                      A
 Frequencies --   -195.0025               -70.5199                55.4473
 Red. masses --      1.0480                 2.2093                 3.2441
 Frc consts  --      0.0235                 0.0065                 0.0059
 IR Inten    --      1.2894                 1.8605                 0.3095

                      4                      5                      6
                      A                      A                      A
 Frequencies --     71.2857                78.9424               128.6207
 Red. masses --      1.9692                 3.5977                 2.4415
 Frc consts  --      0.0059                 0.0132                 0.0238
 IR Inten    --      4.3803                 0.8923                 1.1154

                      7                      8                      9
                      A                      A                      A
 Frequencies --    152.1479               209.4912               236.0811
 Red. masses --      1.9094                 3.5339                 1.2602
 Frc consts  --      0.0260                 0.0914                 0.0414
 IR Inten    --      0.0031                 2.9783                 2.5118

                     10                     11                     12
                      A                      A                      A
 Frequencies --    257.7731               369.1602               456.3079
 Red. masses --      4.4799                 3.4792                 2.9315
 Frc consts  --      0.1754                 0.2794                 0.3596
 IR Inten    --      0.5932                 0.3138                 1.6036

                     13                     14                     15
                      A                      A                      A
 Frequencies --    489.1008               514.1247               522.9584
 Red. masses --      2.2742                 3.5175                 2.8323
 Frc consts  --      0.3205                 0.5478                 0.4564
 IR Inten    --      0.1607                 7.7396                10.8959

                     16                     17                     18
                      A                      A                      A
 Frequencies --    725.5442               777.9955               790.9118
 Red. masses --      1.1379                 1.1338                 3.5778
 Frc consts  --      0.3529                 0.4043                 1.3186
 IR Inten    --      0.0464                 4.3851                 2.3799

                     19                     20                     21
                      A                      A                      A
 Frequencies --    875.0915               953.0620               979.1894
 Red. masses --      1.1792                 1.2235                 4.4622
 Frc consts  --      0.5320                 0.6548                 2.5208
 IR Inten    --     24.1323                17.0847                19.1378

                     22                     23                     24
                      A                      A                      A
 Frequencies --   1014.6460              1028.8737              1042.6294
 Red. masses --      1.9582                 1.2926                 2.8419
 Frc consts  --      1.1878                 0.8062                 1.8202
 IR Inten    --      1.0804                 3.6140                 8.4724

                     25                     26                     27
                      A                      A                      A
 Frequencies --   1061.8181              1097.1696              1115.8191
 Red. masses --      2.3622                 3.1850                 1.8069
 Frc consts  --      1.5691                 2.2589                 1.3254
 IR Inten    --      0.3805                 2.7609                42.5199

                     28                     29                     30
                      A                      A                      A
 Frequencies --   1135.3243              1165.4900              1179.3861
 Red. masses --      1.6797                 5.4791                 1.2447
 Frc consts  --      1.2756                 4.3851                 1.0200
 IR Inten    --      2.5162               181.0040                 1.4857

                     31                     32                     33
                      A                      A                      A
 Frequencies --   1220.2663              1220.4215              1262.5693
 Red. masses --      1.4937                 1.4007                 1.4255
 Frc consts  --      1.3104                 1.2292                 1.3388
 IR Inten    --     34.7178                 4.7161                10.6805

                     34                     35                     36
                      A                      A                      A
 Frequencies --   1287.3402              1316.0933              1335.2604
 Red. masses --      1.2222                 1.0887                 1.0867
 Frc consts  --      1.1934                 1.1110                 1.1415
 IR Inten    --      1.6655                 0.2725                 0.0244

                     37                     38                     39
                      A                      A                      A
 Frequencies --   1336.4178              1358.6572              1394.7760
 Red. masses --      1.4856                 1.5633                 1.4992
 Frc consts  --      1.5633                 1.7002                 1.7184
 IR Inten    --     13.8359                82.7140                13.1529

                     40                     41                     42
                      A                      A                      A
 Frequencies --   1401.0722              1429.0839              1461.9148
 Red. masses --      1.3091                 1.4063                 1.0802
 Frc consts  --      1.5141                 1.6922                 1.3602
 IR Inten    --     42.6780                29.4020                 1.2584

                     43                     44                     45
                      A                      A                      A
 Frequencies --   1481.7705              1482.9655              1484.6253
 Red. masses --      1.1644                 1.0455                 1.0922
 Frc consts  --      1.5064                 1.3547                 1.4183
 IR Inten    --      0.9079                 3.0153                 2.4970

                     46                     47                     48
                      A                      A                      A
 Frequencies --   1485.4157              1492.5589              1502.2703
 Red. masses --      1.0467                 1.0839                 1.0748
 Frc consts  --      1.3608                 1.4226                 1.4292
 IR Inten    --      4.8295                 2.3295                 6.3330

                     49                     50                     51
                      A                      A                      A
 Frequencies --   1509.4455              1532.9983              1711.4799
 Red. masses --      1.0830                 1.0955                 9.3679
 Frc consts  --      1.4538                 1.5169                16.1673
 IR Inten    --      2.7545                 0.8190                65.9432

                     52                     53                     54
                      A                      A                      A
 Frequencies --   2937.1567              2962.1244              2966.9927
 Red. masses --      1.0527                 1.1046                 1.0383
 Frc consts  --      5.3507                 5.7104                 5.3853
 IR Inten    --     35.7695                56.4930                74.1491

                     55                     56                     57
                      A                      A                      A
 Frequencies --   3008.0193              3010.5715              3017.4283
 Red. masses --      1.1030                 1.0588                 1.0586
 Frc consts  --      5.8799                 5.6543                 5.6785
 IR Inten    --     60.4381                 1.4106                18.5344

                     58                     59                     60
                      A                      A                      A
 Frequencies --   3032.1220              3036.4499              3055.1769
 Red. masses --      1.0588                 1.0994                 1.0381
 Frc consts  --      5.7355                 5.9724                 5.7093
 IR Inten    --     46.2912                 0.5784                 7.8344

                     61                     62                     63
                      A                      A                      A
 Frequencies --   3055.7737              3079.3224              3112.4911
 Red. masses --      1.1032                 1.1053                 1.0955
 Frc consts  --      6.0694                 6.1748                 6.2526
 IR Inten    --      4.9514                65.0564                32.0007

                     64                     65                     66
                      A                      A                      A
 Frequencies --   3112.6739              3152.9127              3408.2396
 Red. masses --      1.0995                 1.0991                 1.0742
 Frc consts  --      6.2765                 6.4373                 7.3515
 IR Inten    --      7.5427                18.1609                 6.1809

 - Thermochemistry -
 -------------------
 Temperature   298.150 Kelvin.  Pressure   1.00000 Atm.
 Atom     1 has atomic number  6 and mass  12.00000

 Molecular mass:   129.11536 amu.
 Principal axes and moments of inertia in atomic units:
                           1         2         3
     Eigenvalues --   300.482164012.063204245.46604
           X            1.00000   0.00111  -0.00000
           Y           -0.00111   1.00000   0.00000
           Z            0.00000  -0.00000   1.00000
 This molecule is an asymmetric top.
 Rotational symmetry number  1.
 Rotational temperatures (Kelvin)      0.28825     0.02159     0.02040
 Rotational constants (GHZ):           6.00615     0.44983     0.42510
    2 imaginary frequencies ignored.
 Zero-point vibrational energy     563077.8 (Joules/Mol)
                                  134.57881 (Kcal/Mol)
 Warning -- explicit consideration of  13 degrees of freedom as
           vibrations may cause significant error
 Vibrational temperatures:     79.78   102.56   113.58   185.06   218.91
          (Kelvin)            301.41   339.67   370.88   531.14   656.53
                              703.71   739.71   752.42  1043.90  1119.36
                             1137.95  1259.06  1371.24  1408.84  1459.85
                             1480.32  1500.11  1527.72  1578.58  1605.41
                             1633.48  1676.88  1696.87  1755.69  1755.91
                             1816.56  1852.20  1893.56  1921.14  1922.81
                             1954.80  2006.77  2015.83  2056.13  2103.37
                             2131.94  2133.66  2136.04  2137.18  2147.46
                             2161.43  2171.76  2205.64  2462.44  4225.91
                             4261.84  4268.84  4327.87  4331.54  4341.41
                             4362.55  4368.77  4395.72  4396.58  4430.46
                             4478.18  4478.44  4536.34  4903.70

 Zero-point correction=                           0.214465 (Hartree/Particle)
 Thermal correction to Energy=                    0.224601
 Thermal correction to Enthalpy=                  0.225546
 Thermal correction to Gibbs Free Energy=         0.177956
 Sum of electronic and zero-point Energies=           -405.540853
 Sum of electronic and thermal Energies=              -405.530716
 Sum of electronic and thermal Enthalpies=            -405.529772
 Sum of electronic and thermal Free Energies=         -405.577362

                     E (Thermal)             CV                S
                      KCal/Mol        Cal/Mol-Kelvin    Cal/Mol-Kelvin
 Total                  140.939             36.004            100.160
 Electronic               0.000              0.000              0.000
 Translational            0.889              2.981             40.480
 Rotational               0.889              2.981             30.016
 Vibrational            139.162             30.042             29.665
 Vibration     1          0.596              1.975              4.613
 Vibration     2          0.598              1.968              4.118
 Vibration     3          0.600              1.963              3.917
 Vibration     4          0.611              1.925              2.967
 Vibration     5          0.619              1.900              2.645
 Vibration     6          0.642              1.826              2.048
 Vibration     7          0.655              1.786              1.832
 Vibration     8          0.667              1.750              1.677
 Vibration     9          0.741              1.536              1.083
 Vibration    10          0.815              1.347              0.777
 Vibration    11          0.845              1.274              0.686
 Vibration    12          0.869              1.219              0.624
 Vibration    13          0.878              1.199              0.603

 Optimization completed.
    -- Stationary point found.
 Normal termination of Gaussian 16 at Sun Jul  3 22:20:37 2022.
