 Gaussian 16, Revision A.03,
 Gaussian 16:  ES64L-G16RevA.03 25-Dec-2016

 -----------------------------
 # opt freq b3lyp/6-31g(2df,p)
 -----------------------------

 -------------------
 Title Card Required
 -------------------
 Symbolic Z-matrix:
 Charge =  0 Multiplicity = 1

 SCF Done:  E(RB3LYP) =  -381.658043586     A.U. after   14 cycles
 SCF Done:  E(RB3LYP) =  -381.668137517     A.U. after   13 cycles
 SCF Done:  E(RB3LYP) =  -381.669979957     A.U. after   12 cycles
 SCF Done:  E(RB3LYP) =  -381.670231451     A.U. after   11 cycles
 SCF Done:  E(RB3LYP) =  -381.670296571     A.U. after   10 cycles
 SCF Done:  E(RB3LYP) =  -381.670307507     A.U. after    9 cycles
 SCF Done:  E(RB3LYP) =  -381.670311486     A.U. after    8 cycles
 SCF Done:  E(RB3LYP) =  -381.670313491     A.U. after    8 cycles
 SCF Done:  E(RB3LYP) =  -381.670314453     A.U. after    8 cycles
 SCF Done:  E(RB3LYP) =  -381.670314621     A.U. after    7 cycles
 Optimization completed.
    -- Stationary point found.
 Normal termination of Gaussian 16 at Thu Aug  4 09:03:14 2022.

 ----------------------------------------------------------------------
 #N Geom=AllCheck Guess=TCheck SCRF=Check GenChk RB3LYP/6-31G(2df,p) Fr
 eq
 ----------------------------------------------------------------------

 Structure from the checkpoint file:  "COCC1OC1dO.chk"
 -------------------
 Title Card Required
 -------------------
 Charge =  0 Multiplicity = 1

                         Standard orientation:
 ---------------------------------------------------------------------
 Center     Atomic      Atomic             Coordinates (Angstroms)
 Number     Number       Type             X           Y           Z
 ---------------------------------------------------------------------
      1          6           0        3.013189   -0.175388   -0.238089
      2          8           0        1.796799    0.356238    0.240790
      3          6           0        0.701259   -0.492674    0.007045
      4          6           0       -0.529411    0.148323    0.572192
      5          8           0       -1.306745    1.074596   -0.372529
      6          6           0       -1.858497   -0.065929    0.024069
      7          8           0       -2.862243   -0.679924   -0.131585
      8          1           0        3.795821    0.549104   -0.004281
      9          1           0        2.986564   -0.334217   -1.326813
     10          1           0        3.255981   -1.134210    0.245897
     11          1           0        0.841513   -1.469034    0.505724
     12          1           0        0.559536   -0.690468   -1.067509
     13          1           0       -0.421142    0.585561    1.562277
 ---------------------------------------------------------------------

 SCF Done:  E(RB3LYP) =  -381.670314621     A.U. after    1 cycles

 The electronic state is 1-A.
 Alpha  occ. eigenvalues --  -19.20220 -19.16179 -19.15405 -10.32861 -10.27415
 Alpha  occ. eigenvalues --  -10.26038 -10.24023  -1.13538  -1.05751  -1.05201
 Alpha  occ. eigenvalues --   -0.78493  -0.69594  -0.64402  -0.58204  -0.52745
 Alpha  occ. eigenvalues --   -0.50404  -0.50011  -0.47855  -0.46288  -0.43685
 Alpha  occ. eigenvalues --   -0.41915  -0.38940  -0.37966  -0.34298  -0.32282
 Alpha  occ. eigenvalues --   -0.27992  -0.27613
 Alpha virt. eigenvalues --    0.00087   0.03192   0.07643   0.11011   0.12373
 Alpha virt. eigenvalues --    0.13459   0.14829   0.15226   0.16559   0.20885
 Alpha virt. eigenvalues --    0.21553   0.24050   0.26123   0.31681   0.39091

 Mulliken charges:
               1
     1  C   -0.231015
     2  O   -0.231621
     3  C   -0.072836
     4  C   -0.120845
     5  O   -0.221550
     6  C    0.471553
     7  O   -0.330973
     8  H    0.137919
     9  H    0.114310
    10  H    0.110149
    11  H    0.111815
    12  H    0.113653
    13  H    0.149440
 Sum of Mulliken charges =  -0.00000

 Dipole moment (field-independent basis, Debye):
    X=              3.4434    Y=             -0.9576    Z=              0.7047  Tot=              3.6428
 Quadrupole moment (field-independent basis, Debye-Ang):
   XX=            -44.9785   YY=            -42.0958   ZZ=            -38.4621
   XY=             -3.7143   XZ=             -2.8344   YZ=              0.9625

  Exact polarizability:  69.505   2.114  43.979   2.459  -0.183  42.275
 Approx polarizability:  87.132   7.297  72.645   6.049  -2.498  63.868

                      1                      2                      3
                      A                      A                      A
 Frequencies --     70.9642                97.1907               123.0564
 Red. masses --      3.1291                 2.6756                 5.3153
 Frc consts  --      0.0093                 0.0149                 0.0474
 IR Inten    --      1.8009                 5.1922                 3.3395

                      4                      5                      6
                      A                      A                      A
 Frequencies --    228.0719               303.8457               337.4739
 Red. masses --      1.2517                 5.1918                 3.2205
 Frc consts  --      0.0384                 0.2824                 0.2161
 IR Inten    --      3.5136                 1.9592                 1.6239

                      7                      8                      9
                      A                      A                      A
 Frequencies --    436.9213               564.4695               647.7785
 Red. masses --      3.5718                 3.5101                 7.1474
 Frc consts  --      0.4017                 0.6589                 1.7671
 IR Inten    --      9.3479                 3.3465                 6.3614

                     10                     11                     12
                      A                      A                      A
 Frequencies --    709.7392               927.9515               989.9376
 Red. masses --     11.6214                 2.5306                 3.7567
 Frc consts  --      3.4491                 1.2839                 2.1691
 IR Inten    --     63.4932                11.5974                38.4791

                     13                     14                     15
                      A                      A                      A
 Frequencies --    997.0847              1081.6043              1144.5915
 Red. masses --      1.9835                 2.3223                 4.6281
 Frc consts  --      1.1619                 1.6007                 3.5723
 IR Inten    --     26.4877                 7.8033               122.8154

                     16                     17                     18
                      A                      A                      A
 Frequencies --   1166.8777              1180.2386              1188.4689
 Red. masses --      2.6898                 1.8901                 1.7538
 Frc consts  --      2.1579                 1.5512                 1.4595
 IR Inten    --     63.8554                44.4298                 8.0670

                     19                     20                     21
                      A                      A                      A
 Frequencies --   1227.4658              1257.7431              1336.9501
 Red. masses --      1.6687                 1.1713                 1.3070
 Frc consts  --      1.4813                 1.0917                 1.3765
 IR Inten    --     42.0360                 4.1928                19.2755

                     22                     23                     24
                      A                      A                      A
 Frequencies --   1431.6389              1476.2430              1486.4935
 Red. masses --      1.5028                 1.1354                 1.0463
 Frc consts  --      1.8148                 1.4579                 1.3622
 IR Inten    --     16.8274                 4.7748                 6.1980

                     25                     26                     27
                      A                      A                      A
 Frequencies --   1493.2047              1516.6075              2022.9134
 Red. masses --      1.0825                 1.0998                12.6418
 Frc consts  --      1.4220                 1.4904                30.4800
 IR Inten    --      8.4121                 3.2981               476.1798

                     28                     29                     30
                      A                      A                      A
 Frequencies --   2947.8702              2977.3562              2997.5338
 Red. masses --      1.0619                 1.0391                 1.0941
 Frc consts  --      5.4370                 5.4271                 5.7919
 IR Inten    --     33.0356                56.0169                34.0225

                     31                     32                     33
                      A                      A                      A
 Frequencies --   3025.6185              3126.1259              3152.9756
 Red. masses --      1.1034                 1.0965                 1.0876
 Frc consts  --      5.9515                 6.3136                 6.3703
 IR Inten    --     47.9310                22.2684                 4.0498

 - Thermochemistry -
 -------------------
 Temperature   298.150 Kelvin.  Pressure   1.00000 Atm.
 Atom     1 has atomic number  6 and mass  12.00000

 Molecular mass:   102.03169 amu.
 Principal axes and moments of inertia in atomic units:
                           1         2         3
     Eigenvalues --   177.796671491.398301571.73196
           X            0.99987  -0.01223  -0.01078
           Y            0.01274   0.99869   0.04947
           Z            0.01016  -0.04960   0.99872
 This molecule is an asymmetric top.
 Rotational symmetry number  1.
 Rotational temperatures (Kelvin)      0.48715     0.05808     0.05511
 Rotational constants (GHZ):          10.15059     1.21010     1.14825
 Zero-point vibrational energy     261222.6 (Joules/Mol)
                                   62.43370 (Kcal/Mol)
 Warning -- explicit consideration of   8 degrees of freedom as
           vibrations may cause significant error
 Vibrational temperatures:    102.10   139.84   177.05   328.14   437.17
          (Kelvin)            485.55   628.63   812.15   932.01  1021.16
                             1335.12  1424.30  1434.58  1556.19  1646.81
                             1678.88  1698.10  1709.94  1766.05  1809.61
                             1923.57  2059.81  2123.98  2138.73  2148.39
                             2182.06  2910.52  4241.33  4283.75  4312.78
                             4353.19  4497.80  4536.43

 Zero-point correction=                           0.099494 (Hartree/Particle)
 Thermal correction to Energy=                    0.106851
 Thermal correction to Enthalpy=                  0.107795
 Thermal correction to Gibbs Free Energy=         0.067288
 Sum of electronic and zero-point Energies=           -381.570820
 Sum of electronic and thermal Energies=              -381.563464
 Sum of electronic and thermal Enthalpies=            -381.562520
 Sum of electronic and thermal Free Energies=         -381.603027

                     E (Thermal)             CV                S
                      KCal/Mol        Cal/Mol-Kelvin    Cal/Mol-Kelvin
 Total                   67.050             24.450             85.254
 Electronic               0.000              0.000              0.000
 Translational            0.889              2.981             39.778
 Rotational               0.889              2.981             27.524
 Vibrational             65.272             18.488             17.953
 Vibration     1          0.598              1.968              4.126
 Vibration     2          0.603              1.951              3.510
 Vibration     3          0.610              1.930              3.052
 Vibration     4          0.651              1.798              1.894
 Vibration     5          0.695              1.666              1.396
 Vibration     6          0.718              1.601              1.224
 Vibration     7          0.797              1.390              0.836
 Vibration     8          0.920              1.108              0.515

 Optimization completed.
    -- Stationary point found.
 Normal termination of Gaussian 16 at Thu Aug  4 09:20:53 2022.
