 Gaussian 16, Revision A.03,
 Gaussian 16:  ES64L-G16RevA.03 25-Dec-2016

 -----------------------------
 # opt freq b3lyp/6-31g(2df,p)
 -----------------------------

 -------------------
 Title Card Required
 -------------------
 Symbolic Z-matrix:
 Charge =  0 Multiplicity = 1

 SCF Done:  E(RB3LYP) =  -426.803627514     A.U. after   12 cycles
 SCF Done:  E(RB3LYP) =  -426.810894863     A.U. after   11 cycles
 SCF Done:  E(RB3LYP) =  -426.818472741     A.U. after   11 cycles
 SCF Done:  E(RB3LYP) =  -426.823400156     A.U. after   11 cycles
 SCF Done:  E(RB3LYP) =  -426.827930119     A.U. after   11 cycles
 SCF Done:  E(RB3LYP) =  -426.830854480     A.U. after   11 cycles
 SCF Done:  E(RB3LYP) =  -426.833639885     A.U. after   13 cycles
 SCF Done:  E(RB3LYP) =  -426.834582877     A.U. after   10 cycles
 SCF Done:  E(RB3LYP) =  -426.835026142     A.U. after   10 cycles
 SCF Done:  E(RB3LYP) =  -426.835090180     A.U. after   10 cycles
 SCF Done:  E(RB3LYP) =  -426.846904860     A.U. after    9 cycles
 SCF Done:  E(RB3LYP) =  -426.846984024     A.U. after    9 cycles
 SCF Done:  E(RB3LYP) =  -426.847011077     A.U. after    9 cycles
 SCF Done:  E(RB3LYP) =  -426.847018499     A.U. after    8 cycles
 SCF Done:  E(RB3LYP) =  -426.847020083     A.U. after    8 cycles
 SCF Done:  E(RB3LYP) =  -426.847020384     A.U. after    7 cycles
 SCF Done:  E(RB3LYP) =  -426.847020569     A.U. after    7 cycles
 SCF Done:  E(RB3LYP) =  -426.847020629     A.U. after    6 cycles
 SCF Done:  E(RB3LYP) =  -426.847020648     A.U. after    6 cycles
 Optimization completed.
    -- Stationary point found.
 Normal termination of Gaussian 16 at Thu Aug  4 08:27:08 2022.

 ----------------------------------------------------------------------
 #N Geom=AllCheck Guess=TCheck SCRF=Check GenChk RB3LYP/6-31G(2df,p) Fr
 eq
 ----------------------------------------------------------------------

 Structure from the checkpoint file:  "COCpCCpCpCpOC.chk"
 -------------------
 Title Card Required
 -------------------
 Charge =  0 Multiplicity = 1

                         Standard orientation:
 ---------------------------------------------------------------------
 Center     Atomic      Atomic             Coordinates (Angstroms)
 Number     Number       Type             X           Y           Z
 ---------------------------------------------------------------------
      1          6           0        2.154547    1.900949    0.340066
      2          8           0        1.810538    0.794114   -0.460945
      3          6           0        0.726793    0.016177    0.027933
      4          6           0       -0.605563    0.539623   -0.503581
      5          6           0       -1.851110   -0.240743   -0.047342
      6          6           0       -2.090210   -0.133709    1.465956
      7          6           0       -3.087035    0.235135   -0.822540
      8          8           0        0.881788   -1.288533   -0.430694
      9          6           0        2.017221   -1.957017    0.086861
     10          1           0        3.051469    2.346986   -0.096611
     11          1           0        2.376106    1.603305    1.377046
     12          1           0        1.364334    2.666042    0.365384
     13          1           0        0.763703    0.037314    1.134991
     14          1           0       -0.530849    0.517078   -1.596573
     15          1           0       -0.702721    1.593388   -0.211307
     16          1           0       -1.678630   -1.295562   -0.291744
     17          1           0       -2.230894    0.911392    1.769018
     18          1           0       -1.256529   -0.540448    2.046407
     19          1           0       -2.990488   -0.684913    1.757278
     20          1           0       -3.296096    1.293010   -0.620698
     21          1           0       -3.976282   -0.337210   -0.537910
     22          1           0       -2.947502    0.124610   -1.902955
     23          1           0        1.997016   -2.973078   -0.312966
     24          1           0        1.984426   -2.005715    1.186414
     25          1           0        2.946464   -1.463338   -0.216772
 ---------------------------------------------------------------------

 SCF Done:  E(RB3LYP) =  -426.847020648     A.U. after    1 cycles

 The electronic state is 1-A.
 Alpha  occ. eigenvalues --  -19.14086 -19.13759 -10.27050 -10.22573 -10.21927
 Alpha  occ. eigenvalues --  -10.18130 -10.17208 -10.16918 -10.16717  -1.06350
 Alpha  occ. eigenvalues --   -1.00334  -0.80398  -0.74094  -0.68051  -0.67787
 Alpha  occ. eigenvalues --   -0.67007  -0.59636  -0.55504  -0.50792  -0.49865
 Alpha  occ. eigenvalues --   -0.47690  -0.44553  -0.43553  -0.42604  -0.42264
 Alpha  occ. eigenvalues --   -0.41842  -0.39635  -0.37799  -0.37111  -0.35826
 Alpha  occ. eigenvalues --   -0.33875  -0.32715  -0.32071  -0.31536  -0.30922
 Alpha  occ. eigenvalues --   -0.26881  -0.25166
 Alpha virt. eigenvalues --    0.08118   0.09602   0.10923   0.12944   0.14003
 Alpha virt. eigenvalues --    0.14322   0.14586   0.15202   0.15525   0.16222
 Alpha virt. eigenvalues --    0.16432   0.17519   0.17811   0.19189   0.19378

 Mulliken charges:
               1
     1  C   -0.239729
     2  O   -0.241930
     3  C    0.198013
     4  C   -0.203496
     5  C    0.046167
     6  C   -0.388482
     7  C   -0.390547
     8  O   -0.228706
     9  C   -0.238071
    10  H    0.129480
    11  H    0.104810
    12  H    0.108123
    13  H    0.044712
    14  H    0.109320
    15  H    0.089324
    16  H    0.091580
    17  H    0.107029
    18  H    0.112791
    19  H    0.110390
    20  H    0.107826
    21  H    0.107513
    22  H    0.111711
    23  H    0.125718
    24  H    0.099967
    25  H    0.126486
 Sum of Mulliken charges =  -0.00000

 Dipole moment (field-independent basis, Debye):
    X=              0.2968    Y=              0.5259    Z=              1.4463  Tot=              1.5673
 Quadrupole moment (field-independent basis, Debye-Ang):
   XX=            -56.1367   YY=            -54.7380   ZZ=            -58.9844
   XY=             -0.1057   XZ=              2.4786   YZ=              0.0843

  Exact polarizability:  96.250   0.532  86.170   1.479  -0.221  77.076
 Approx polarizability: 116.774   1.278 119.266   0.266   1.572 113.449

                      1                      2                      3
                      A                      A                      A
 Frequencies --     32.1768                76.1701                89.7716
 Red. masses --      2.6663                 2.4001                 2.4932
 Frc consts  --      0.0016                 0.0082                 0.0118
 IR Inten    --      0.1632                 1.8751                 0.7592

                      4                      5                      6
                      A                      A                      A
 Frequencies --    104.3318               148.8729               168.1219
 Red. masses --      2.4371                 1.3844                 1.1805
 Frc consts  --      0.0156                 0.0181                 0.0197
 IR Inten    --      2.1627                 0.1251                 0.3808

                      7                      8                      9
                      A                      A                      A
 Frequencies --    204.9338               228.2709               241.8617
 Red. masses --      1.8523                 1.1561                 1.1626
 Frc consts  --      0.0458                 0.0355                 0.0401
 IR Inten    --      3.9814                 1.1777                 0.4266

                     10                     11                     12
                      A                      A                      A
 Frequencies --    281.4837               292.5324               346.1999
 Red. masses --      2.5307                 2.7411                 2.5325
 Frc consts  --      0.1181                 0.1382                 0.1788
 IR Inten    --      1.0444                 3.7888                 2.1500

                     13                     14                     15
                      A                      A                      A
 Frequencies --    361.9890               415.5431               471.1271
 Red. masses --      2.5951                 2.1565                 2.9722
 Frc consts  --      0.2004                 0.2194                 0.3887
 IR Inten    --      0.1552                 0.3637                 4.1287

                     16                     17                     18
                      A                      A                      A
 Frequencies --    551.5482               562.0893               820.4433
 Red. masses --      4.6889                 2.5160                 2.4613
 Frc consts  --      0.8404                 0.4684                 0.9762
 IR Inten    --      3.1068                 2.2481                 0.8606

                     19                     20                     21
                      A                      A                      A
 Frequencies --    841.0571               928.5999               959.9350
 Red. masses --      1.8968                 1.1941                 1.9452
 Frc consts  --      0.7905                 0.6066                 1.0561
 IR Inten    --      7.4414                 1.4209                 8.6325

                     22                     23                     24
                      A                      A                      A
 Frequencies --    965.0659               979.6819               994.4082
 Red. masses --      1.4379                 3.7239                 1.9481
 Frc consts  --      0.7890                 2.1058                 1.1350
 IR Inten    --      1.2215                58.4771                16.6553

                     25                     26                     27
                      A                      A                      A
 Frequencies --   1061.2461              1120.4058              1141.7397
 Red. masses --      3.4811                 6.8056                 2.3756
 Frc consts  --      2.3099                 5.0335                 1.8245
 IR Inten    --     12.4577               201.5605                25.0227

                     28                     29                     30
                      A                      A                      A
 Frequencies --   1155.3247              1167.4607              1179.8268
 Red. masses --      1.6886                 3.1321                 1.3211
 Frc consts  --      1.3279                 2.5152                 1.0835
 IR Inten    --     28.4392               111.7870                 6.2124

                     31                     32                     33
                      A                      A                      A
 Frequencies --   1183.4756              1194.4942              1215.8507
 Red. masses --      1.2998                 1.7735                 1.4999
 Frc consts  --      1.0726                 1.4909                 1.3064
 IR Inten    --      6.6059                 2.9186                30.9516

                     34                     35                     36
                      A                      A                      A
 Frequencies --   1234.6900              1283.6153              1304.3570
 Red. masses --      1.8256                 1.5288                 1.2875
 Frc consts  --      1.6398                 1.4841                 1.2906
 IR Inten    --     31.5123                15.5564                 3.3265

                     37                     38                     39
                      A                      A                      A
 Frequencies --   1364.4184              1373.6086              1399.1098
 Red. masses --      1.3579                 1.3332                 1.2251
 Frc consts  --      1.4894                 1.4821                 1.4130
 IR Inten    --      2.7015                 2.6424                15.3674

                     40                     41                     42
                      A                      A                      A
 Frequencies --   1402.6393              1410.8591              1421.6649
 Red. masses --      1.2982                 1.3396                 1.2453
 Frc consts  --      1.5048                 1.5710                 1.4830
 IR Inten    --     34.1947                26.6102                 3.1307

                     43                     44                     45
                      A                      A                      A
 Frequencies --   1468.3536              1474.4417              1481.1846
 Red. masses --      1.0951                 1.1370                 1.1376
 Frc consts  --      1.3911                 1.4563                 1.4705
 IR Inten    --      1.6937                 3.2050                 3.7441

                     46                     47                     48
                      A                      A                      A
 Frequencies --   1483.1553              1487.9334              1492.1283
 Red. masses --      1.0537                 1.0476                 1.0811
 Frc consts  --      1.3656                 1.3665                 1.4182
 IR Inten    --      4.4868                 0.6855                 1.5504

                     49                     50                     51
                      A                      A                      A
 Frequencies --   1494.8998              1505.2315              1510.0905
 Red. masses --      1.0565                 1.0560                 1.0503
 Frc consts  --      1.3911                 1.4097                 1.4111
 IR Inten    --      2.6670                 3.5919                10.8215

                     52                     53                     54
                      A                      A                      A
 Frequencies --   1512.2281              1514.8918              2905.4487
 Red. masses --      1.0610                 1.0571                 1.0801
 Frc consts  --      1.4296                 1.4294                 5.3720
 IR Inten    --      3.1472                 6.7197                44.8560

                     55                     56                     57
                      A                      A                      A
 Frequencies --   2974.9856              2986.9431              3019.6672
 Red. masses --      1.0378                 1.0464                 1.0663
 Frc consts  --      5.4116                 5.5008                 5.7285
 IR Inten    --     52.1874                57.2212                43.9927

                     58                     59                     60
                      A                      A                      A
 Frequencies --   3020.3627              3023.3536              3026.0531
 Red. masses --      1.0537                 1.0557                 1.0651
 Frc consts  --      5.6635                 5.6857                 5.7461
 IR Inten    --      6.2334                29.2847                38.0335

                     61                     62                     63
                      A                      A                      A
 Frequencies --   3040.6732              3071.1409              3075.6478
 Red. masses --      1.0761                 1.0877                 1.1002
 Frc consts  --      5.8621                 6.0443                 6.1321
 IR Inten    --     14.5413                43.4684                11.0945

                     64                     65                     66
                      A                      A                      A
 Frequencies --   3084.1409              3093.0675              3097.8912
 Red. masses --      1.0996                 1.0989                 1.1015
 Frc consts  --      6.1625                 6.1942                 6.2285
 IR Inten    --      6.0895                75.0387                29.7812

                     67                     68                     69
                      A                      A                      A
 Frequencies --   3101.1818              3112.1999              3125.6558
 Red. masses --      1.1004                 1.0960                 1.1017
 Frc consts  --      6.2353                 6.2544                 6.3417
 IR Inten    --     46.6464                28.9728                24.2496

 - Thermochemistry -
 -------------------
 Temperature   298.150 Kelvin.  Pressure   1.00000 Atm.
 Atom     1 has atomic number  6 and mass  12.00000

 Molecular mass:   132.11503 amu.
 Principal axes and moments of inertia in atomic units:
                           1         2         3
     Eigenvalues --   844.456481943.262592308.50207
           X            0.99992  -0.00468   0.01160
           Y            0.00473   0.99998  -0.00425
           Z           -0.01158   0.00431   0.99992
 This molecule is an asymmetric top.
 Rotational symmetry number  1.
 Warning -- assumption of classical behavior for rotation
           may cause significant error
 Rotational temperatures (Kelvin)      0.10257     0.04457     0.03752
 Rotational constants (GHZ):           2.13716     0.92872     0.78178
 Zero-point vibrational energy     591337.8 (Joules/Mol)
                                  141.33312 (Kcal/Mol)
 Warning -- explicit consideration of  17 degrees of freedom as
           vibrations may cause significant error
 Vibrational temperatures:     46.30   109.59   129.16   150.11   214.19
          (Kelvin)            241.89   294.85   328.43   347.99   404.99
                              420.89   498.10   520.82   597.87   677.85
                              793.55   808.72  1180.43  1210.09  1336.05
                             1381.13  1388.51  1409.54  1430.73  1526.90
                             1612.01  1642.71  1662.25  1679.72  1697.51
                             1702.76  1718.61  1749.34  1776.44  1846.84
                             1876.68  1963.09  1976.32  2013.01  2018.09
                             2029.91  2045.46  2112.63  2121.39  2131.09
                             2133.93  2140.80  2146.84  2150.83  2165.69
                             2172.68  2175.76  2179.59  4180.29  4280.34
                             4297.54  4344.63  4345.63  4349.93  4353.82
                             4374.85  4418.69  4425.17  4437.39  4450.23
                             4457.17  4461.91  4477.76  4497.12

 Zero-point correction=                           0.225229 (Hartree/Particle)
 Thermal correction to Energy=                    0.237193
 Thermal correction to Enthalpy=                  0.238137
 Thermal correction to Gibbs Free Energy=         0.187027
 Sum of electronic and zero-point Energies=           -426.621792
 Sum of electronic and thermal Energies=              -426.609828
 Sum of electronic and thermal Enthalpies=            -426.608884
 Sum of electronic and thermal Free Energies=         -426.659993

                     E (Thermal)             CV                S
                      KCal/Mol        Cal/Mol-Kelvin    Cal/Mol-Kelvin
 Total                  148.841             41.927            107.569
 Electronic               0.000              0.000              0.000
 Translational            0.889              2.981             40.548
 Rotational               0.889              2.981             29.717
 Vibrational            147.063             35.965             37.304
 Vibration     1          0.594              1.983              5.690
 Vibration     2          0.599              1.965              3.987
 Vibration     3          0.602              1.956              3.665
 Vibration     4          0.605              1.946              3.372
 Vibration     5          0.618              1.904              2.687
 Vibration     6          0.625              1.882              2.456
 Vibration     7          0.640              1.833              2.088
 Vibration     8          0.651              1.798              1.893
 Vibration     9          0.658              1.776              1.789
 Vibration    10          0.681              1.708              1.525
 Vibration    11          0.688              1.688              1.459
 Vibration    12          0.724              1.583              1.183
 Vibration    13          0.736              1.551              1.114
 Vibration    14          0.779              1.436              0.907
 Vibration    15          0.828              1.314              0.734
 Vibration    16          0.907              1.136              0.541
 Vibration    17          0.918              1.113              0.520

                           ! Non-Optimized Parameters !
 Normal termination of Gaussian 16 at Thu Aug  4 09:05:21 2022.
