 Gaussian 16, Revision A.03,
 Gaussian 16:  ES64L-G16RevA.03 25-Dec-2016

 -----------------------------
 # opt freq b3lyp/6-31g(2df,p)
 -----------------------------

 -------------------
 Title Card Required
 -------------------
 Symbolic Z-matrix:
 Charge =  0 Multiplicity = 1

 SCF Done:  E(RB3LYP) =  -456.431474028     A.U. after   14 cycles
 SCF Done:  E(RB3LYP) =  -456.435327292     A.U. after   12 cycles
 SCF Done:  E(RB3LYP) =  -456.436475576     A.U. after   12 cycles
 SCF Done:  E(RB3LYP) =  -456.437061783     A.U. after   13 cycles
 SCF Done:  E(RB3LYP) =  -456.437124703     A.U. after   10 cycles
 SCF Done:  E(RB3LYP) =  -456.437137250     A.U. after    8 cycles
 SCF Done:  E(RB3LYP) =  -456.437140579     A.U. after    9 cycles
 SCF Done:  E(RB3LYP) =  -456.437141252     A.U. after    7 cycles
 SCF Done:  E(RB3LYP) =  -456.437141592     A.U. after    7 cycles
 SCF Done:  E(RB3LYP) =  -456.437141657     A.U. after    6 cycles
 SCF Done:  E(RB3LYP) =  -456.437141680     A.U. after    6 cycles
 Optimization completed.
    -- Stationary point found.
 Normal termination of Gaussian 16 at Sun Jul  3 16:56:42 2022.

 ----------------------------------------------------------------------
 #N Geom=AllCheck Guess=TCheck SCRF=Check GenChk RB3LYP/6-31G(2df,p) Fr
 eq
 ----------------------------------------------------------------------

 Structure from the checkpoint file:  "CONCCpCtNpCO.chk"
 -------------------
 Title Card Required
 -------------------
 Charge =  0 Multiplicity = 1

                         Standard orientation:
 ---------------------------------------------------------------------
 Center     Atomic      Atomic             Coordinates (Angstroms)
 Number     Number       Type             X           Y           Z
 ---------------------------------------------------------------------
      1          6           0        3.694705   -0.390164    0.398712
      2          8           0        2.685074    0.029425   -0.500918
      3          7           0        1.480389    0.277627    0.237980
      4          6           0        0.422938   -0.486011   -0.419662
      5          6           0       -0.935024   -0.176638    0.240428
      6          6           0       -1.285586    1.236515    0.064654
      7          7           0       -1.518638    2.358342   -0.087811
      8          6           0       -2.050484   -1.094792   -0.311202
      9          8           0       -3.313457   -0.832113    0.252042
     10          1           0        4.577159   -0.587283   -0.216629
     11          1           0        3.408856   -1.305397    0.932783
     12          1           0        3.931459    0.388333    1.135100
     13          1           0        1.302033    1.270032    0.078547
     14          1           0        0.644006   -1.549431   -0.284216
     15          1           0        0.370347   -0.288042   -1.500241
     16          1           0       -0.833249   -0.356542    1.318963
     17          1           0       -1.735748   -2.138190   -0.160281
     18          1           0       -2.158532   -0.931324   -1.387533
     19          1           0       -3.290807   -1.065900    1.185753
 ---------------------------------------------------------------------

 SCF Done:  E(RB3LYP) =  -456.437141680     A.U. after    1 cycles

 The electronic state is 1-A.
 Alpha  occ. eigenvalues --  -19.17013 -19.15872 -14.37578 -14.33121 -10.25875
 Alpha  occ. eigenvalues --  -10.24560 -10.23468 -10.22663 -10.22235  -1.06934
 Alpha  occ. eigenvalues --   -1.04282  -0.90799  -0.87207  -0.80065  -0.69118
 Alpha  occ. eigenvalues --   -0.66220  -0.64686  -0.55464  -0.52584  -0.51327
 Alpha  occ. eigenvalues --   -0.48009  -0.46867  -0.45541  -0.43667  -0.43057
 Alpha  occ. eigenvalues --   -0.41290  -0.39724  -0.36374  -0.35898  -0.35201
 Alpha  occ. eigenvalues --   -0.33158  -0.32774  -0.29334  -0.27169  -0.25213
 Alpha virt. eigenvalues --    0.02281   0.02886   0.06544   0.08230   0.09510
 Alpha virt. eigenvalues --    0.10035   0.11454   0.11640   0.13982   0.15685
 Alpha virt. eigenvalues --    0.15932   0.16798   0.17394   0.19295   0.19830

 Mulliken charges:
               1
     1  C   -0.203130
     2  O   -0.249116
     3  N   -0.230084
     4  C   -0.111452
     5  C   -0.196801
     6  C    0.288488
     7  N   -0.326688
     8  C   -0.066451
     9  O   -0.401829
    10  H    0.125234
    11  H    0.107412
    12  H    0.114295
    13  H    0.254508
    14  H    0.117848
    15  H    0.118005
    16  H    0.130370
    17  H    0.103701
    18  H    0.135528
    19  H    0.290161
 Sum of Mulliken charges =  -0.00000

 Dipole moment (field-independent basis, Debye):
    X=              1.5252    Y=             -3.9931    Z=              1.4128  Tot=              4.5019
 Quadrupole moment (field-independent basis, Debye-Ang):
   XX=            -57.0362   YY=            -59.4109   ZZ=            -51.3042
   XY=              6.3396   XZ=             -1.9974   YZ=             -0.9247

  Exact polarizability:  89.299  -3.977  76.245   0.102  -0.524  58.989
 Approx polarizability: 105.862  -8.822 119.378  -1.413  -3.394  90.882

                      1                      2                      3
                      A                      A                      A
 Frequencies --     42.4536                67.7596                96.4601
 Red. masses --      3.1087                 3.3410                 3.1747
 Frc consts  --      0.0033                 0.0090                 0.0174
 IR Inten    --      0.9619                 3.0915                 0.6248

                      4                      5                      6
                      A                      A                      A
 Frequencies --     97.6303               125.1764               170.8256
 Red. masses --      4.0586                 2.9026                 3.1328
 Frc consts  --      0.0228                 0.0268                 0.0539
 IR Inten    --      8.4661                 0.1396                 5.9501

                      7                      8                      9
                      A                      A                      A
 Frequencies --    205.3796               246.6450               314.5408
 Red. masses --      1.2944                 2.9548                 3.0878
 Frc consts  --      0.0322                 0.1059                 0.1800
 IR Inten    --      1.5528                 7.4721                30.0385

                     10                     11                     12
                      A                      A                      A
 Frequencies --    317.2634               342.3404               450.7655
 Red. masses --      1.9127                 2.7552                 5.6840
 Frc consts  --      0.1134                 0.1902                 0.6805
 IR Inten    --     45.8907                45.6755                14.4519

                     13                     14                     15
                      A                      A                      A
 Frequencies --    473.5638               562.4225               637.3879
 Red. masses --      3.4069                 3.6552                 3.6577
 Frc consts  --      0.4502                 0.6812                 0.8755
 IR Inten    --      4.3716                 4.1574                 9.4993

                     16                     17                     18
                      A                      A                      A
 Frequencies --    793.0774               878.6058               924.6490
 Red. masses --      2.9854                 2.6324                 1.5920
 Frc consts  --      1.1063                 1.1973                 0.8020
 IR Inten    --      3.0970                19.9252                11.7429

                     19                     20                     21
                      A                      A                      A
 Frequencies --    994.3078              1017.2671              1059.5891
 Red. masses --      2.0594                 3.0112                 2.1839
 Frc consts  --      1.1996                 1.8360                 1.4446
 IR Inten    --     85.2002                19.4100                13.3807

                     22                     23                     24
                      A                      A                      A
 Frequencies --   1081.4977              1103.2800              1115.9922
 Red. masses --      3.8002                 4.3058                 4.2724
 Frc consts  --      2.6189                 3.0880                 3.1350
 IR Inten    --     13.2619                 9.0988               105.0375

                     25                     26                     27
                      A                      A                      A
 Frequencies --   1158.6830              1181.8673              1188.8052
 Red. masses --      1.7178                 1.2861                 1.2988
 Frc consts  --      1.3588                 1.0585                 1.0815
 IR Inten    --      2.6381                 2.8832                16.5013

                     28                     29                     30
                      A                      A                      A
 Frequencies --   1220.2771              1270.4825              1287.8287
 Red. masses --      1.6017                 1.3369                 1.1623
 Frc consts  --      1.4052                 1.2715                 1.1357
 IR Inten    --      4.8710                12.5307                 3.7228

                     31                     32                     33
                      A                      A                      A
 Frequencies --   1366.0813              1369.5802              1396.6333
 Red. masses --      1.3652                 1.3811                 1.2725
 Frc consts  --      1.5010                 1.5263                 1.4624
 IR Inten    --      3.6391                11.7662                 4.3412

                     34                     35                     36
                      A                      A                      A
 Frequencies --   1417.8171              1461.7926              1473.5558
 Red. masses --      1.2084                 1.1313                 1.0557
 Frc consts  --      1.4312                 1.4243                 1.3506
 IR Inten    --     39.6199                 2.5333                 4.9013

                     37                     38                     39
                      A                      A                      A
 Frequencies --   1491.3641              1502.2074              1509.7114
 Red. masses --      1.1213                 1.0857                 1.0629
 Frc consts  --      1.4694                 1.4435                 1.4273
 IR Inten    --      8.4416                 3.8034                19.9539

                     40                     41                     42
                      A                      A                      A
 Frequencies --   1515.4379              2356.1201              2994.7915
 Red. masses --      1.0805                12.6414                 1.0674
 Frc consts  --      1.4620                41.3465                 5.6404
 IR Inten    --      0.3582                 5.9299                35.3164

                     43                     44                     45
                      A                      A                      A
 Frequencies --   3000.7932              3003.6467              3030.1264
 Red. masses --      1.0660                 1.0338                 1.0802
 Frc consts  --      5.6559                 5.4953                 5.8438
 IR Inten    --     50.5405                46.8199                 7.2540

                     46                     47                     48
                      A                      A                      A
 Frequencies --   3063.3202              3077.7526              3093.2152
 Red. masses --      1.1053                 1.0955                 1.0959
 Frc consts  --      6.1108                 6.1142                 6.1780
 IR Inten    --     45.3743                18.0852                23.5275

                     49                     50                     51
                      A                      A                      A
 Frequencies --   3114.6535              3444.8948              3814.4840
 Red. masses --      1.1007                 1.0750                 1.0663
 Frc consts  --      6.2915                 7.5164                 9.1412
 IR Inten    --     25.1009                 1.7603                25.8228

 - Thermochemistry -
 -------------------
 Temperature   298.150 Kelvin.  Pressure   1.00000 Atm.
 Atom     1 has atomic number  6 and mass  12.00000

 Molecular mass:   130.07423 amu.
 Principal axes and moments of inertia in atomic units:
                           1         2         3
     Eigenvalues --   578.842852471.035372896.07326
           X            0.99995   0.00781   0.00663
           Y           -0.00782   0.99997   0.00163
           Z           -0.00661  -0.00168   0.99998
 This molecule is an asymmetric top.
 Rotational symmetry number  1.
 Warning -- assumption of classical behavior for rotation
           may cause significant error
 Rotational temperatures (Kelvin)      0.14963     0.03505     0.02991
 Rotational constants (GHZ):           3.11784     0.73036     0.62317
 Zero-point vibrational energy     412261.9 (Joules/Mol)
                                   98.53295 (Kcal/Mol)
 Warning -- explicit consideration of  14 degrees of freedom as
           vibrations may cause significant error
 Vibrational temperatures:     61.08    97.49   138.78   140.47   180.10
          (Kelvin)            245.78   295.50   354.87   452.55   456.47
                              492.55   648.55   681.35   809.20   917.06
                             1141.06  1264.12  1330.36  1430.59  1463.62
                             1524.51  1556.03  1587.37  1605.66  1667.09
                             1700.44  1710.43  1755.71  1827.94  1852.90
                             1965.49  1970.52  2009.44  2039.92  2103.19
                             2120.12  2145.74  2161.34  2172.14  2180.38
                             3389.93  4308.84  4317.47  4321.58  4359.68
                             4407.43  4428.20  4450.45  4481.29  4956.44
                             5488.19

 Zero-point correction=                           0.157022 (Hartree/Particle)
 Thermal correction to Energy=                    0.167846
 Thermal correction to Enthalpy=                  0.168790
 Thermal correction to Gibbs Free Energy=         0.119572
 Sum of electronic and zero-point Energies=           -456.280119
 Sum of electronic and thermal Energies=              -456.269296
 Sum of electronic and thermal Enthalpies=            -456.268351
 Sum of electronic and thermal Free Energies=         -456.317570

                     E (Thermal)             CV                S
                      KCal/Mol        Cal/Mol-Kelvin    Cal/Mol-Kelvin
 Total                  105.325             36.472            103.589
 Electronic               0.000              0.000              0.000
 Translational            0.889              2.981             40.502
 Rotational               0.889              2.981             29.806
 Vibrational            103.548             30.510             33.281
 Vibration     1          0.595              1.980              5.141
 Vibration     2          0.598              1.970              4.217
 Vibration     3          0.603              1.952              3.525
 Vibration     4          0.603              1.951              3.501
 Vibration     5          0.610              1.928              3.019
 Vibration     6          0.626              1.878              2.426
 Vibration     7          0.640              1.832              2.084
 Vibration     8          0.661              1.768              1.754
 Vibration     9          0.702              1.646              1.338
 Vibration    10          0.704              1.641              1.324
 Vibration    11          0.721              1.591              1.201
 Vibration    12          0.810              1.359              0.793
 Vibration    13          0.830              1.309              0.728
 Vibration    14          0.918              1.113              0.519

 Optimization completed.
    -- Stationary point found.
 Normal termination of Gaussian 16 at Sun Jul  3 17:19:54 2022.
