 Gaussian 16, Revision A.03,
 Gaussian 16:  ES64L-G16RevA.03 25-Dec-2016

 -----------------------------
 # opt freq b3lyp/6-31g(2df,p)
 -----------------------------

 -------------------
 Title Card Required
 -------------------
 Symbolic Z-matrix:
 Charge =  0 Multiplicity = 1

 SCF Done:  E(RB3LYP) =  -379.568158134     A.U. after   16 cycles
 SCF Done:  E(RB3LYP) =  -379.619927550     A.U. after   13 cycles
 SCF Done:  E(RB3LYP) =  -379.628434558     A.U. after   14 cycles
 SCF Done:  E(RB3LYP) =  -379.624924687     A.U. after   15 cycles
 SCF Done:  E(RB3LYP) =  -379.624436755     A.U. after   14 cycles
 SCF Done:  E(RB3LYP) =  -379.620104499     A.U. after   14 cycles
 SCF Done:  E(RB3LYP) =  -379.628520886     A.U. after   11 cycles
 SCF Done:  E(RB3LYP) =  -379.627890497     A.U. after   15 cycles
 SCF Done:  E(RB3LYP) =  -379.629380670     A.U. after   15 cycles
 SCF Done:  E(RB3LYP) =  -379.629035510     A.U. after   13 cycles
 SCF Done:  E(RB3LYP) =  -379.629336890     A.U. after   14 cycles
 SCF Done:  E(RB3LYP) =  -379.629433024     A.U. after   10 cycles
 SCF Done:  E(RB3LYP) =  -379.629476526     A.U. after   15 cycles
 SCF Done:  E(RB3LYP) =  -379.629465645     A.U. after   13 cycles
 SCF Done:  E(RB3LYP) =  -379.629494274     A.U. after   10 cycles
 SCF Done:  E(RB3LYP) =  -379.629493493     A.U. after   10 cycles
 SCF Done:  E(RB3LYP) =  -379.629494965     A.U. after   10 cycles
 SCF Done:  E(RB3LYP) =  -379.629498206     A.U. after    9 cycles
 Optimization completed.
    -- Stationary point found.
 Normal termination of Gaussian 16 at Sun Jul  3 18:59:41 2022.

 ----------------------------------------------------------------------
 #N Geom=AllCheck Guess=TCheck SCRF=Check GenChk RB3LYP/6-31G(2df,p) Fr
 eq
 ----------------------------------------------------------------------

 Structure from the checkpoint file:  "CtCCtCCpCtCpNN.chk"
 -------------------
 Title Card Required
 -------------------
 Charge =  0 Multiplicity = 1

                         Standard orientation:
 ---------------------------------------------------------------------
 Center     Atomic      Atomic             Coordinates (Angstroms)
 Number     Number       Type             X           Y           Z
 ---------------------------------------------------------------------
      1          6           0        4.376485   -0.050487   -0.167572
      2          6           0        3.176456   -0.044419   -0.036603
      3          6           0        1.824145   -0.040298    0.113766
      4          6           0        0.621946   -0.031235    0.241488
      5          6           0       -0.829836   -0.066146    0.419182
      6          6           0       -1.451750    1.218993    0.071844
      7          6           0       -1.986005    2.261108   -0.192652
      8          7           0       -1.409198   -1.153150   -0.406921
      9          7           0       -2.762671   -1.454710   -0.101429
     10          1           0        5.431604   -0.052617   -0.286915
     11          1           0       -1.029662   -0.245504    1.495933
     12          1           0       -2.443128    3.188829   -0.435323
     13          1           0       -0.861667   -1.993833   -0.254719
     14          1           0       -3.336607   -0.753352   -0.560207
     15          1           0       -2.946100   -1.373602    0.902963
 ---------------------------------------------------------------------

 SCF Done:  E(RB3LYP) =  -379.629498206     A.U. after    1 cycles

 The electronic state is 1-A.
 Alpha  occ. eigenvalues --  -14.35541 -14.34423 -10.27274 -10.21015 -10.20924
 Alpha  occ. eigenvalues --  -10.20758 -10.20048 -10.19598 -10.18853  -0.97592
 Alpha  occ. eigenvalues --   -0.83661  -0.79447  -0.75447  -0.74148  -0.69260
 Alpha  occ. eigenvalues --   -0.61950  -0.55379  -0.52549  -0.51680  -0.50773
 Alpha  occ. eigenvalues --   -0.49656  -0.46778  -0.43906  -0.35273  -0.35015
 Alpha  occ. eigenvalues --   -0.29093  -0.28469  -0.26838  -0.25856  -0.25320
 Alpha  occ. eigenvalues --   -0.24472
 Alpha virt. eigenvalues --   -0.02942  -0.02166   0.03569   0.04779   0.08623
 Alpha virt. eigenvalues --    0.11220   0.11374   0.11880   0.13407   0.15201
 Alpha virt. eigenvalues --    0.15790   0.16741   0.20796   0.22728   0.25978

 Mulliken charges:
               1
     1  C   -0.554339
     2  C    0.290810
     3  C   -0.198614
     4  C    0.418447
     5  C   -0.401434
     6  C    0.392630
     7  C   -0.461573
     8  N   -0.263378
     9  N   -0.460454
    10  H    0.196381
    11  H    0.117030
    12  H    0.207596
    13  H    0.243562
    14  H    0.253971
    15  H    0.219364
 Sum of Mulliken charges =  -0.00000

 Dipole moment (field-independent basis, Debye):
    X=             -0.1383    Y=              0.6073    Z=              1.4293  Tot=              1.5591
 Quadrupole moment (field-independent basis, Debye-Ang):
   XX=            -38.6478   YY=            -49.6882   ZZ=            -52.3390
   XY=             -5.3994   XZ=             -3.3253   YZ=             -3.2469

  Exact polarizability: 155.519  -8.698  70.764  -4.896  -3.387  47.621
 Approx polarizability: 255.982 -15.406 106.847 -12.893  -7.261  74.389

                      1                      2                      3
                      A                      A                      A
 Frequencies --     64.5476                82.5305               111.2503
 Red. masses --      4.9596                 4.3303                 3.5898
 Frc consts  --      0.0122                 0.0174                 0.0262
 IR Inten    --      0.8724                 2.5078                 0.7112

                      4                      5                      6
                      A                      A                      A
 Frequencies --    175.0248               216.9224               229.5270
 Red. masses --      3.4111                 3.5387                 4.7165
 Frc consts  --      0.0616                 0.0981                 0.1464
 IR Inten    --      1.2448                 7.8307                 1.3200

                      7                      8                      9
                      A                      A                      A
 Frequencies --    341.7068               352.9686               372.8482
 Red. masses --      6.0052                 2.9209                 1.5341
 Frc consts  --      0.4131                 0.2144                 0.1257
 IR Inten    --      2.1055                14.0613                22.9554

                     10                     11                     12
                      A                      A                      A
 Frequencies --    436.7288               496.2801               546.4620
 Red. masses --      7.0809                 9.4395                 4.4116
 Frc consts  --      0.7957                 1.3698                 0.7762
 IR Inten    --      0.3216                 4.3466                 8.1911

                     13                     14                     15
                      A                      A                      A
 Frequencies --    565.0983               570.8050               600.4056
 Red. masses --      3.8413                 3.4591                 1.5268
 Frc consts  --      0.7227                 0.6640                 0.3243
 IR Inten    --      1.7177                25.5071                28.0274

                     16                     17                     18
                      A                      A                      A
 Frequencies --    614.1469               637.4978               672.1666
 Red. masses --      1.5581                 1.2331                 1.2483
 Frc consts  --      0.3463                 0.2953                 0.3323
 IR Inten    --     29.5501                36.8687                35.8431

                     19                     20                     21
                      A                      A                      A
 Frequencies --    802.3989               814.3607               893.2465
 Red. masses --      2.0475                 5.0357                 3.2944
 Frc consts  --      0.7767                 1.9676                 1.5487
 IR Inten    --    103.0082                 3.7403                29.8359

                     22                     23                     24
                      A                      A                      A
 Frequencies --    958.5489              1079.8569              1165.4362
 Red. masses --      2.0539                 2.9616                 3.2937
 Frc consts  --      1.1119                 2.0348                 2.6358
 IR Inten    --    109.4183                15.7632                20.7383

                     25                     26                     27
                      A                      A                      A
 Frequencies --   1190.1973              1264.0721              1316.7410
 Red. masses --      2.1050                 1.1306                 1.5341
 Frc consts  --      1.7569                 1.0644                 1.5671
 IR Inten    --     17.0486                27.5487                52.1841

                     28                     29                     30
                      A                      A                      A
 Frequencies --   1356.3704              1501.0941              1687.9652
 Red. masses --      1.3522                 1.1582                 1.0655
 Frc consts  --      1.4657                 1.5376                 1.7888
 IR Inten    --     19.2541                19.8533                13.3561

                     31                     32                     33
                      A                      A                      A
 Frequencies --   2184.6717              2243.6018              2367.5209
 Red. masses --      6.6570                 5.8728                10.6796
 Frc consts  --     18.7197                17.4176                35.2690
 IR Inten    --      2.5147                 2.1225                 0.1888

                     34                     35                     36
                      A                      A                      A
 Frequencies --   2878.5176              3376.9279              3501.3387
 Red. masses --      1.0776                 1.0571                 1.1639
 Frc consts  --      5.2606                 7.1022                 8.4071
 IR Inten    --     35.2897                17.5047                76.7281

                     37                     38                     39
                      A                      A                      A
 Frequencies --   3504.1484              3521.7516              3542.1721
 Red. masses --      1.1556                 1.0767                 1.0816
 Frc consts  --      8.3604                 7.8681                 7.9960
 IR Inten    --    109.0363                 1.9584                 3.4463

 - Thermochemistry -
 -------------------
 Temperature   298.150 Kelvin.  Pressure   1.00000 Atm.
 Atom     1 has atomic number  6 and mass  12.00000

 Molecular mass:   118.05310 amu.
 Principal axes and moments of inertia in atomic units:
                           1         2         3
     Eigenvalues --   551.215032422.451222902.44788
           X            0.99999   0.00085  -0.00400
           Y           -0.00091   0.99988  -0.01523
           Z            0.00399   0.01524   0.99988
 This molecule is an asymmetric top.
 Rotational symmetry number  1.
 Warning -- assumption of classical behavior for rotation
           may cause significant error
 Rotational temperatures (Kelvin)      0.15713     0.03575     0.02984
 Rotational constants (GHZ):           3.27411     0.74501     0.62180
 Zero-point vibrational energy     288526.5 (Joules/Mol)
                                   68.95948 (Kcal/Mol)
 Warning -- explicit consideration of  16 degrees of freedom as
           vibrations may cause significant error
 Vibrational temperatures:     92.87   118.74   160.06   251.82   312.10
          (Kelvin)            330.24   491.64   507.84   536.45   628.36
                              714.04   786.24   813.05   821.26   863.85
                              883.62   917.22   967.10  1154.47  1171.68
                             1285.18  1379.14  1553.67  1676.80  1712.43
                             1818.72  1894.50  1951.51  2159.74  2428.61
                             3143.26  3228.04  3406.33  4141.54  4858.65
                             5037.65  5041.69  5067.02  5096.40

 Zero-point correction=                           0.109894 (Hartree/Particle)
 Thermal correction to Energy=                    0.119712
 Thermal correction to Enthalpy=                  0.120656
 Thermal correction to Gibbs Free Energy=         0.074757
 Sum of electronic and zero-point Energies=           -379.519604
 Sum of electronic and thermal Energies=              -379.509786
 Sum of electronic and thermal Enthalpies=            -379.508842
 Sum of electronic and thermal Free Energies=         -379.554741

                     E (Thermal)             CV                S
                      KCal/Mol        Cal/Mol-Kelvin    Cal/Mol-Kelvin
 Total                   75.121             35.376             96.604
 Electronic               0.000              0.000              0.000
 Translational            0.889              2.981             40.213
 Rotational               0.889              2.981             29.740
 Vibrational             73.343             29.415             26.652
 Vibration     1          0.597              1.971              4.313
 Vibration     2          0.600              1.961              3.830
 Vibration     3          0.607              1.940              3.247
 Vibration     4          0.627              1.873              2.381
 Vibration     5          0.646              1.815              1.985
 Vibration     6          0.652              1.796              1.883
 Vibration     7          0.721              1.592              1.204
 Vibration     8          0.729              1.569              1.153
 Vibration     9          0.744              1.528              1.068
 Vibration    10          0.797              1.390              0.837
 Vibration    11          0.852              1.258              0.667
 Vibration    12          0.902              1.147              0.552
 Vibration    13          0.921              1.107              0.514
 Vibration    14          0.927              1.094              0.503
 Vibration    15          0.959              1.031              0.449
 Vibration    16          0.974              1.002              0.426

 Optimization completed.
    -- Stationary point found.
 Normal termination of Gaussian 16 at Sun Jul  3 19:16:04 2022.
