 Gaussian 16, Revision A.03,
 Gaussian 16:  ES64L-G16RevA.03 25-Dec-2016

 -----------------------------
 # opt freq b3lyp/6-31g(2df,p)
 -----------------------------

 -------------------
 Title Card Required
 -------------------
 Symbolic Z-matrix:
 Charge =  0 Multiplicity = 1

 SCF Done:  E(RB3LYP) =  -346.620874170     A.U. after   15 cycles
 SCF Done:  E(RB3LYP) =  -346.660090327     A.U. after   14 cycles
 SCF Done:  E(RB3LYP) =  -346.667917264     A.U. after   13 cycles
 SCF Done:  E(RB3LYP) =  -346.652972265     A.U. after   15 cycles
 SCF Done:  E(RB3LYP) =  -346.672511846     A.U. after   13 cycles
 SCF Done:  E(RB3LYP) =  -346.672972457     A.U. after   14 cycles
 SCF Done:  E(RB3LYP) =  -346.673196317     A.U. after   15 cycles
 SCF Done:  E(RB3LYP) =  -346.675566719     A.U. after   15 cycles
 SCF Done:  E(RB3LYP) =  -346.677379920     A.U. after   14 cycles
 SCF Done:  E(RB3LYP) =  -346.677800808     A.U. after   13 cycles
 SCF Done:  E(RB3LYP) =  -346.678188050     A.U. after   13 cycles
 SCF Done:  E(RB3LYP) =  -346.678394351     A.U. after   13 cycles
 SCF Done:  E(RB3LYP) =  -346.678492242     A.U. after   12 cycles
 SCF Done:  E(RB3LYP) =  -346.678545110     A.U. after   11 cycles
 SCF Done:  E(RB3LYP) =  -346.678556286     A.U. after   10 cycles
 SCF Done:  E(RB3LYP) =  -346.678559462     A.U. after    9 cycles
 SCF Done:  E(RB3LYP) =  -346.678560415     A.U. after    8 cycles
 SCF Done:  E(RB3LYP) =  -346.678560547     A.U. after    7 cycles
 Optimization completed.
    -- Stationary point found.
 Normal termination of Gaussian 16 at Sun Jul  3 19:20:52 2022.

 ----------------------------------------------------------------------
 #N Geom=AllCheck Guess=TCheck SCRF=Check GenChk RB3LYP/6-31G(2df,p) Fr
 eq
 ----------------------------------------------------------------------

 Structure from the checkpoint file:  "CtCCC1pCpCC1dO.chk"
 -------------------
 Title Card Required
 -------------------
 Charge =  0 Multiplicity = 1

                         Standard orientation:
 ---------------------------------------------------------------------
 Center     Atomic      Atomic             Coordinates (Angstroms)
 Number     Number       Type             X           Y           Z
 ---------------------------------------------------------------------
      1          6           0        2.891712    0.232696    0.052735
      2          6           0        1.891895   -0.407403   -0.133920
      3          6           0        0.670979   -1.174801   -0.346725
      4          6           0       -0.623463   -0.456040    0.048768
      5          6           0       -1.875315   -1.287652   -0.170909
      6          6           0       -0.602506    0.492428    1.305121
      7          6           0       -0.740042    1.012451   -0.067853
      8          8           0       -0.886203    1.962950   -0.777583
      9          1           0        3.778869    0.796814    0.203013
     10          1           0        0.731320   -2.116321    0.217947
     11          1           0        0.600282   -1.457588   -1.405406
     12          1           0       -1.849756   -2.195181    0.444330
     13          1           0       -1.964309   -1.589034   -1.220131
     14          1           0       -2.777827   -0.728080    0.090525
     15          1           0        0.355376    0.634966    1.798970
     16          1           0       -1.463896    0.480751    1.968110
 ---------------------------------------------------------------------

 SCF Done:  E(RB3LYP) =  -346.678560547     A.U. after    1 cycles

 The electronic state is 1-A.
 Alpha  occ. eigenvalues --  -19.14747 -10.27765 -10.22485 -10.21871 -10.19719
 Alpha  occ. eigenvalues --  -10.19654 -10.19018 -10.18020  -1.05105  -0.88031
 Alpha  occ. eigenvalues --   -0.78364  -0.73500  -0.70379  -0.59611  -0.54514
 Alpha  occ. eigenvalues --   -0.51301  -0.48851  -0.47486  -0.46121  -0.44802
 Alpha  occ. eigenvalues --   -0.41847  -0.40828  -0.39350  -0.37863  -0.36830
 Alpha  occ. eigenvalues --   -0.30733  -0.27587  -0.27217  -0.22801
 Alpha virt. eigenvalues --   -0.02800   0.04196   0.05039   0.08532   0.11149
 Alpha virt. eigenvalues --    0.12127   0.12468   0.14937   0.15971   0.16525
 Alpha virt. eigenvalues --    0.17674   0.18761   0.20596   0.23092   0.24103

 Mulliken charges:
               1
     1  C   -0.428476
     2  C    0.280626
     3  C   -0.401424
     4  C    0.150292
     5  C   -0.453138
     6  C   -0.447799
     7  C    0.431306
     8  O   -0.284960
     9  H    0.202635
    10  H    0.136007
    11  H    0.143533
    12  H    0.124337
    13  H    0.131540
    14  H    0.128249
    15  H    0.152800
    16  H    0.134474
 Sum of Mulliken charges =  -0.00000

 Dipole moment (field-independent basis, Debye):
    X=             -0.0366    Y=             -2.5257    Z=              1.3092  Tot=              2.8451
 Quadrupole moment (field-independent basis, Debye-Ang):
   XX=            -42.8424   YY=            -50.4990   ZZ=            -47.1179
   XY=              4.5990   XZ=             -0.7992   YZ=              3.5446

  Exact polarizability:  81.589   8.804  70.935   2.057   1.818  60.410
 Approx polarizability: 114.204  17.412 112.649   6.704  -1.714  95.523

                      1                      2                      3
                      A                      A                      A
 Frequencies --     65.1886               113.8377               160.2585
 Red. masses --      4.0331                 3.9175                 3.6411
 Frc consts  --      0.0101                 0.0299                 0.0551
 IR Inten    --      1.4275                 0.7589                 2.6605

                      4                      5                      6
                      A                      A                      A
 Frequencies --    210.1945               254.4406               309.8433
 Red. masses --      1.1007                 2.9982                 3.1252
 Frc consts  --      0.0287                 0.1144                 0.1768
 IR Inten    --      0.1359                 0.4321                 1.4048

                      7                      8                      9
                      A                      A                      A
 Frequencies --    320.2551               343.6244               458.5574
 Red. masses --      2.6630                 3.3478                 1.8245
 Frc consts  --      0.1609                 0.2329                 0.2260
 IR Inten    --      1.7492                 3.7104                 1.2294

                     10                     11                     12
                      A                      A                      A
 Frequencies --    504.8524               547.4069               625.5359
 Red. masses --      4.2448                 3.6234                 1.2103
 Frc consts  --      0.6374                 0.6397                 0.2790
 IR Inten    --      1.5435                 3.3013                40.8878

                     13                     14                     15
                      A                      A                      A
 Frequencies --    655.8434               714.0505               752.8523
 Red. masses --      1.2431                 3.7300                 4.7599
 Frc consts  --      0.3150                 1.1205                 1.5895
 IR Inten    --     40.1923                 0.1921                 7.3047

                     16                     17                     18
                      A                      A                      A
 Frequencies --    829.4017               929.0714               944.9466
 Red. masses --      1.4277                 2.6511                 1.8199
 Frc consts  --      0.5786                 1.3482                 0.9574
 IR Inten    --      3.2427                14.6514                28.9502

                     19                     20                     21
                      A                      A                      A
 Frequencies --    970.0355               995.5536              1014.3026
 Red. masses --      2.5519                 1.9843                 1.9066
 Frc consts  --      1.4148                 1.1587                 1.1557
 IR Inten    --     32.5961                10.6671                 1.3584

                     22                     23                     24
                      A                      A                      A
 Frequencies --   1040.0719              1114.6832              1203.0933
 Red. masses --      1.5983                 1.7519                 2.5098
 Frc consts  --      1.0187                 1.2825                 2.1404
 IR Inten    --      6.8833                 8.8047                 7.0594

                     25                     26                     27
                      A                      A                      A
 Frequencies --   1244.7904              1267.1080              1353.9280
 Red. masses --      1.4874                 2.1576                 1.6020
 Frc consts  --      1.3579                 2.0411                 1.7303
 IR Inten    --      0.4093                 5.4369                 9.1137

                     28                     29                     30
                      A                      A                      A
 Frequencies --   1405.5141              1423.8090              1467.2870
 Red. masses --      1.1977                 1.1924                 1.0859
 Frc consts  --      1.3941                 1.4242                 1.3774
 IR Inten    --      5.1317                 6.5392                 0.7091

                     31                     32                     33
                      A                      A                      A
 Frequencies --   1488.6082              1496.3362              1946.2256
 Red. masses --      1.0450                 1.0586                12.5491
 Frc consts  --      1.3643                 1.3965                28.0058
 IR Inten    --      3.3319                 4.9806               287.6172

                     34                     35                     36
                      A                      A                      A
 Frequencies --   2240.1769              3002.8651              3023.9503
 Red. masses --      5.9207                 1.0606                 1.0368
 Frc consts  --     17.5059                 5.6345                 5.5857
 IR Inten    --      0.3311                20.3270                31.2389

                     37                     38                     39
                      A                      A                      A
 Frequencies --   3038.6133              3088.9334              3107.4018
 Red. masses --      1.0981                 1.1001                 1.0737
 Frc consts  --      5.9739                 6.1844                 6.1087
 IR Inten    --      9.0027                19.5292                 2.1629

                     40                     41                     42
                      A                      A                      A
 Frequencies --   3111.1613              3199.4250              3504.8011
 Red. masses --      1.0789                 1.1142                 1.1627
 Frc consts  --      6.1529                 6.7199                 8.4146
 IR Inten    --     16.5711                 0.7271                66.6824

 - Thermochemistry -
 -------------------
 Temperature   298.150 Kelvin.  Pressure   1.00000 Atm.
 Atom     1 has atomic number  6 and mass  12.00000

 Molecular mass:   108.05751 amu.
 Principal axes and moments of inertia in atomic units:
                           1         2         3
     Eigenvalues --   629.796741054.735611377.99690
           X            0.99685   0.07933  -0.00194
           Y           -0.07914   0.99561   0.04996
           Z            0.00590  -0.04965   0.99875
 This molecule is an asymmetric top.
 Rotational symmetry number  1.
 Warning -- assumption of classical behavior for rotation
           may cause significant error
 Rotational temperatures (Kelvin)      0.13753     0.08212     0.06285
 Rotational constants (GHZ):           2.86559     1.71108     1.30968
 Zero-point vibrational energy     331896.9 (Joules/Mol)
                                   79.32527 (Kcal/Mol)
 Warning -- explicit consideration of  11 degrees of freedom as
           vibrations may cause significant error
 Vibrational temperatures:     93.79   163.79   230.58   302.42   366.08
          (Kelvin)            445.80   460.78   494.40   659.76   726.37
                              787.60   900.01   943.61  1027.36  1083.19
                             1193.32  1336.73  1359.57  1395.66  1432.38
                             1459.36  1496.43  1603.78  1730.98  1790.98
                             1823.09  1948.00  2022.22  2048.54  2111.10
                             2141.78  2152.89  2800.18  3223.11  4320.45
                             4350.79  4371.89  4444.29  4470.86  4476.27
                             4603.26  5042.63

 Zero-point correction=                           0.126413 (Hartree/Particle)
 Thermal correction to Energy=                    0.135143
 Thermal correction to Enthalpy=                  0.136087
 Thermal correction to Gibbs Free Energy=         0.093213
 Sum of electronic and zero-point Energies=           -346.552148
 Sum of electronic and thermal Energies=              -346.543418
 Sum of electronic and thermal Enthalpies=            -346.542473
 Sum of electronic and thermal Free Energies=         -346.585348

                     E (Thermal)             CV                S
                      KCal/Mol        Cal/Mol-Kelvin    Cal/Mol-Kelvin
 Total                   84.804             31.768             90.237
 Electronic               0.000              0.000              0.000
 Translational            0.889              2.981             39.949
 Rotational               0.889              2.981             28.306
 Vibrational             83.026             25.806             21.983
 Vibration     1          0.597              1.971              4.294
 Vibration     2          0.607              1.938              3.202
 Vibration     3          0.622              1.891              2.547
 Vibration     4          0.642              1.825              2.042
 Vibration     5          0.665              1.755              1.700
 Vibration     6          0.699              1.655              1.363
 Vibration     7          0.706              1.635              1.309
 Vibration     8          0.722              1.588              1.195
 Vibration     9          0.817              1.342              0.770
 Vibration    10          0.860              1.239              0.646
 Vibration    11          0.903              1.145              0.550

                           ! Non-Optimized Parameters !
 Normal termination of Gaussian 16 at Sun Jul  3 19:39:58 2022.
