 Gaussian 16, Revision A.03,
 Gaussian 16:  ES64L-G16RevA.03 25-Dec-2016

 -----------------------------
 # opt freq b3lyp/6-31g(2df,p)
 -----------------------------

 -------------------
 Title Card Required
 -------------------
 Symbolic Z-matrix:
 Charge =  0 Multiplicity = 1

 SCF Done:  E(RB3LYP) =  -432.881306350     A.U. after   16 cycles
 SCF Done:  E(RB3LYP) =  -432.905505749     A.U. after   13 cycles
 SCF Done:  E(RB3LYP) =  -432.906336714     A.U. after   12 cycles
 SCF Done:  E(RB3LYP) =  -432.898394428     A.U. after   15 cycles
 SCF Done:  E(RB3LYP) =  -432.905426184     A.U. after   12 cycles
 SCF Done:  E(RB3LYP) =  -432.906604919     A.U. after   10 cycles
 SCF Done:  E(RB3LYP) =  -432.906469848     A.U. after   12 cycles
 SCF Done:  E(RB3LYP) =  -432.906808763     A.U. after   12 cycles
 SCF Done:  E(RB3LYP) =  -432.906916084     A.U. after   11 cycles
 SCF Done:  E(RB3LYP) =  -432.906852282     A.U. after   11 cycles
 SCF Done:  E(RB3LYP) =  -432.908504927     A.U. after   13 cycles
 SCF Done:  E(RB3LYP) =  -432.909501005     A.U. after   13 cycles
 SCF Done:  E(RB3LYP) =  -432.910572746     A.U. after   13 cycles
 SCF Done:  E(RB3LYP) =  -432.910850477     A.U. after   12 cycles
 SCF Done:  E(RB3LYP) =  -432.911213524     A.U. after   11 cycles
 SCF Done:  E(RB3LYP) =  -432.911342604     A.U. after   12 cycles
 SCF Done:  E(RB3LYP) =  -432.911393661     A.U. after   11 cycles
 SCF Done:  E(RB3LYP) =  -432.911401992     A.U. after    9 cycles
 SCF Done:  E(RB3LYP) =  -432.911403932     A.U. after    9 cycles
 Optimization completed.
    -- Stationary point found.
 Normal termination of Gaussian 16 at Sun Jul  3 17:29:51 2022.

 ----------------------------------------------------------------------
 #N Geom=AllCheck Guess=TCheck SCRF=Check GenChk RB3LYP/6-31G(2df,p) Fr
 eq
 ----------------------------------------------------------------------

 Structure from the checkpoint file:  "CtCCNNCpdOpCtN.chk"
 -------------------
 Title Card Required
 -------------------
 Charge =  0 Multiplicity = 1

                         Standard orientation:
 ---------------------------------------------------------------------
 Center     Atomic      Atomic             Coordinates (Angstroms)
 Number     Number       Type             X           Y           Z
 ---------------------------------------------------------------------
      1          6           0       -4.208675    0.091093    0.042689
      2          6           0       -3.065853   -0.164739   -0.222128
      3          6           0       -1.676458   -0.489020   -0.509722
      4          7           0       -0.795505    0.081641    0.524906
      5          7           0        0.510776   -0.380833    0.425336
      6          6           0        1.523468    0.457166    0.044616
      7          8           0        1.455047    1.637678   -0.179228
      8          6           0        2.803228   -0.286342   -0.061511
      9          7           0        3.815503   -0.834546   -0.159947
     10          1           0       -5.221657    0.324619    0.261604
     11          1           0       -1.375024   -0.065427   -1.474568
     12          1           0       -1.565407   -1.585056   -0.590861
     13          1           0       -1.157590   -0.112880    1.452755
     14          1           0        0.709631   -1.375458    0.489170
 ---------------------------------------------------------------------

 SCF Done:  E(RB3LYP) =  -432.911403932     A.U. after    1 cycles

 The electronic state is 1-A.
 Alpha  occ. eigenvalues --  -19.14582 -14.41789 -14.39048 -14.35891 -10.33794
 Alpha  occ. eigenvalues --  -10.26287 -10.24109 -10.20507 -10.19821  -1.08324
 Alpha  occ. eigenvalues --   -1.02161  -0.92569  -0.87417  -0.78241  -0.71916
 Alpha  occ. eigenvalues --   -0.66636  -0.61109  -0.57091  -0.54033  -0.51599
 Alpha  occ. eigenvalues --   -0.47623  -0.46188  -0.45307  -0.44229  -0.38773
 Alpha  occ. eigenvalues --   -0.36357  -0.35369  -0.30593  -0.29716  -0.29438
 Alpha  occ. eigenvalues --   -0.29105  -0.27764
 Alpha virt. eigenvalues --   -0.05472   0.00425   0.02110   0.03362   0.05790
 Alpha virt. eigenvalues --    0.09892   0.10420   0.10787   0.11413   0.14637
 Alpha virt. eigenvalues --    0.15686   0.19984   0.21044   0.22590   0.25662

 Mulliken charges:
               1
     1  C   -0.412198
     2  C    0.266715
     3  C   -0.255879
     4  N   -0.248941
     5  N   -0.312542
     6  C    0.376712
     7  O   -0.308329
     8  C    0.190029
     9  N   -0.305561
    10  H    0.211591
    11  H    0.162418
    12  H    0.119954
    13  H    0.253559
    14  H    0.262473
 Sum of Mulliken charges =  -0.00000

 Dipole moment (field-independent basis, Debye):
    X=             -4.3225    Y=             -2.8300    Z=              1.0529  Tot=              5.2728
 Quadrupole moment (field-independent basis, Debye-Ang):
   XX=            -58.6939   YY=            -54.5715   ZZ=            -47.7356
   XY=              0.8175   XZ=             -0.0975   YZ=             -0.3924

  Exact polarizability: 113.524  -8.380  58.286  -6.779  -0.334  45.469
 Approx polarizability: 155.567 -19.953 103.235 -14.962  -2.465  70.184

                      1                      2                      3
                      A                      A                      A
 Frequencies --     46.0912                58.0036                64.2623
 Red. masses --      6.7815                 3.8666                 4.2427
 Frc consts  --      0.0085                 0.0077                 0.0103
 IR Inten    --      1.3527                 0.4799                 1.8055

                      4                      5                      6
                      A                      A                      A
 Frequencies --    152.7932               172.9465               295.9844
 Red. masses --      6.1974                 5.2242                 6.6216
 Frc consts  --      0.0852                 0.0921                 0.3418
 IR Inten    --      4.7398                 8.0441                20.0253

                      7                      8                      9
                      A                      A                      A
 Frequencies --    300.9138               341.8715               403.0811
 Red. masses --      5.0227                 3.7098                 6.3723
 Frc consts  --      0.2680                 0.2555                 0.6100
 IR Inten    --      7.2959                 4.0120                 9.2131

                     10                     11                     12
                      A                      A                      A
 Frequencies --    457.7993               482.7027               576.7859
 Red. masses --      7.8940                 1.2090                 8.2595
 Frc consts  --      0.9748                 0.1660                 1.6190
 IR Inten    --      5.0301                86.0522                 2.5985

                     13                     14                     15
                      A                      A                      A
 Frequencies --    620.2302               629.7920               687.4585
 Red. masses --      6.8304                 1.2052                 1.2468
 Frc consts  --      1.5481                 0.2816                 0.3472
 IR Inten    --      1.5030                44.1671                32.3517

                     16                     17                     18
                      A                      A                      A
 Frequencies --    742.6155               781.5988               939.0848
 Red. masses --      2.3203                 3.0984                 4.7756
 Frc consts  --      0.7539                 1.1152                 2.4813
 IR Inten    --     49.2613                47.2133                30.4776

                     19                     20                     21
                      A                      A                      A
 Frequencies --    982.8529              1014.0760              1092.2375
 Red. masses --      3.4962                 2.1530                 2.8383
 Frc consts  --      1.9899                 1.3045                 1.9950
 IR Inten    --      2.1375                11.0232                 1.8315

                     22                     23                     24
                      A                      A                      A
 Frequencies --   1121.1124              1236.6940              1256.5958
 Red. masses --      6.9350                 1.3899                 1.6554
 Frc consts  --      5.1356                 1.2524                 1.5401
 IR Inten    --    107.5603                31.5318                66.8512

                     25                     26                     27
                      A                      A                      A
 Frequencies --   1371.0812              1476.4194              1495.7957
 Red. masses --      1.3533                 1.2110                 1.0969
 Frc consts  --      1.4989                 1.5552                 1.4459
 IR Inten    --     20.1862                20.5986                 1.8536

                     28                     29                     30
                      A                      A                      A
 Frequencies --   1569.7780              1823.3850              2248.7841
 Red. masses --      1.5209                11.3795                 5.8874
 Frc consts  --      2.2082                22.2910                17.5417
 IR Inten    --     89.0680               294.4936                 1.5338

                     31                     32                     33
                      A                      A                      A
 Frequencies --   2349.3753              2945.0127              3057.2261
 Red. masses --     12.7229                 1.0722                 1.0868
 Frc consts  --     41.3753                 5.4790                 5.9848
 IR Inten    --     11.3617                42.0389                 7.0153

                     34                     35                     36
                      A                      A                      A
 Frequencies --   3498.0499              3503.8790              3522.2127
 Red. masses --      1.0770                 1.1642                 1.0755
 Frc consts  --      7.7642                 8.4215                 7.8616
 IR Inten    --     31.1874                69.1172                 5.4965

 - Thermochemistry -
 -------------------
 Temperature   298.150 Kelvin.  Pressure   1.00000 Atm.
 Atom     1 has atomic number  6 and mass  12.00000

 Molecular mass:   123.04326 amu.
 Principal axes and moments of inertia in atomic units:
                           1         2         3
     Eigenvalues --   293.205532787.650852966.27350
           X            1.00000   0.00035   0.00032
           Y           -0.00035   0.99998   0.00549
           Z           -0.00032  -0.00549   0.99998
 This molecule is an asymmetric top.
 Rotational symmetry number  1.
 Rotational temperatures (Kelvin)      0.29540     0.03107     0.02920
 Rotational constants (GHZ):           6.15521     0.64741     0.60842
 Zero-point vibrational energy     259102.7 (Joules/Mol)
                                   61.92702 (Kcal/Mol)
 Warning -- explicit consideration of  13 degrees of freedom as
           vibrations may cause significant error
 Vibrational temperatures:     66.31    83.45    92.46   219.84   248.83
          (Kelvin)            425.86   432.95   491.88   579.94   658.67
                              694.50   829.87   892.37   906.13   989.10
                             1068.46  1124.55  1351.13  1414.11  1459.03
                             1571.49  1613.03  1779.33  1807.96  1972.68
                             2124.24  2152.12  2258.56  2623.44  3235.50
                             3380.23  4237.22  4398.67  5032.91  5041.30
                             5067.68

 Zero-point correction=                           0.098687 (Hartree/Particle)
 Thermal correction to Energy=                    0.108231
 Thermal correction to Enthalpy=                  0.109175
 Thermal correction to Gibbs Free Energy=         0.062791
 Sum of electronic and zero-point Energies=           -432.812717
 Sum of electronic and thermal Energies=              -432.803173
 Sum of electronic and thermal Enthalpies=            -432.802229
 Sum of electronic and thermal Free Energies=         -432.848613

                     E (Thermal)             CV                S
                      KCal/Mol        Cal/Mol-Kelvin    Cal/Mol-Kelvin
 Total                   67.916             32.500             97.624
 Electronic               0.000              0.000              0.000
 Translational            0.889              2.981             40.336
 Rotational               0.889              2.981             29.274
 Vibrational             66.138             26.538             28.014
 Vibration     1          0.595              1.979              4.978
 Vibration     2          0.596              1.974              4.524
 Vibration     3          0.597              1.971              4.322
 Vibration     4          0.619              1.900              2.637
 Vibration     5          0.626              1.876              2.403
 Vibration     6          0.690              1.681              1.440
 Vibration     7          0.693              1.672              1.412
 Vibration     8          0.721              1.592              1.203
 Vibration     9          0.768              1.463              0.951
 Vibration    10          0.816              1.344              0.773
 Vibration    11          0.839              1.288              0.703
 Vibration    12          0.933              1.081              0.491
 Vibration    13          0.980              0.989              0.416

 Optimization completed.
    -- Stationary point found.
 Normal termination of Gaussian 16 at Sun Jul  3 17:44:54 2022.
