 Gaussian 16, Revision A.03,
 Gaussian 16:  ES64L-G16RevA.03 25-Dec-2016

 -----------------------------
 # opt freq b3lyp/6-31g(2df,p)
 -----------------------------

 -------------------
 Title Card Required
 -------------------
 Symbolic Z-matrix:
 Charge =  0 Multiplicity = 1

 SCF Done:  E(RB3LYP) =  -346.642158569     A.U. after   15 cycles
 SCF Done:  E(RB3LYP) =  -346.677958193     A.U. after   14 cycles
 SCF Done:  E(RB3LYP) =  -346.679291157     A.U. after   14 cycles
 SCF Done:  E(RB3LYP) =  -346.671679702     A.U. after   15 cycles
 SCF Done:  E(RB3LYP) =  -346.679123247     A.U. after   14 cycles
 SCF Done:  E(RB3LYP) =  -346.680363103     A.U. after   13 cycles
 SCF Done:  E(RB3LYP) =  -346.681016237     A.U. after   12 cycles
 SCF Done:  E(RB3LYP) =  -346.680625838     A.U. after   14 cycles
 SCF Done:  E(RB3LYP) =  -346.680984712     A.U. after   13 cycles
 SCF Done:  E(RB3LYP) =  -346.681299459     A.U. after   11 cycles
 SCF Done:  E(RB3LYP) =  -346.681365193     A.U. after   12 cycles
 SCF Done:  E(RB3LYP) =  -346.681271217     A.U. after   11 cycles
 SCF Done:  E(RB3LYP) =  -346.681320085     A.U. after   12 cycles
 SCF Done:  E(RB3LYP) =  -346.681378683     A.U. after   11 cycles
 SCF Done:  E(RB3LYP) =  -346.681383271     A.U. after   11 cycles
 SCF Done:  E(RB3LYP) =  -346.681401958     A.U. after   11 cycles
 SCF Done:  E(RB3LYP) =  -346.681403157     A.U. after    8 cycles
 SCF Done:  E(RB3LYP) =  -346.681403696     A.U. after    8 cycles
 Optimization completed.
    -- Stationary point found.
 Normal termination of Gaussian 16 at Thu Aug  4 00:12:42 2022.

 ----------------------------------------------------------------------
 #N Geom=AllCheck Guess=TCheck SCRF=Check GenChk RB3LYP/6-31G(2df,p) Fr
 eq
 ----------------------------------------------------------------------

 Structure from the checkpoint file:  "CtCCtCCCpCpO.chk"
 -------------------
 Title Card Required
 -------------------
 Charge =  0 Multiplicity = 1

                         Standard orientation:
 ---------------------------------------------------------------------
 Center     Atomic      Atomic             Coordinates (Angstroms)
 Number     Number       Type             X           Y           Z
 ---------------------------------------------------------------------
      1          6           0       -4.223704    0.314634   -0.178441
      2          6           0       -3.057997    0.023346   -0.056550
      3          6           0       -1.744264   -0.303578    0.080621
      4          6           0       -0.576534   -0.598312    0.206341
      5          6           0        0.832407   -0.928325    0.331203
      6          6           0        1.780600    0.083863   -0.366135
      7          6           0        1.700261    1.481572    0.240228
      8          8           0        3.105462   -0.425618   -0.356928
      9          1           0       -5.248841    0.568520   -0.285711
     10          1           0        1.026839   -1.917093   -0.100768
     11          1           0        1.105145   -0.992151    1.394790
     12          1           0        1.502771    0.128604   -1.424697
     13          1           0        1.983958    1.459351    1.300770
     14          1           0        0.684496    1.880770    0.175770
     15          1           0        2.380262    2.159062   -0.282660
     16          1           0        3.457053   -0.321324    0.534330
 ---------------------------------------------------------------------

 SCF Done:  E(RB3LYP) =  -346.681403696     A.U. after    1 cycles

 The electronic state is 1-A.
 Alpha  occ. eigenvalues --  -19.14320 -10.24598 -10.21388 -10.20159 -10.19992
 Alpha  occ. eigenvalues --  -10.19548 -10.19087 -10.18287  -1.02720  -0.81293
 Alpha  occ. eigenvalues --   -0.78049  -0.73799  -0.70424  -0.62440  -0.59992
 Alpha  occ. eigenvalues --   -0.51660  -0.49474  -0.49160  -0.45907  -0.43337
 Alpha  occ. eigenvalues --   -0.42187  -0.37550  -0.37352  -0.34358  -0.33861
 Alpha  occ. eigenvalues --   -0.32794  -0.28439  -0.24400  -0.24177
 Alpha virt. eigenvalues --   -0.01365  -0.01098   0.06801   0.11120   0.11851
 Alpha virt. eigenvalues --    0.12252   0.13968   0.14514   0.15787   0.16924
 Alpha virt. eigenvalues --    0.17900   0.19763   0.21199   0.22622   0.24465

 Mulliken charges:
               1
     1  C   -0.551139
     2  C    0.290741
     3  C   -0.240643
     4  C    0.368017
     5  C   -0.402819
     6  C    0.136451
     7  C   -0.403074
     8  O   -0.418689
     9  H    0.190352
    10  H    0.146545
    11  H    0.123388
    12  H    0.106608
    13  H    0.106332
    14  H    0.139983
    15  H    0.128673
    16  H    0.279275
 Sum of Mulliken charges =   0.00000

 Dipole moment (field-independent basis, Debye):
    X=              0.4612    Y=              0.5649    Z=              1.1695  Tot=              1.3783
 Quadrupole moment (field-independent basis, Debye-Ang):
   XX=            -41.8296   YY=            -47.1690   ZZ=            -46.8744
   XY=             -0.7688   XZ=              5.9554   YZ=             -1.0202

  Exact polarizability: 141.476 -13.784  56.395   7.628  -1.501  50.434
 Approx polarizability: 237.491 -38.919  82.022  17.352  -3.959  76.601

                      1                      2                      3
                      A                      A                      A
 Frequencies --     61.5320                73.3085               164.3608
 Red. masses --      3.8595                 4.6769                 3.3299
 Frc consts  --      0.0086                 0.0148                 0.0530
 IR Inten    --      0.9864                 0.3710                 5.8659

                      4                      5                      6
                      A                      A                      A
 Frequencies --    204.6598               249.1294               284.7175
 Red. masses --      3.7457                 1.1439                 1.0592
 Frc consts  --      0.0924                 0.0418                 0.0506
 IR Inten    --      2.1989                 1.4581                86.9122

                      7                      8                      9
                      A                      A                      A
 Frequencies --    337.8200               364.6259               379.5621
 Red. masses --      3.3228                 3.9238                 4.6804
 Frc consts  --      0.2234                 0.3074                 0.3973
 IR Inten    --      5.2226                 2.1927                18.3105

                     10                     11                     12
                      A                      A                      A
 Frequencies --    454.1287               468.5680               543.2119
 Red. masses --      2.2766                 4.4648                 3.1876
 Frc consts  --      0.2766                 0.5776                 0.5542
 IR Inten    --      3.6895                 6.4503                14.4694

                     13                     14                     15
                      A                      A                      A
 Frequencies --    544.7701               594.4199               598.0925
 Red. masses --      3.3262                 1.6501                 1.5922
 Frc consts  --      0.5816                 0.3435                 0.3356
 IR Inten    --      8.5382                27.0029                31.3442

                     16                     17                     18
                      A                      A                      A
 Frequencies --    757.0401               831.2151               888.7424
 Red. masses --      4.7525                 2.7190                 1.3828
 Frc consts  --      1.6047                 1.1068                 0.6435
 IR Inten    --      0.0937                 0.9788                 0.6268

                     19                     20                     21
                      A                      A                      A
 Frequencies --    948.0711              1064.4601              1109.8736
 Red. masses --      2.1069                 1.6363                 3.0826
 Frc consts  --      1.1158                 1.0924                 2.2372
 IR Inten    --     25.3861                67.8658                16.7345

                     22                     23                     24
                      A                      A                      A
 Frequencies --   1125.8529              1178.2833              1216.4889
 Red. masses --      1.7581                 3.6364                 1.3121
 Frc consts  --      1.3130                 2.9745                 1.1440
 IR Inten    --    107.9878                 1.1176                13.0242

                     25                     26                     27
                      A                      A                      A
 Frequencies --   1277.1760              1337.0578              1367.5334
 Red. masses --      1.4048                 1.5099                 1.3038
 Frc consts  --      1.3501                 1.5903                 1.4366
 IR Inten    --      4.1474                19.4648                10.8059

                     28                     29                     30
                      A                      A                      A
 Frequencies --   1403.9258              1423.9330              1461.7687
 Red. masses --      1.2292                 1.2595                 1.0936
 Frc consts  --      1.4275                 1.5047                 1.3768
 IR Inten    --     12.1364                50.6796                 3.9696

                     31                     32                     33
                      A                      A                      A
 Frequencies --   1492.4732              1494.5294              2181.0451
 Red. masses --      1.0540                 1.0499                 6.6987
 Frc consts  --      1.3832                 1.3817                18.7746
 IR Inten    --      2.9134                 8.0239                 0.6187

                     34                     35                     36
                      A                      A                      A
 Frequencies --   2360.8128              3003.6666              3022.8145
 Red. masses --     10.6104                 1.0647                 1.0443
 Frc consts  --     34.8421                 5.6598                 5.6221
 IR Inten    --     24.4178                20.8092                15.1341

                     37                     38                     39
                      A                      A                      A
 Frequencies --   3052.6919              3065.1837              3101.2171
 Red. masses --      1.0853                 1.0920                 1.0928
 Frc consts  --      5.9588                 6.0448                 6.1925
 IR Inten    --      6.1880                19.4938                28.2919

                     40                     41                     42
                      A                      A                      A
 Frequencies --   3129.1148              3506.5244              3797.9254
 Red. masses --      1.1026                 1.1546                 1.0659
 Frc consts  --      6.3607                 8.3645                 9.0586
 IR Inten    --     19.6458               114.1963                20.3459

 - Thermochemistry -
 -------------------
 Temperature   298.150 Kelvin.  Pressure   1.00000 Atm.
 Atom     1 has atomic number  6 and mass  12.00000

 Molecular mass:   108.05751 amu.
 Principal axes and moments of inertia in atomic units:
                           1         2         3
     Eigenvalues --   266.184622389.232652563.87021
           X            0.99996   0.00424   0.00732
           Y           -0.00423   0.99999  -0.00070
           Z           -0.00732   0.00067   0.99997
 This molecule is an asymmetric top.
 Rotational symmetry number  1.
 Rotational temperatures (Kelvin)      0.32539     0.03625     0.03378
 Rotational constants (GHZ):           6.78004     0.75536     0.70391
 Zero-point vibrational energy     334489.8 (Joules/Mol)
                                   79.94498 (Kcal/Mol)
 Warning -- explicit consideration of  15 degrees of freedom as
           vibrations may cause significant error
 Vibrational temperatures:     88.53   105.47   236.48   294.46   358.44
          (Kelvin)            409.64   486.05   524.62   546.11   653.39
                              674.16   781.56   783.80   855.24   860.52
                             1089.21  1195.93  1278.70  1364.06  1531.52
                             1596.86  1619.85  1695.29  1750.26  1837.57
                             1923.73  1967.58  2019.94  2048.72  2103.16
                             2147.34  2150.29  3138.04  3396.68  4321.61
                             4349.16  4392.14  4410.12  4461.96  4502.10
                             5045.11  5464.37

 Zero-point correction=                           0.127400 (Hartree/Particle)
 Thermal correction to Energy=                    0.136633
 Thermal correction to Enthalpy=                  0.137577
 Thermal correction to Gibbs Free Energy=         0.093316
 Sum of electronic and zero-point Energies=           -346.554003
 Sum of electronic and thermal Energies=              -346.544770
 Sum of electronic and thermal Enthalpies=            -346.543826
 Sum of electronic and thermal Free Energies=         -346.588087

                     E (Thermal)             CV                S
                      KCal/Mol        Cal/Mol-Kelvin    Cal/Mol-Kelvin
 Total                   85.739             33.195             93.155
 Electronic               0.000              0.000              0.000
 Translational            0.889              2.981             39.949
 Rotational               0.889              2.981             28.879
 Vibrational             83.961             27.234             24.327
 Vibration     1          0.597              1.973              4.407
 Vibration     2          0.599              1.967              4.062
 Vibration     3          0.623              1.886              2.499
 Vibration     4          0.640              1.833              2.091
 Vibration     5          0.662              1.764              1.737
 Vibration     6          0.683              1.702              1.505
 Vibration     7          0.718              1.600              1.222
 Vibration     8          0.738              1.545              1.102
 Vibration     9          0.750              1.514              1.041
 Vibration    10          0.813              1.352              0.783
 Vibration    11          0.826              1.320              0.742
 Vibration    12          0.898              1.155              0.558
 Vibration    13          0.900              1.151              0.555
 Vibration    14          0.952              1.044              0.459
 Vibration    15          0.956              1.036              0.453

 Optimization completed.
    -- Stationary point found.
 Normal termination of Gaussian 16 at Thu Aug  4 00:27:24 2022.
