 Gaussian 16, Revision A.03,
 Gaussian 16:  ES64L-G16RevA.03 25-Dec-2016

 -----------------------------
 # opt freq b3lyp/6-31g(2df,p)
 -----------------------------

 -------------------
 Title Card Required
 -------------------
 Symbolic Z-matrix:
 Charge =  0 Multiplicity = 1

 SCF Done:  E(RB3LYP) =  -379.927726547     A.U. after   15 cycles
 SCF Done:  E(RB3LYP) =  -379.959719663     A.U. after   14 cycles
 SCF Done:  E(RB3LYP) =  -379.953139980     A.U. after   14 cycles
 SCF Done:  E(RB3LYP) =  -379.970070888     A.U. after   13 cycles
 SCF Done:  E(RB3LYP) =  -379.967540887     A.U. after   15 cycles
 SCF Done:  E(RB3LYP) =  -379.973363587     A.U. after   13 cycles
 SCF Done:  E(RB3LYP) =  -379.977488214     A.U. after   15 cycles
 SCF Done:  E(RB3LYP) =  -379.979667230     A.U. after   13 cycles
 SCF Done:  E(RB3LYP) =  -379.979401849     A.U. after   12 cycles
 SCF Done:  E(RB3LYP) =  -379.979983229     A.U. after   12 cycles
 SCF Done:  E(RB3LYP) =  -379.989327889     A.U. after   13 cycles
 SCF Done:  E(RB3LYP) =  -379.990183433     A.U. after   12 cycles
 SCF Done:  E(RB3LYP) =  -379.990260059     A.U. after   11 cycles
 SCF Done:  E(RB3LYP) =  -379.990303116     A.U. after   12 cycles
 SCF Done:  E(RB3LYP) =  -379.990382891     A.U. after   12 cycles
 SCF Done:  E(RB3LYP) =  -379.990401616     A.U. after   10 cycles
 SCF Done:  E(RB3LYP) =  -379.990402997     A.U. after    9 cycles
 SCF Done:  E(RB3LYP) =  -379.990403259     A.U. after    8 cycles
 SCF Done:  E(RB3LYP) =  -379.990403310     A.U. after    7 cycles
 Optimization completed.
    -- Stationary point found.
 Normal termination of Gaussian 16 at Sun Jul  3 10:37:39 2022.

 ----------------------------------------------------------------------
 #N Geom=AllCheck Guess=TCheck SCRF=Check GenChk RB3LYP/6-31G(2df,p) Fr
 eq
 ----------------------------------------------------------------------

 Structure from the checkpoint file:  "CtCCNpCdOpNC.chk"
 -------------------
 Title Card Required
 -------------------
 Charge =  0 Multiplicity = 1

                         Standard orientation:
 ---------------------------------------------------------------------
 Center     Atomic      Atomic             Coordinates (Angstroms)
 Number     Number       Type             X           Y           Z
 ---------------------------------------------------------------------
      1          6           0        2.993039   -0.708235    0.456218
      2          6           0        2.017796   -0.350661   -0.146765
      3          6           0        0.834835    0.084065   -0.886951
      4          7           0       -0.374036    0.122186   -0.068711
      5          6           0       -0.891288    1.310970    0.366149
      6          8           0       -0.482551    2.409609    0.060555
      7          7           0       -0.851043   -1.107979    0.409353
      8          6           0       -2.130239   -1.507369   -0.174737
      9          1           0        3.857899   -1.019159    0.988169
     10          1           0        0.664296   -0.580732   -1.741278
     11          1           0        0.973412    1.100560   -1.266628
     12          1           0       -1.749042    1.144207    1.048360
     13          1           0       -0.887031   -1.091154    1.422674
     14          1           0       -2.003592   -1.650628   -1.251701
     15          1           0       -2.945516   -0.785764   -0.017041
     16          1           0       -2.419331   -2.466272    0.265031
 ---------------------------------------------------------------------

 SCF Done:  E(RB3LYP) =  -379.990403310     A.U. after    1 cycles

 The electronic state is 1-A.
 Alpha  occ. eigenvalues --  -19.11398 -14.38928 -14.36976 -10.28158 -10.24427
 Alpha  occ. eigenvalues --  -10.22092 -10.18516 -10.17697  -1.04794  -0.99795
 Alpha  occ. eigenvalues --   -0.84977  -0.76972  -0.71026  -0.68668  -0.60372
 Alpha  occ. eigenvalues --   -0.55362  -0.52915  -0.49990  -0.47923  -0.46293
 Alpha  occ. eigenvalues --   -0.43445  -0.42714  -0.42121  -0.39746  -0.38793
 Alpha  occ. eigenvalues --   -0.28670  -0.27653  -0.26731  -0.25715  -0.24552
 Alpha virt. eigenvalues --    0.01307   0.04481   0.05386   0.07585   0.11102
 Alpha virt. eigenvalues --    0.11833   0.12677   0.13942   0.14282   0.17074
 Alpha virt. eigenvalues --    0.18205   0.19256   0.20547   0.22957   0.25913

 Mulliken charges:
               1
     1  C   -0.463464
     2  C    0.330271
     3  C   -0.302011
     4  N   -0.044304
     5  C    0.168152
     6  O   -0.329725
     7  N   -0.271950
     8  C   -0.300465
     9  H    0.201920
    10  H    0.138120
    11  H    0.172930
    12  H    0.075308
    13  H    0.244150
    14  H    0.136999
    15  H    0.113241
    16  H    0.130826
 Sum of Mulliken charges =  -0.00000

 Dipole moment (field-independent basis, Debye):
    X=             -1.3120    Y=             -3.0299    Z=              0.5395  Tot=              3.3455
 Quadrupole moment (field-independent basis, Debye-Ang):
   XX=            -41.0808   YY=            -56.0816   ZZ=            -42.6249
   XY=              1.8968   XZ=             -0.0141   YZ=             -1.0561

  Exact polarizability:  81.656  -3.518  69.336   3.517  -2.726  54.583
 Approx polarizability: 110.233  -8.090 107.337  10.763  -7.920  85.165

                      1                      2                      3
                      A                      A                      A
 Frequencies --     45.9168                86.3112               107.5284
 Red. masses --      4.6019                 3.3877                 2.8471
 Frc consts  --      0.0057                 0.0149                 0.0194
 IR Inten    --      0.5395                 1.6985                 2.0882

                      4                      5                      6
                      A                      A                      A
 Frequencies --    193.7683               207.2249               278.7247
 Red. masses --      2.7303                 1.2926                 4.3078
 Frc consts  --      0.0604                 0.0327                 0.1972
 IR Inten    --      0.8931                 0.7113                10.4871

                      7                      8                      9
                      A                      A                      A
 Frequencies --    317.7474               331.3928               381.2113
 Red. masses --      2.8223                 2.6671                 2.5833
 Frc consts  --      0.1679                 0.1726                 0.2212
 IR Inten    --     12.1144                 4.9202                12.1458

                     10                     11                     12
                      A                      A                      A
 Frequencies --    398.3280               603.9734               614.0238
 Red. masses --      3.5425                 5.6746                 1.2137
 Frc consts  --      0.3312                 1.2196                 0.2696
 IR Inten    --      1.5179                22.3024                45.1447

                     13                     14                     15
                      A                      A                      A
 Frequencies --    627.3742               665.6425               755.3881
 Red. masses --      5.0225                 1.2360                 1.5146
 Frc consts  --      1.1647                 0.3227                 0.5092
 IR Inten    --     13.9445                41.8235                53.1384

                     16                     17                     18
                      A                      A                      A
 Frequencies --    850.7056               949.8760               991.1730
 Red. masses --      3.2797                 2.9217                 2.4284
 Frc consts  --      1.3984                 1.5532                 1.4056
 IR Inten    --      7.3060                15.0068                13.7159

                     19                     20                     21
                      A                      A                      A
 Frequencies --   1032.1934              1046.8651              1145.3759
 Red. masses --      1.6044                 2.6386                 1.4555
 Frc consts  --      1.0071                 1.7037                 1.1250
 IR Inten    --      1.6685                13.7167                 7.4880

                     22                     23                     24
                      A                      A                      A
 Frequencies --   1186.2932              1226.4446              1284.6893
 Red. masses --      2.0362                 1.6106                 2.8399
 Frc consts  --      1.6884                 1.4274                 2.7615
 IR Inten    --      2.0606                41.3904                48.5497

                     25                     26                     27
                      A                      A                      A
 Frequencies --   1372.6564              1377.3914              1430.1402
 Red. masses --      1.3685                 1.6557                 1.4821
 Frc consts  --      1.5192                 1.8508                 1.7861
 IR Inten    --     24.9524                72.9356                 5.5736

                     28                     29                     30
                      A                      A                      A
 Frequencies --   1451.5668              1457.9775              1485.3588
 Red. masses --      1.1688                 1.1046                 1.0632
 Frc consts  --      1.4510                 1.3834                 1.3821
 IR Inten    --      0.2301                14.0954                 7.0428

                     31                     32                     33
                      A                      A                      A
 Frequencies --   1498.3741              1526.2855              1795.8658
 Red. masses --      1.1184                 1.1091                 8.8566
 Frc consts  --      1.4794                 1.5223                16.8293
 IR Inten    --     12.4309                10.8630               336.3290

                     34                     35                     36
                      A                      A                      A
 Frequencies --   2242.2965              2932.3764              2992.8893
 Red. masses --      5.8907                 1.0838                 1.0489
 Frc consts  --     17.4504                 5.4909                 5.5358
 IR Inten    --      0.1911                77.5873                59.2890

                     37                     38                     39
                      A                      A                      A
 Frequencies --   3040.8483              3080.5767              3101.0636
 Red. masses --      1.0638                 1.0848                 1.0965
 Frc consts  --      5.7956                 6.0656                 6.2129
 IR Inten    --     15.6820                27.4895                 2.6078

                     40                     41                     42
                      A                      A                      A
 Frequencies --   3119.7427              3505.8379              3525.3064
 Red. masses --      1.1032                 1.1633                 1.0752
 Frc consts  --      6.3264                 8.4241                 7.8730
 IR Inten    --     18.0479                62.3058                 2.7051

 - Thermochemistry -
 -------------------
 Temperature   298.150 Kelvin.  Pressure   1.00000 Atm.
 Atom     1 has atomic number  6 and mass  12.00000

 Molecular mass:   112.06366 amu.
 Principal axes and moments of inertia in atomic units:
                           1         2         3
     Eigenvalues --   738.039861110.421041654.95457
           X            0.99743   0.07167   0.00098
           Y           -0.07167   0.99743  -0.00182
           Z           -0.00111   0.00175   1.00000
 This molecule is an asymmetric top.
 Rotational symmetry number  1.
 Warning -- assumption of classical behavior for rotation
           may cause significant error
 Rotational temperatures (Kelvin)      0.11736     0.07800     0.05234
 Rotational constants (GHZ):           2.44532     1.62528     1.09051
 Zero-point vibrational energy     336537.8 (Joules/Mol)
                                   80.43446 (Kcal/Mol)
 Warning -- explicit consideration of  12 degrees of freedom as
           vibrations may cause significant error
 Vibrational temperatures:     66.06   124.18   154.71   278.79   298.15
          (Kelvin)            401.02   457.17   476.80   548.48   573.11
                              868.98   883.44   902.65   957.71  1086.83
                             1223.98  1366.66  1426.08  1485.10  1506.21
                             1647.94  1706.81  1764.58  1848.38  1974.95
                             1981.76  2057.65  2088.48  2097.70  2137.10
                             2155.83  2195.98  2583.85  3226.16  4219.04
                             4306.10  4375.10  4432.26  4461.74  4488.61
                             5044.12  5072.13

 Zero-point correction=                           0.128180 (Hartree/Particle)
 Thermal correction to Energy=                    0.137328
 Thermal correction to Enthalpy=                  0.138272
 Thermal correction to Gibbs Free Energy=         0.093672
 Sum of electronic and zero-point Energies=           -379.862223
 Sum of electronic and thermal Energies=              -379.853075
 Sum of electronic and thermal Enthalpies=            -379.852131
 Sum of electronic and thermal Free Energies=         -379.896731

                     E (Thermal)             CV                S
                      KCal/Mol        Cal/Mol-Kelvin    Cal/Mol-Kelvin
 Total                   86.175             31.715             93.870
 Electronic               0.000              0.000              0.000
 Translational            0.889              2.981             40.058
 Rotational               0.889              2.981             28.696
 Vibrational             84.397             25.753             25.116
 Vibration     1          0.595              1.979              4.986
 Vibration     2          0.601              1.959              3.742
 Vibration     3          0.606              1.943              3.313
 Vibration     4          0.635              1.849              2.191
 Vibration     5          0.641              1.830              2.068
 Vibration     6          0.679              1.713              1.541
 Vibration     7          0.704              1.640              1.322
 Vibration     8          0.714              1.613              1.253
 Vibration     9          0.751              1.510              1.034
 Vibration    10          0.765              1.474              0.969
 Vibration    11          0.962              1.023              0.443
 Vibration    12          0.973              1.002              0.426

 Optimization completed.
    -- Stationary point found.
 Normal termination of Gaussian 16 at Sun Jul  3 10:57:09 2022.
