 Gaussian 16, Revision A.03,
 Gaussian 16:  ES64L-G16RevA.03 25-Dec-2016

 -----------------------------
 # opt freq b3lyp/6-31g(2df,p)
 -----------------------------

 -------------------
 Title Card Required
 -------------------
 Symbolic Z-matrix:
 Charge =  0 Multiplicity = 1

 SCF Done:  E(RB3LYP) =  -381.148772731     A.U. after   13 cycles
 SCF Done:  E(RB3LYP) =  -381.175061407     A.U. after   13 cycles
 SCF Done:  E(RB3LYP) =  -381.167950021     A.U. after   14 cycles
 SCF Done:  E(RB3LYP) =  -381.177310449     A.U. after   12 cycles
 SCF Done:  E(RB3LYP) =  -381.178347143     A.U. after   12 cycles
 SCF Done:  E(RB3LYP) =  -381.178132649     A.U. after   13 cycles
 SCF Done:  E(RB3LYP) =  -381.179847734     A.U. after   11 cycles
 SCF Done:  E(RB3LYP) =  -381.179673012     A.U. after   12 cycles
 SCF Done:  E(RB3LYP) =  -381.180354069     A.U. after   12 cycles
 SCF Done:  E(RB3LYP) =  -381.180397491     A.U. after   11 cycles
 SCF Done:  E(RB3LYP) =  -381.180373543     A.U. after   10 cycles
 SCF Done:  E(RB3LYP) =  -381.180495358     A.U. after   10 cycles
 SCF Done:  E(RB3LYP) =  -381.180500713     A.U. after    9 cycles
 SCF Done:  E(RB3LYP) =  -381.180501506     A.U. after    7 cycles
 SCF Done:  E(RB3LYP) =  -381.180501766     A.U. after    7 cycles
 SCF Done:  E(RB3LYP) =  -381.180502127     A.U. after    7 cycles
 SCF Done:  E(RB3LYP) =  -381.180502316     A.U. after    7 cycles
 SCF Done:  E(RB3LYP) =  -381.180502351     A.U. after    7 cycles
 Optimization completed.
    -- Stationary point found.
 Normal termination of Gaussian 16 at Sun Jul  3 13:43:36 2022.

 ----------------------------------------------------------------------
 #N Geom=AllCheck Guess=TCheck SCRF=Check GenChk RB3LYP/6-31G(2df,p) Fr
 eq
 ----------------------------------------------------------------------

 Structure from the checkpoint file:  "CtCCCpCOpNN.chk"
 -------------------
 Title Card Required
 -------------------
 Charge =  0 Multiplicity = 1

                         Standard orientation:
 ---------------------------------------------------------------------
 Center     Atomic      Atomic             Coordinates (Angstroms)
 Number     Number       Type             X           Y           Z
 ---------------------------------------------------------------------
      1          6           0       -3.055586   -0.651358   -0.544019
      2          6           0       -1.999520   -0.744885    0.023848
      3          6           0       -0.700808   -0.888935    0.671004
      4          6           0        0.443501   -0.187655   -0.099111
      5          6           0        0.481645    1.321647    0.194618
      6          8           0       -0.775586    1.961341    0.107297
      7          7           0        1.714703   -0.793972    0.305177
      8          7           0        2.843561   -0.443342   -0.493950
      9          1           0       -4.000229   -0.567992   -1.021804
     10          1           0       -0.468481   -1.959576    0.750362
     11          1           0       -0.740083   -0.503048    1.695853
     12          1           0        0.259451   -0.330501   -1.183118
     13          1           0        1.218476    1.800850   -0.469027
     14          1           0        0.830323    1.458730    1.224677
     15          1           0       -1.242260    1.628562   -0.666787
     16          1           0        1.634485   -1.804234    0.254584
     17          1           0        3.224253    0.426448   -0.136061
     18          1           0        2.565518   -0.271645   -1.463686
 ---------------------------------------------------------------------

 SCF Done:  E(RB3LYP) =  -381.180502351     A.U. after    1 cycles

 The electronic state is 1-A.
 Alpha  occ. eigenvalues --  -19.13411 -14.34660 -14.34116 -10.22759 -10.22433
 Alpha  occ. eigenvalues --  -10.21516 -10.18896 -10.17629  -1.01718  -0.96588
 Alpha  occ. eigenvalues --   -0.82356  -0.76502  -0.71578  -0.69141  -0.60358
 Alpha  occ. eigenvalues --   -0.53636  -0.51372  -0.49895  -0.48640  -0.47298
 Alpha  occ. eigenvalues --   -0.46339  -0.43582  -0.41563  -0.39210  -0.37602
 Alpha  occ. eigenvalues --   -0.32721  -0.28832  -0.27267  -0.26038  -0.25205
 Alpha  occ. eigenvalues --   -0.23951
 Alpha virt. eigenvalues --    0.04610   0.05259   0.07059   0.08219   0.09683
 Alpha virt. eigenvalues --    0.11836   0.12407   0.14373   0.15337   0.16082
 Alpha virt. eigenvalues --    0.16744   0.18885   0.21123   0.22872   0.24122

 Mulliken charges:
               1
     1  C   -0.456765
     2  C    0.303106
     3  C   -0.355562
     4  C   -0.001910
     5  C   -0.029021
     6  O   -0.415693
     7  N   -0.284430
     8  N   -0.469272
     9  H    0.198809
    10  H    0.124778
    11  H    0.148680
    12  H    0.060691
    13  H    0.075742
    14  H    0.115508
    15  H    0.286069
    16  H    0.231998
    17  H    0.248794
    18  H    0.218476
 Sum of Mulliken charges =   0.00000

 Dipole moment (field-independent basis, Debye):
    X=             -0.0728    Y=             -0.5987    Z=             -1.6149  Tot=              1.7239
 Quadrupole moment (field-independent basis, Debye-Ang):
   XX=            -49.3884   YY=            -50.9123   ZZ=            -46.3446
   XY=              4.3577   XZ=              1.3167   YZ=             -2.1404

  Exact polarizability:  92.857   2.095  59.985   6.903  -1.697  58.314
 Approx polarizability: 127.996  -0.636  84.720  17.772  -3.105  93.658

                      1                      2                      3
                      A                      A                      A
 Frequencies --     72.3222                84.1566               114.3843
 Red. masses --      3.3984                 2.4208                 3.0609
 Frc consts  --      0.0105                 0.0101                 0.0236
 IR Inten    --      0.8526                 1.4420                 8.6711

                      4                      5                      6
                      A                      A                      A
 Frequencies --    157.0829               234.8688               247.4958
 Red. masses --      3.0837                 3.1141                 1.4739
 Frc consts  --      0.0448                 0.1012                 0.0532
 IR Inten    --      4.1790                 7.1062               114.8032

                      7                      8                      9
                      A                      A                      A
 Frequencies --    277.1501               340.6358               348.4943
 Red. masses --      2.4974                 2.8019                 1.4194
 Frc consts  --      0.1130                 0.1915                 0.1016
 IR Inten    --     42.3132                13.3642                17.0354

                     10                     11                     12
                      A                      A                      A
 Frequencies --    413.1951               453.0311               464.2700
 Red. masses --      2.9809                 2.9221                 3.4695
 Frc consts  --      0.2999                 0.3534                 0.4406
 IR Inten    --      1.9890                10.3874                 7.7018

                     13                     14                     15
                      A                      A                      A
 Frequencies --    570.0660               615.7425               646.7262
 Red. masses --      3.4951                 1.2107                 1.2152
 Frc consts  --      0.6692                 0.2705                 0.2995
 IR Inten    --      9.4852                43.6932                43.0410

                     16                     17                     18
                      A                      A                      A
 Frequencies --    801.5210               875.6900               890.7490
 Red. masses --      1.9134                 2.7414                 1.4607
 Frc consts  --      0.7242                 1.2386                 0.6828
 IR Inten    --     95.3416                 7.6345                 2.6618

                     19                     20                     21
                      A                      A                      A
 Frequencies --    931.5504               972.1239              1042.2631
 Red. masses --      1.7616                 2.6057                 2.2548
 Frc consts  --      0.9007                 1.4508                 1.4431
 IR Inten    --     57.7027                29.4722                73.7241

                     22                     23                     24
                      A                      A                      A
 Frequencies --   1087.6827              1112.3570              1136.3977
 Red. masses --      2.7454                 3.2763                 2.8677
 Frc consts  --      1.9136                 2.3885                 2.1820
 IR Inten    --     25.1116                21.3539                 1.7311

                     25                     26                     27
                      A                      A                      A
 Frequencies --   1173.3533              1205.2689              1257.0371
 Red. masses --      1.5750                 1.5092                 1.2264
 Frc consts  --      1.2775                 1.2917                 1.1418
 IR Inten    --     11.1598                19.5413                 2.8753

                     28                     29                     30
                      A                      A                      A
 Frequencies --   1289.9457              1313.0884              1345.9898
 Red. masses --      1.1372                 1.3114                 1.2081
 Frc consts  --      1.1148                 1.3322                 1.2896
 IR Inten    --     15.7655                 0.1277                 5.4472

                     31                     32                     33
                      A                      A                      A
 Frequencies --   1376.4050              1395.8333              1429.6079
 Red. masses --      1.3662                 1.3290                 1.3361
 Frc consts  --      1.5249                 1.5256                 1.6089
 IR Inten    --      2.2814                32.8244                13.4976

                     34                     35                     36
                      A                      A                      A
 Frequencies --   1460.3634              1519.2195              1520.7009
 Red. masses --      1.0874                 1.1078                 1.1351
 Frc consts  --      1.3664                 1.5064                 1.5465
 IR Inten    --      7.3342                 3.1195                 1.5181

                     37                     38                     39
                      A                      A                      A
 Frequencies --   1683.1206              2234.5346              2892.4699
 Red. masses --      1.0640                 5.9515                 1.0803
 Frc consts  --      1.7760                17.5087                 5.3250
 IR Inten    --     15.7729                 3.8304                56.6179

                     40                     41                     42
                      A                      A                      A
 Frequencies --   2975.9860              3016.5715              3063.7250
 Red. masses --      1.0689                 1.0644                 1.0934
 Frc consts  --      5.5778                 5.7064                 6.0468
 IR Inten    --     73.3072                17.8597                19.7393

                     43                     44                     45
                      A                      A                      A
 Frequencies --   3068.1121              3389.5384              3504.9455
 Red. masses --      1.0949                 1.0563                 1.1610
 Frc consts  --      6.0723                 7.1499                 8.4036
 IR Inten    --     15.6825                13.2625                71.4507

                     46                     47                     48
                      A                      A                      A
 Frequencies --   3507.0744              3547.4361              3808.1896
 Red. masses --      1.0760                 1.0838                 1.0662
 Frc consts  --      7.7974                 8.0357                 9.1101
 IR Inten    --      1.7796                 0.7292                23.1434

 - Thermochemistry -
 -------------------
 Temperature   298.150 Kelvin.  Pressure   1.00000 Atm.
 Atom     1 has atomic number  6 and mass  12.00000

 Molecular mass:   114.07931 amu.
 Principal axes and moments of inertia in atomic units:
                           1         2         3
     Eigenvalues --   559.462731429.445041812.07865
           X            0.99994   0.01051  -0.00112
           Y           -0.01052   0.99983  -0.01497
           Z            0.00096   0.01498   0.99989
 This molecule is an asymmetric top.
 Rotational symmetry number  1.
 Warning -- assumption of classical behavior for rotation
           may cause significant error
 Rotational temperatures (Kelvin)      0.15482     0.06059     0.04780
 Rotational constants (GHZ):           3.22585     1.26255     0.99595
 Zero-point vibrational energy     399962.3 (Joules/Mol)
                                   95.59328 (Kcal/Mol)
 Warning -- explicit consideration of  14 degrees of freedom as
           vibrations may cause significant error
 Vibrational temperatures:    104.06   121.08   164.57   226.01   337.92
          (Kelvin)            356.09   398.76   490.10   501.41   594.50
                              651.81   667.98   820.20   885.92   930.49
                             1153.21  1259.92  1281.59  1340.29  1398.67
                             1499.58  1564.93  1600.43  1635.02  1688.19
                             1734.11  1808.60  1855.94  1889.24  1936.58
                             1980.34  2008.29  2056.89  2101.14  2185.82
                             2187.95  2421.64  3215.00  4161.62  4281.78
                             4340.17  4408.02  4414.33  4876.79  5042.83
                             5045.90  5103.97  5479.14

 Zero-point correction=                           0.152338 (Hartree/Particle)
 Thermal correction to Energy=                    0.162024
 Thermal correction to Enthalpy=                  0.162969
 Thermal correction to Gibbs Free Energy=         0.117786
 Sum of electronic and zero-point Energies=           -381.028165
 Sum of electronic and thermal Energies=              -381.018478
 Sum of electronic and thermal Enthalpies=            -381.017534
 Sum of electronic and thermal Free Energies=         -381.062717

                     E (Thermal)             CV                S
                      KCal/Mol        Cal/Mol-Kelvin    Cal/Mol-Kelvin
 Total                  101.672             34.629             95.095
 Electronic               0.000              0.000              0.000
 Translational            0.889              2.981             40.111
 Rotational               0.889              2.981             28.762
 Vibrational             99.894             28.667             26.222
 Vibration     1          0.598              1.967              4.089
 Vibration     2          0.601              1.960              3.792
 Vibration     3          0.607              1.938              3.193
 Vibration     4          0.621              1.895              2.585
 Vibration     5          0.655              1.787              1.841
 Vibration     6          0.661              1.767              1.748
 Vibration     7          0.678              1.716              1.551
 Vibration     8          0.720              1.594              1.209
 Vibration     9          0.726              1.578              1.173
 Vibration    10          0.777              1.442              0.915
 Vibration    11          0.812              1.354              0.787
 Vibration    12          0.822              1.329              0.754
 Vibration    13          0.926              1.096              0.504
 Vibration    14          0.975              0.999              0.423

 Optimization completed.
    -- Stationary point found.
 Normal termination of Gaussian 16 at Sun Jul  3 14:06:44 2022.
