 Gaussian 16, Revision A.03,
 Gaussian 16:  ES64L-G16RevA.03 25-Dec-2016

 -----------------------------
 # opt freq b3lyp/6-31g(2df,p)
 -----------------------------

 -------------------
 Title Card Required
 -------------------
 Symbolic Z-matrix:
 Charge =  0 Multiplicity = 1

 SCF Done:  E(RB3LYP) =  -326.808236728     A.U. after   14 cycles
 SCF Done:  E(RB3LYP) =  -326.810372855     A.U. after   13 cycles
 SCF Done:  E(RB3LYP) =  -326.810237925     A.U. after   13 cycles
 SCF Done:  E(RB3LYP) =  -326.812060741     A.U. after   12 cycles
 SCF Done:  E(RB3LYP) =  -326.812605491     A.U. after   12 cycles
 SCF Done:  E(RB3LYP) =  -326.813004774     A.U. after   12 cycles
 SCF Done:  E(RB3LYP) =  -326.813142060     A.U. after   13 cycles
 SCF Done:  E(RB3LYP) =  -326.813343931     A.U. after   11 cycles
 SCF Done:  E(RB3LYP) =  -326.813482723     A.U. after   11 cycles
 SCF Done:  E(RB3LYP) =  -326.813776803     A.U. after   12 cycles
 SCF Done:  E(RB3LYP) =  -326.813304398     A.U. after   14 cycles
 SCF Done:  E(RB3LYP) =  -326.814596616     A.U. after   12 cycles
 SCF Done:  E(RB3LYP) =  -326.815085351     A.U. after   12 cycles
 SCF Done:  E(RB3LYP) =  -326.815106692     A.U. after   11 cycles
 SCF Done:  E(RB3LYP) =  -326.815132795     A.U. after   11 cycles
 SCF Done:  E(RB3LYP) =  -326.815135108     A.U. after    8 cycles
 SCF Done:  E(RB3LYP) =  -326.815135576     A.U. after    7 cycles
 SCF Done:  E(RB3LYP) =  -326.815135688     A.U. after    7 cycles
 Optimization completed.
    -- Stationary point found.
 Normal termination of Gaussian 16 at Sun Jul  3 11:06:29 2022.

 ----------------------------------------------------------------------
 #N Geom=AllCheck Guess=TCheck SCRF=Check GenChk RB3LYP/6-31G(2df,p) Fr
 eq
 ----------------------------------------------------------------------

 Structure from the checkpoint file:  "CtCC1CC1CCdN.chk"
 -------------------
 Title Card Required
 -------------------
 Charge =  0 Multiplicity = 1

                         Standard orientation:
 ---------------------------------------------------------------------
 Center     Atomic      Atomic             Coordinates (Angstroms)
 Number     Number       Type             X           Y           Z
 ---------------------------------------------------------------------
      1          6           0        3.076259   -1.369185   -0.191884
      2          6           0        2.200644   -0.610075    0.130884
      3          6           0        1.156458    0.292773    0.515410
      4          6           0        1.018096    1.647438   -0.164390
      5          6           0       -0.003200    0.581444   -0.431491
      6          6           0       -1.412862    0.697770    0.118350
      7          6           0       -2.086735   -0.646255    0.271705
      8          7           0       -3.202829   -1.020029   -0.201435
      9          1           0        3.846835   -2.041984   -0.475631
     10          1           0        0.902761    0.273621    1.572194
     11          1           0        1.729990    1.883705   -0.945895
     12          1           0        0.734725    2.485805    0.463313
     13          1           0        0.068140    0.089470   -1.396791
     14          1           0       -2.022967    1.342379   -0.527355
     15          1           0       -1.370251    1.183365    1.103953
     16          1           0       -1.525231   -1.378397    0.863658
     17          1           0       -3.636157   -0.261222   -0.738908
 ---------------------------------------------------------------------

 SCF Done:  E(RB3LYP) =  -326.815135688     A.U. after    1 cycles

 The electronic state is 1-A.
 Alpha  occ. eigenvalues --  -14.31642 -10.22986 -10.22197 -10.21308 -10.20517
 Alpha  occ. eigenvalues --  -10.20310 -10.18311 -10.17192  -0.90389  -0.88261
 Alpha  occ. eigenvalues --   -0.75881  -0.73312  -0.64027  -0.60226  -0.58427
 Alpha  occ. eigenvalues --   -0.54274  -0.50270  -0.48377  -0.46827  -0.44182
 Alpha  occ. eigenvalues --   -0.40214  -0.39198  -0.38070  -0.34138  -0.33104
 Alpha  occ. eigenvalues --   -0.30833  -0.26862  -0.25544  -0.24797
 Alpha virt. eigenvalues --   -0.00179   0.04457   0.04564   0.09344   0.09752
 Alpha virt. eigenvalues --    0.11285   0.12767   0.13495   0.14348   0.14860
 Alpha virt. eigenvalues --    0.16471   0.18163   0.18943   0.22776   0.24369

 Mulliken charges:
               1
     1  C   -0.442276
     2  C    0.310928
     3  C   -0.193976
     4  C   -0.298832
     5  C    0.001259
     6  C   -0.282194
     7  C    0.076505
     8  N   -0.386721
     9  H    0.196578
    10  H    0.112985
    11  H    0.130689
    12  H    0.118486
    13  H    0.110911
    14  H    0.104162
    15  H    0.114421
    16  H    0.112700
    17  H    0.214376
 Sum of Mulliken charges =  -0.00000

 Dipole moment (field-independent basis, Debye):
    X=              0.8872    Y=              2.3454    Z=             -0.0507  Tot=              2.5080
 Quadrupole moment (field-independent basis, Debye-Ang):
   XX=            -53.4248   YY=            -48.6516   ZZ=            -46.0311
   XY=             -8.3761   XZ=             -0.5586   YZ=              0.3304

  Exact polarizability: 100.035 -10.900  75.891   2.024   1.321  56.075
 Approx polarizability: 137.119 -20.537 115.138   3.158   5.567  88.979

                      1                      2                      3
                      A                      A                      A
 Frequencies --     60.5927                82.9315               118.8053
 Red. masses --      3.7937                 3.0259                 2.5070
 Frc consts  --      0.0082                 0.0123                 0.0208
 IR Inten    --      0.8068                 1.2582                 1.4672

                      4                      5                      6
                      A                      A                      A
 Frequencies --    173.9420               239.9942               323.4518
 Red. masses --      3.3077                 2.8962                 3.0931
 Frc consts  --      0.0590                 0.0983                 0.1907
 IR Inten    --      0.9593                 1.3135                 2.3768

                      7                      8                      9
                      A                      A                      A
 Frequencies --    400.4582               458.5875               510.7154
 Red. masses --      3.0380                 2.9213                 3.8307
 Frc consts  --      0.2870                 0.3620                 0.5887
 IR Inten    --      2.0698                 5.6906                 2.1920

                     10                     11                     12
                      A                      A                      A
 Frequencies --    533.2703               584.7206               651.1842
 Red. masses --      2.9256                 1.1830                 1.2294
 Frc consts  --      0.4902                 0.2383                 0.3072
 IR Inten    --      2.2828                46.1524                40.2032

                     13                     14                     15
                      A                      A                      A
 Frequencies --    737.0185               800.3900               805.3451
 Red. masses --      1.7824                 2.3788                 1.9654
 Frc consts  --      0.5704                 0.8979                 0.7510
 IR Inten    --      7.0874                 4.3659                 7.4859

                     16                     17                     18
                      A                      A                      A
 Frequencies --    893.5431               935.3367               942.3838
 Red. masses --      1.6447                 3.0620                 2.0063
 Frc consts  --      0.7737                 1.5783                 1.0498
 IR Inten    --      8.0146                 7.4081                 4.3282

                     19                     20                     21
                      A                      A                      A
 Frequencies --   1039.3647              1048.2869              1078.3479
 Red. masses --      2.5020                 1.8368                 1.5311
 Frc consts  --      1.5925                 1.1892                 1.0490
 IR Inten    --     16.0901                 1.8481                 3.7371

                     22                     23                     24
                      A                      A                      A
 Frequencies --   1108.9790              1123.7681              1144.2350
 Red. masses --      1.0700                 1.7114                 1.3245
 Frc consts  --      0.7753                 1.2734                 1.0217
 IR Inten    --      4.5392                 3.5518                 8.6924

                     25                     26                     27
                      A                      A                      A
 Frequencies --   1153.9272              1212.5731              1227.9013
 Red. masses --      1.1899                 1.4523                 1.6428
 Frc consts  --      0.9335                 1.2581                 1.4594
 IR Inten    --     30.4264                16.0762                16.8959

                     28                     29                     30
                      A                      A                      A
 Frequencies --   1280.6833              1320.5551              1342.1117
 Red. masses --      1.3693                 1.3090                 1.3612
 Frc consts  --      1.3232                 1.3450                 1.4446
 IR Inten    --     15.4357                73.7344                 3.5443

                     31                     32                     33
                      A                      A                      A
 Frequencies --   1422.0293              1425.3493              1465.8817
 Red. masses --      1.2382                 1.7035                 1.0908
 Frc consts  --      1.4753                 2.0391                 1.3811
 IR Inten    --     18.0467                 2.6492                 5.4162

                     34                     35                     36
                      A                      A                      A
 Frequencies --   1487.0116              1731.2065              2238.2687
 Red. masses --      1.3550                 8.3203                 6.0210
 Frc consts  --      1.7653                14.6922                17.7724
 IR Inten    --      3.0043                68.4815                13.0222

                     37                     38                     39
                      A                      A                      A
 Frequencies --   3004.6219              3047.8873              3071.4735
 Red. masses --      1.0601                 1.0974                 1.0898
 Frc consts  --      5.6386                 6.0067                 6.0574
 IR Inten    --     17.3652                 9.4427                38.4283

                     40                     41                     42
                      A                      A                      A
 Frequencies --   3135.5493              3139.2505              3159.6447
 Red. masses --      1.0718                 1.0694                 1.0884
 Frc consts  --      6.2088                 6.2094                 6.4017
 IR Inten    --      6.9408                 9.8676                 6.4818

                     43                     44                     45
                      A                      A                      A
 Frequencies --   3231.0005              3397.7484              3505.7936
 Red. masses --      1.1165                 1.0735                 1.1604
 Frc consts  --      6.8674                 7.3017                 8.4030
 IR Inten    --      5.2993                 5.0836                80.9454

 - Thermochemistry -
 -------------------
 Temperature   298.150 Kelvin.  Pressure   1.00000 Atm.
 Atom     1 has atomic number  6 and mass  12.00000

 Molecular mass:   107.07350 amu.
 Principal axes and moments of inertia in atomic units:
                           1         2         3
     Eigenvalues --   449.274521705.743962036.26347
           X            0.99994  -0.01086  -0.00199
           Y            0.01087   0.99994   0.00270
           Z            0.00196  -0.00272   0.99999
 This molecule is an asymmetric top.
 Rotational symmetry number  1.
 Warning -- assumption of classical behavior for rotation
           may cause significant error
 Rotational temperatures (Kelvin)      0.19279     0.05078     0.04254
 Rotational constants (GHZ):           4.01701     1.05804     0.88630
 Zero-point vibrational energy     369622.9 (Joules/Mol)
                                   88.34199 (Kcal/Mol)
 Warning -- explicit consideration of  11 degrees of freedom as
           vibrations may cause significant error
 Vibrational temperatures:     87.18   119.32   170.93   250.26   345.30
          (Kelvin)            465.37   576.17   659.81   734.81   767.26
                              841.28   936.91  1060.41  1151.58  1158.71
                             1285.61  1345.74  1355.88  1495.41  1508.25
                             1551.50  1595.57  1616.85  1646.30  1660.24
                             1744.62  1766.68  1842.62  1899.98  1931.00
                             2045.98  2050.76  2109.08  2139.48  2490.82
                             3220.37  4322.98  4385.23  4419.17  4511.36
                             4516.68  4546.02  4648.69  4888.60  5044.06

 Zero-point correction=                           0.140782 (Hartree/Particle)
 Thermal correction to Energy=                    0.149343
 Thermal correction to Enthalpy=                  0.150287
 Thermal correction to Gibbs Free Energy=         0.106988
 Sum of electronic and zero-point Energies=           -326.674354
 Sum of electronic and thermal Energies=              -326.665793
 Sum of electronic and thermal Enthalpies=            -326.664849
 Sum of electronic and thermal Free Energies=         -326.708148

                     E (Thermal)             CV                S
                      KCal/Mol        Cal/Mol-Kelvin    Cal/Mol-Kelvin
 Total                   93.714             30.956             91.131
 Electronic               0.000              0.000              0.000
 Translational            0.889              2.981             39.922
 Rotational               0.889              2.981             28.836
 Vibrational             91.937             24.994             22.373
 Vibration     1          0.597              1.973              4.438
 Vibration     2          0.600              1.961              3.820
 Vibration     3          0.609              1.934              3.120
 Vibration     4          0.627              1.875              2.392
 Vibration     5          0.657              1.779              1.803
 Vibration     6          0.708              1.629              1.293
 Vibration     7          0.766              1.469              0.961
 Vibration     8          0.817              1.342              0.770
 Vibration     9          0.866              1.226              0.632
 Vibration    10          0.888              1.176              0.580
 Vibration    11          0.942              1.064              0.477

 Optimization completed.
    -- Stationary point found.
 Normal termination of Gaussian 16 at Sun Jul  3 11:27:15 2022.
