 Gaussian 16, Revision A.03,
 Gaussian 16:  ES64L-G16RevA.03 25-Dec-2016

 -----------------------------
 # opt freq b3lyp/6-31g(2df,p)
 -----------------------------

 -------------------
 Title Card Required
 -------------------
 Symbolic Z-matrix:
 Charge =  0 Multiplicity = 1

 SCF Done:  E(RB3LYP) =  -352.544301119     A.U. after   13 cycles
 SCF Done:  E(RB3LYP) =  -352.563986655     A.U. after   12 cycles
 SCF Done:  E(RB3LYP) =  -352.564903966     A.U. after   11 cycles
 SCF Done:  E(RB3LYP) =  -352.558598986     A.U. after   13 cycles
 SCF Done:  E(RB3LYP) =  -352.564595196     A.U. after   11 cycles
 SCF Done:  E(RB3LYP) =  -352.565254018     A.U. after    9 cycles
 SCF Done:  E(RB3LYP) =  -352.564033754     A.U. after   11 cycles
 SCF Done:  E(RB3LYP) =  -352.565400639     A.U. after   10 cycles
 SCF Done:  E(RB3LYP) =  -352.565365828     A.U. after    9 cycles
 SCF Done:  E(RB3LYP) =  -352.565469529     A.U. after    9 cycles
 SCF Done:  E(RB3LYP) =  -352.565478438     A.U. after    8 cycles
 SCF Done:  E(RB3LYP) =  -352.565479238     A.U. after    7 cycles
 SCF Done:  E(RB3LYP) =  -352.565479352     A.U. after    7 cycles
 SCF Done:  E(RB3LYP) =  -352.565479353     A.U. after    6 cycles
 Optimization completed.
    -- Stationary point found.
 Normal termination of Gaussian 16 at Thu Aug  4 08:14:18 2022.

 ----------------------------------------------------------------------
 #N Geom=AllCheck Guess=TCheck SCRF=Check GenChk RB3LYP/6-31G(2df,p) Fr
 eq
 ----------------------------------------------------------------------

 Structure from the checkpoint file:  "CtCCpCCpCCCC.chk"
 -------------------
 Title Card Required
 -------------------
 Charge =  0 Multiplicity = 1

                         Standard orientation:
 ---------------------------------------------------------------------
 Center     Atomic      Atomic             Coordinates (Angstroms)
 Number     Number       Type             X           Y           Z
 ---------------------------------------------------------------------
      1          6           0        2.920756   -1.952486   -0.007728
      2          6           0        2.070454   -1.115622    0.145809
      3          6           0        1.018571   -0.109895    0.299186
      4          6           0        1.401348    1.204370   -0.422992
      5          6           0        2.683420    1.848217    0.108993
      6          6           0       -0.337567   -0.689481   -0.178384
      7          6           0       -1.560068    0.163746    0.178060
      8          6           0       -2.883544   -0.501924   -0.217957
      9          6           0       -4.110720    0.343708    0.132607
     10          1           0        3.674400   -2.690385   -0.129256
     11          1           0        0.924802    0.115149    1.372696
     12          1           0        0.570657    1.910274   -0.319516
     13          1           0        1.505333    0.993350   -1.494325
     14          1           0        2.586815    2.102569    1.170625
     15          1           0        2.911791    2.770458   -0.433958
     16          1           0        3.536189    1.171487    0.004411
     17          1           0       -0.456151   -1.684892    0.265089
     18          1           0       -0.290848   -0.843965   -1.264085
     19          1           0       -1.497985    1.144728   -0.309257
     20          1           0       -1.563854    0.360586    1.259694
     21          1           0       -2.957879   -1.480005    0.275314
     22          1           0       -2.875523   -0.707616   -1.296528
     23          1           0       -4.163424    0.537765    1.209780
     24          1           0       -5.038500   -0.157394   -0.160650
     25          1           0       -4.081724    1.314090   -0.375594
 ---------------------------------------------------------------------

 SCF Done:  E(RB3LYP) =  -352.565479353     A.U. after    1 cycles

 The electronic state is 1-A.
 Alpha  occ. eigenvalues --  -10.20624 -10.18297 -10.18152 -10.17922 -10.17870
 Alpha  occ. eigenvalues --  -10.17369 -10.17227 -10.16976 -10.16447  -0.82500
 Alpha  occ. eigenvalues --   -0.78466  -0.73771  -0.72451  -0.67597  -0.61647
 Alpha  occ. eigenvalues --   -0.59591  -0.57398  -0.51827  -0.47763  -0.46744
 Alpha  occ. eigenvalues --   -0.43598  -0.43193  -0.42222  -0.40703  -0.39216
 Alpha  occ. eigenvalues --   -0.37712  -0.35571  -0.34465  -0.33973  -0.33294
 Alpha  occ. eigenvalues --   -0.32858  -0.32355  -0.31763  -0.25809  -0.25657
 Alpha virt. eigenvalues --    0.05758   0.06208   0.09085   0.10847   0.11583
 Alpha virt. eigenvalues --    0.12147   0.12846   0.13342   0.15084   0.16067
 Alpha virt. eigenvalues --    0.16663   0.17365   0.17865   0.18504   0.19344

 Mulliken charges:
               1
     1  C   -0.467955
     2  C    0.329116
     3  C   -0.166229
     4  C   -0.170027
     5  C   -0.387843
     6  C   -0.189554
     7  C   -0.171879
     8  C   -0.168091
     9  C   -0.380853
    10  H    0.190782
    11  H    0.098220
    12  H    0.099009
    13  H    0.102832
    14  H    0.111673
    15  H    0.110533
    16  H    0.132416
    17  H    0.104583
    18  H    0.102373
    19  H    0.098404
    20  H    0.091700
    21  H    0.096178
    22  H    0.096117
    23  H    0.113482
    24  H    0.111725
    25  H    0.113287
 Sum of Mulliken charges =  -0.00000

 Dipole moment (field-independent basis, Debye):
    X=             -0.6100    Y=              0.3827    Z=             -0.0355  Tot=              0.7210
 Quadrupole moment (field-independent basis, Debye-Ang):
   XX=            -58.0493   YY=            -57.0574   ZZ=            -58.0090
   XY=             -0.9318   XZ=             -0.5569   YZ=              0.1092

  Exact polarizability: 117.368 -10.001  96.539  -1.259   1.436  75.248
 Approx polarizability: 142.989 -21.509 140.437  -4.003   3.415 117.279

                      1                      2                      3
                      A                      A                      A
 Frequencies --     48.5573                70.9434                83.9084
 Red. masses --      1.7763                 2.2558                 2.6633
 Frc consts  --      0.0025                 0.0067                 0.0110
 IR Inten    --      0.0284                 0.0164                 0.0106

                      4                      5                      6
                      A                      A                      A
 Frequencies --    110.2336               140.3306               160.1708
 Red. masses --      2.6172                 2.1820                 2.4428
 Frc consts  --      0.0187                 0.0253                 0.0369
 IR Inten    --      0.0069                 0.0301                 0.0767

                      7                      8                      9
                      A                      A                      A
 Frequencies --    218.8785               239.3816               251.4125
 Red. masses --      1.9306                 1.3671                 1.4136
 Frc consts  --      0.0545                 0.0462                 0.0526
 IR Inten    --      0.2246                 0.0354                 0.0695

                     10                     11                     12
                      A                      A                      A
 Frequencies --    272.1777               300.7939               385.5801
 Red. masses --      2.0033                 3.6401                 3.3468
 Frc consts  --      0.0874                 0.1940                 0.2932
 IR Inten    --      1.1082                 0.2081                 1.0754

                     13                     14                     15
                      A                      A                      A
 Frequencies --    450.3022               530.6423               577.9448
 Red. masses --      3.1651                 3.3596                 3.9660
 Frc consts  --      0.3781                 0.5574                 0.7805
 IR Inten    --      1.1588                 0.7982                 3.4347

                     16                     17                     18
                      A                      A                      A
 Frequencies --    622.6255               632.1732               733.0240
 Red. masses --      1.2097                 1.2258                 1.1154
 Frc consts  --      0.2763                 0.2886                 0.3531
 IR Inten    --     42.0689                42.9174                 2.9480

                     19                     20                     21
                      A                      A                      A
 Frequencies --    759.3929               783.2426               844.9940
 Red. masses --      1.5948                 1.1915                 1.5524
 Frc consts  --      0.5419                 0.4307                 0.6531
 IR Inten    --      0.8792                 1.2974                 1.3783

                     22                     23                     24
                      A                      A                      A
 Frequencies --    901.5518               933.4952               957.2421
 Red. masses --      1.9156                 1.3569                 1.7364
 Frc consts  --      0.9173                 0.6967                 0.9374
 IR Inten    --      1.0665                 1.1660                 5.0424

                     25                     26                     27
                      A                      A                      A
 Frequencies --   1003.9919              1037.4032              1044.3937
 Red. masses --      3.5680                 2.3431                 1.4932
 Frc consts  --      2.1190                 1.4857                 0.9596
 IR Inten    --      1.2315                 0.2849                 0.5439

                     28                     29                     30
                      A                      A                      A
 Frequencies --   1063.0276              1069.6512              1124.5228
 Red. masses --      2.3183                 2.2625                 2.0642
 Frc consts  --      1.5435                 1.5252                 1.5379
 IR Inten    --      0.4225                 0.1236                 0.9460

                     31                     32                     33
                      A                      A                      A
 Frequencies --   1134.0189              1180.5859              1238.8029
 Red. masses --      1.9771                 2.0689                 1.4747
 Frc consts  --      1.4980                 1.6989                 1.3334
 IR Inten    --      2.5523                 0.6136                 1.5393

                     34                     35                     36
                      A                      A                      A
 Frequencies --   1264.7046              1289.5327              1307.8983
 Red. masses --      1.2492                 1.3011                 1.2343
 Frc consts  --      1.1772                 1.2747                 1.2440
 IR Inten    --      2.4098                 1.6350                 1.4245

                     37                     38                     39
                      A                      A                      A
 Frequencies --   1330.6613              1334.6238              1346.8435
 Red. masses --      1.1073                 1.1705                 1.2514
 Frc consts  --      1.1552                 1.2284                 1.3374
 IR Inten    --      1.6270                 0.2269                 2.5175

                     40                     41                     42
                      A                      A                      A
 Frequencies --   1366.7985              1380.4905              1399.6710
 Red. masses --      1.4149                 1.4470                 1.5390
 Frc consts  --      1.5573                 1.6248                 1.7764
 IR Inten    --      2.4808                 5.9531                 1.1629

                     43                     44                     45
                      A                      A                      A
 Frequencies --   1412.1792              1413.7499              1481.2633
 Red. masses --      1.2402                 1.2482                 1.0728
 Frc consts  --      1.4573                 1.4699                 1.3869
 IR Inten    --      1.0496                 2.2522                 0.6910

                     46                     47                     48
                      A                      A                      A
 Frequencies --   1486.1555              1487.1600              1497.8110
 Red. masses --      1.0725                 1.0669                 1.0408
 Frc consts  --      1.3957                 1.3903                 1.3757
 IR Inten    --      0.8554                 0.3710                 4.4124

                     49                     50                     51
                      A                      A                      A
 Frequencies --   1499.4451              1499.8237              1508.0482
 Red. masses --      1.0677                 1.0429                 1.0607
 Frc consts  --      1.4144                 1.3822                 1.4213
 IR Inten    --      0.2388                 5.1418                 3.3500

                     52                     53                     54
                      A                      A                      A
 Frequencies --   1512.7713              2229.2560              2986.7761
 Red. masses --      1.0890                 5.9470                 1.0801
 Frc consts  --      1.4683                17.4127                 5.6773
 IR Inten    --      2.9826                 3.6316                 8.9560

                     55                     56                     57
                      A                      A                      A
 Frequencies --   3004.8324              3014.9601              3026.8404
 Red. masses --      1.0614                 1.0600                 1.0582
 Frc consts  --      5.6465                 5.6768                 5.7122
 IR Inten    --      5.9948                16.5461                27.6850

                     58                     59                     60
                      A                      A                      A
 Frequencies --   3028.5285              3031.9755              3033.6375
 Red. masses --      1.0405                 1.0669                 1.0446
 Frc consts  --      5.6230                 5.7787                 5.6642
 IR Inten    --     47.1142                20.5358                28.6097

                     61                     62                     63
                      A                      A                      A
 Frequencies --   3036.2820              3051.3675              3072.9035
 Red. masses --      1.0787                 1.1021                 1.1030
 Frc consts  --      5.8593                 6.0461                 6.1366
 IR Inten    --     10.9651                 6.2707                38.7064

                     64                     65                     66
                      A                      A                      A
 Frequencies --   3075.7878              3095.0159              3099.6964
 Red. masses --      1.0995                 1.1021                 1.1010
 Frc consts  --      6.1287                 6.2202                 6.2326
 IR Inten    --     28.8957                63.2127                40.2152

                     67                     68                     69
                      A                      A                      A
 Frequencies --   3100.8538              3116.9829              3505.0910
 Red. masses --      1.1009                 1.1014                 1.1610
 Frc consts  --      6.2368                 6.3048                 8.4042
 IR Inten    --     37.4982                30.6434                67.6911

 - Thermochemistry -
 -------------------
 Temperature   298.150 Kelvin.  Pressure   1.00000 Atm.
 Atom     1 has atomic number  6 and mass  12.00000

 Molecular mass:   124.12520 amu.
 Principal axes and moments of inertia in atomic units:
                           1         2         3
     Eigenvalues --   651.808782692.047503216.83613
           X            0.99989   0.01480  -0.00114
           Y           -0.01479   0.99986   0.00722
           Z            0.00124  -0.00720   0.99997
 This molecule is an asymmetric top.
 Rotational symmetry number  1.
 Warning -- assumption of classical behavior for rotation
           may cause significant error
 Rotational temperatures (Kelvin)      0.13288     0.03217     0.02693
 Rotational constants (GHZ):           2.76882     0.67040     0.56103
 Zero-point vibrational energy     593562.0 (Joules/Mol)
                                  141.86472 (Kcal/Mol)
 Warning -- explicit consideration of  15 degrees of freedom as
           vibrations may cause significant error
 Vibrational temperatures:     69.86   102.07   120.73   158.60   201.90
          (Kelvin)            230.45   314.92   344.42   361.73   391.60
                              432.78   554.76   647.88   763.48   831.53
                              895.82   909.56  1054.66  1092.60  1126.91
                             1215.76  1297.13  1343.09  1377.26  1444.52
                             1492.59  1502.65  1529.46  1538.99  1617.94
                             1631.60  1698.60  1782.36  1819.63  1855.35
                             1881.77  1914.52  1920.23  1937.81  1966.52
                             1986.22  2013.81  2031.81  2034.07  2131.21
                             2138.25  2139.69  2155.02  2157.37  2157.91
                             2169.75  2176.54  3207.40  4297.30  4323.28
                             4337.86  4354.95  4357.38  4362.34  4364.73
                             4368.53  4390.24  4421.22  4425.37  4453.04
                             4459.77  4461.44  4484.64  5043.04

 Zero-point correction=                           0.226076 (Hartree/Particle)
 Thermal correction to Energy=                    0.237812
 Thermal correction to Enthalpy=                  0.238757
 Thermal correction to Gibbs Free Energy=         0.188258
 Sum of electronic and zero-point Energies=           -352.339404
 Sum of electronic and thermal Energies=              -352.327667
 Sum of electronic and thermal Enthalpies=            -352.326723
 Sum of electronic and thermal Free Energies=         -352.377222

                     E (Thermal)             CV                S
                      KCal/Mol        Cal/Mol-Kelvin    Cal/Mol-Kelvin
 Total                  149.230             42.142            106.284
 Electronic               0.000              0.000              0.000
 Translational            0.889              2.981             40.362
 Rotational               0.889              2.981             30.113
 Vibrational            147.452             36.181             35.809
 Vibration     1          0.595              1.978              4.875
 Vibration     2          0.598              1.968              4.127
 Vibration     3          0.601              1.960              3.797
 Vibration     4          0.606              1.941              3.265
 Vibration     5          0.615              1.913              2.799
 Vibration     6          0.622              1.891              2.548
 Vibration     7          0.647              1.812              1.968
 Vibration     8          0.657              1.780              1.807
 Vibration     9          0.663              1.760              1.721
 Vibration    10          0.675              1.725              1.582
 Vibration    11          0.693              1.672              1.412
 Vibration    12          0.754              1.501              1.017
 Vibration    13          0.809              1.360              0.795
 Vibration    14          0.886              1.182              0.586
 Vibration    15          0.934              1.079              0.489

 Optimization completed.
    -- Stationary point found.
 Normal termination of Gaussian 16 at Thu Aug  4 08:48:36 2022.
