 Gaussian 16, Revision A.03,
 Gaussian 16:  ES64L-G16RevA.03 25-Dec-2016

 -----------------------------
 # opt freq b3lyp/6-31g(2df,p)
 -----------------------------

 -------------------
 Title Card Required
 -------------------
 Symbolic Z-matrix:
 Charge =  0 Multiplicity = 1

 SCF Done:  E(RB3LYP) =  -339.159559128     A.U. after   16 cycles
 SCF Done:  E(RB3LYP) =  -339.183440852     A.U. after   18 cycles
 SCF Done:  E(RB3LYP) =  -339.177807271     A.U. after   16 cycles
 SCF Done:  E(RB3LYP) =  -339.185659347     A.U. after   15 cycles
 SCF Done:  E(RB3LYP) =  -339.186310518     A.U. after   16 cycles
 SCF Done:  E(RB3LYP) =  -339.187174715     A.U. after   20 cycles
 SCF Done:  E(RB3LYP) =  -339.187271099     A.U. after   13 cycles
 SCF Done:  E(RB3LYP) =  -339.187498635     A.U. after   13 cycles
 SCF Done:  E(RB3LYP) =  -339.187565888     A.U. after   15 cycles
 SCF Done:  E(RB3LYP) =  -339.187566725     A.U. after    9 cycles
 SCF Done:  E(RB3LYP) =  -339.187566579     A.U. after    8 cycles
 SCF Done:  E(RB3LYP) =  -339.187566757     A.U. after    8 cycles
 Optimization completed.
    -- Stationary point found.
 Normal termination of Gaussian 16 at Sun Jul  3 11:31:38 2022.

 ----------------------------------------------------------------------
 #N Geom=AllCheck Guess=TCheck SCRF=Check GenChk RB3LYP/6-31G(2df,p) Fr
 eq
 ----------------------------------------------------------------------

 Structure from the checkpoint file:  "CtCCtCCpdNpCtN.chk"
 -------------------
 Title Card Required
 -------------------
 Charge =  0 Multiplicity = 1

                         Standard orientation:
 ---------------------------------------------------------------------
 Center     Atomic      Atomic             Coordinates (Angstroms)
 Number     Number       Type             X           Y           Z
 ---------------------------------------------------------------------
      1          6           0       -3.876125   -0.342580   -0.000071
      2          6           0       -2.683471   -0.153318    0.000095
      3          6           0       -1.344328    0.060748    0.000057
      4          6           0       -0.146284    0.250078    0.000026
      5          6           0        1.256158    0.508012   -0.000005
      6          7           0        1.816861    1.659913   -0.000030
      7          6           0        2.104477   -0.670787   -0.000008
      8          7           0        2.748525   -1.630485   -0.000013
      9          1           0       -4.925074   -0.513385   -0.000234
     10          1           0        1.104804    2.394473   -0.000024
 ---------------------------------------------------------------------

 SCF Done:  E(RB3LYP) =  -339.187566757     A.U. after    1 cycles

 The electronic state is 1-A.
 Alpha  occ. eigenvalues --  -14.36805 -14.35523 -10.31482 -10.24938 -10.24103
 Alpha  occ. eigenvalues --  -10.23794 -10.23697 -10.23256  -0.96492  -0.91767
 Alpha  occ. eigenvalues --   -0.83482  -0.78446  -0.72894  -0.65567  -0.59038
 Alpha  occ. eigenvalues --   -0.54712  -0.52099  -0.43421  -0.38958  -0.37823
 Alpha  occ. eigenvalues --   -0.37772  -0.35611  -0.33787  -0.32545  -0.28395
 Alpha  occ. eigenvalues --   -0.28278
 Alpha virt. eigenvalues --   -0.10894  -0.05883  -0.01979   0.02725   0.08874
 Alpha virt. eigenvalues --    0.09217   0.09898   0.13222   0.14488   0.18168
 Alpha virt. eigenvalues --    0.21809   0.27214   0.30562   0.33209   0.36776

 Mulliken charges:
               1
     1  C   -0.541206
     2  C    0.319799
     3  C   -0.421650
     4  C    0.631565
     5  C    0.012440
     6  N   -0.433338
     7  C    0.277643
     8  N   -0.310257
     9  H    0.214385
    10  H    0.250619
 Sum of Mulliken charges =  -0.00000

 Dipole moment (field-independent basis, Debye):
    X=             -4.8971    Y=              1.8392    Z=             -0.0001  Tot=              5.2311
 Quadrupole moment (field-independent basis, Debye-Ang):
   XX=            -41.4983   YY=            -46.1174   ZZ=            -43.8946
   XY=              5.0752   XZ=              0.0012   YZ=              0.0001

  Exact polarizability: 147.415  10.171  63.438   0.002   0.000  31.408
 Approx polarizability: 282.057  35.174 117.508   0.005   0.000  47.497

                      1                      2                      3
                      A                      A                      A
 Frequencies --     68.2107               110.7037               184.7171
 Red. masses --      7.2100                 6.4257                 7.1307
 Frc consts  --      0.0198                 0.0464                 0.1433
 IR Inten    --      1.0310                 0.0738                 2.4586

                      4                      5                      6
                      A                      A                      A
 Frequencies --    265.4440               270.9563               357.9305
 Red. masses --      5.9678                 6.9008                 6.7046
 Frc consts  --      0.2477                 0.2985                 0.5061
 IR Inten    --      6.9863                 7.3887                 0.3783

                      7                      8                      9
                      A                      A                      A
 Frequencies --    484.6576               509.9084               551.7082
 Red. masses --      7.5362                11.3056                 6.4556
 Frc consts  --      1.0430                 1.7319                 1.1577
 IR Inten    --      6.9597                 2.7631                 2.8501

                     10                     11                     12
                      A                      A                      A
 Frequencies --    582.9534               617.7044               636.5197
 Red. masses --      9.3764                 1.3225                 1.2785
 Frc consts  --      1.8774                 0.2973                 0.3052
 IR Inten    --      3.2701                40.8854                32.6450

                     13                     14                     15
                      A                      A                      A
 Frequencies --    685.9785               740.3184               936.9328
 Red. masses --     10.9079                 9.2692                 3.8540
 Frc consts  --      3.0242                 2.9931                 1.9933
 IR Inten    --      0.4034                 0.4071                56.8389

                     16                     17                     18
                      A                      A                      A
 Frequencies --    937.1522              1179.0272              1359.8553
 Red. masses --      1.2129                 2.7391                 2.3983
 Frc consts  --      0.6276                 2.2434                 2.6130
 IR Inten    --     65.1320                43.0585               241.9955

                     19                     20                     21
                      A                      A                      A
 Frequencies --   1627.4641              2179.3748              2337.8640
 Red. masses --      9.6414                 6.7764                10.4307
 Frc consts  --     15.0457                18.9634                33.5894
 IR Inten    --     66.5324                 8.4057               124.1829

                     22                     23                     24
                      A                      A                      A
 Frequencies --   2357.7927              3460.9190              3497.0014
 Red. masses --     12.6721                 1.0748                 1.1562
 Frc consts  --     41.5060                 7.5853                 8.3306
 IR Inten    --      4.4875                12.4234               115.8825

 - Thermochemistry -
 -------------------
 Temperature   298.150 Kelvin.  Pressure   1.00000 Atm.
 Atom     1 has atomic number  6 and mass  12.00000

 Molecular mass:   102.02180 amu.
 Principal axes and moments of inertia in atomic units:
                           1         2         3
     Eigenvalues --   331.192991922.409642253.60263
           X            0.99994   0.01138   0.00000
           Y           -0.01138   0.99994   0.00000
           Z           -0.00000  -0.00000   1.00000
 This molecule is an asymmetric top.
 Rotational symmetry number  1.
 Rotational temperatures (Kelvin)      0.26152     0.04505     0.03843
 Rotational constants (GHZ):           5.44921     0.93879     0.80082
 Zero-point vibrational energy     155162.2 (Joules/Mol)
                                   37.08466 (Kcal/Mol)
 Warning -- explicit consideration of  11 degrees of freedom as
           vibrations may cause significant error
 Vibrational temperatures:     98.14   159.28   265.77   381.91   389.85
          (Kelvin)            514.98   697.31   733.64   793.79   838.74
                              888.74   915.81   986.97  1065.15  1348.04
                             1348.35  1696.36  1956.53  2341.56  3135.63
                             3363.66  3392.34  4979.49  5031.41

 Zero-point correction=                           0.059098 (Hartree/Particle)
 Thermal correction to Energy=                    0.066745
 Thermal correction to Enthalpy=                  0.067689
 Thermal correction to Gibbs Free Energy=         0.026504
 Sum of electronic and zero-point Energies=           -339.128469
 Sum of electronic and thermal Energies=              -339.120822
 Sum of electronic and thermal Enthalpies=            -339.119877
 Sum of electronic and thermal Free Energies=         -339.161062

                     E (Thermal)             CV                S
                      KCal/Mol        Cal/Mol-Kelvin    Cal/Mol-Kelvin
 Total                   41.883             26.334             86.681
 Electronic               0.000              0.000              0.000
 Translational            0.889              2.981             39.778
 Rotational               0.889              2.981             28.752
 Vibrational             40.106             20.372             18.151
 Vibration     1          0.598              1.969              4.204
 Vibration     2          0.607              1.941              3.257
 Vibration     3          0.631              1.861              2.280
 Vibration     4          0.671              1.736              1.626
 Vibration     5          0.675              1.727              1.590
 Vibration     6          0.733              1.559              1.131
 Vibration     7          0.841              1.284              0.698
 Vibration     8          0.865              1.228              0.634
 Vibration     9          0.907              1.136              0.541
 Vibration    10          0.940              1.068              0.480
 Vibration    11          0.977              0.994              0.420

 Optimization completed.
    -- Stationary point found.
 Normal termination of Gaussian 16 at Sun Jul  3 11:41:31 2022.
