 Gaussian 16, Revision A.03,
 Gaussian 16:  ES64L-G16RevA.03 25-Dec-2016

 -----------------------------
 # opt freq b3lyp/6-31g(2df,p)
 -----------------------------

 -------------------
 Title Card Required
 -------------------
 Symbolic Z-matrix:
 Charge =  0 Multiplicity = 1

 SCF Done:  E(RB3LYP) =  -388.439846388     A.U. after   13 cycles
 SCF Done:  E(RB3LYP) =  -388.460330543     A.U. after   12 cycles
 SCF Done:  E(RB3LYP) =  -388.460996970     A.U. after   11 cycles
 SCF Done:  E(RB3LYP) =  -388.454474354     A.U. after   13 cycles
 SCF Done:  E(RB3LYP) =  -388.460694494     A.U. after   11 cycles
 SCF Done:  E(RB3LYP) =  -388.461480247     A.U. after   10 cycles
 SCF Done:  E(RB3LYP) =  -388.461273334     A.U. after   10 cycles
 SCF Done:  E(RB3LYP) =  -388.461695936     A.U. after   11 cycles
 SCF Done:  E(RB3LYP) =  -388.461690125     A.U. after   10 cycles
 SCF Done:  E(RB3LYP) =  -388.461713007     A.U. after    9 cycles
 SCF Done:  E(RB3LYP) =  -388.461765966     A.U. after   10 cycles
 SCF Done:  E(RB3LYP) =  -388.461767659     A.U. after    9 cycles
 SCF Done:  E(RB3LYP) =  -388.461768450     A.U. after    8 cycles
 SCF Done:  E(RB3LYP) =  -388.461768588     A.U. after    7 cycles
 SCF Done:  E(RB3LYP) =  -388.461768620     A.U. after    6 cycles
 Optimization completed.
    -- Stationary point found.
 Normal termination of Gaussian 16 at Thu Aug  4 05:28:38 2022.

 ----------------------------------------------------------------------
 #N Geom=AllCheck Guess=TCheck SCRF=Check GenChk RB3LYP/6-31G(2df,p) Fr
 eq
 ----------------------------------------------------------------------

 Structure from the checkpoint file:  "CtCCpCCCpCCO.chk"
 -------------------
 Title Card Required
 -------------------
 Charge =  0 Multiplicity = 1

                         Standard orientation:
 ---------------------------------------------------------------------
 Center     Atomic      Atomic             Coordinates (Angstroms)
 Number     Number       Type             X           Y           Z
 ---------------------------------------------------------------------
      1          6           0       -0.850389    2.952411   -0.158864
      2          6           0       -0.443609    1.847036    0.084354
      3          6           0        0.071231    0.502585    0.345967
      4          6           0       -0.873757   -0.577281   -0.234966
      5          6           0       -2.285260   -0.555518    0.359850
      6          6           0       -3.195490   -1.633022   -0.235434
      7          6           0        1.522126    0.385916   -0.184888
      8          6           0        2.268435   -0.869269    0.275910
      9          8           0        3.637996   -0.842691   -0.095528
     10          1           0       -1.211945    3.930428   -0.359273
     11          1           0        0.104852    0.364543    1.437585
     12          1           0       -0.427901   -1.563547   -0.061318
     13          1           0       -0.928419   -0.444341   -1.323306
     14          1           0       -2.727462    0.434201    0.200564
     15          1           0       -2.219829   -0.690529    1.447870
     16          1           0       -3.307629   -1.502822   -1.317616
     17          1           0       -4.195239   -1.598037    0.208290
     18          1           0       -2.790894   -2.637099   -0.064472
     19          1           0        2.095325    1.256337    0.149211
     20          1           0        1.502569    0.424710   -1.282658
     21          1           0        1.779011   -1.781729   -0.095920
     22          1           0        2.262114   -0.924557    1.370768
     23          1           0        3.681752   -0.843178   -1.057075
 ---------------------------------------------------------------------

 SCF Done:  E(RB3LYP) =  -388.461768620     A.U. after    1 cycles

 The electronic state is 1-A.
 Alpha  occ. eigenvalues --  -19.13465 -10.22805 -10.21353 -10.18627 -10.18610
 Alpha  occ. eigenvalues --  -10.17912 -10.17804 -10.17339 -10.16877  -1.01562
 Alpha  occ. eigenvalues --   -0.82850  -0.77025  -0.73637  -0.70061  -0.65222
 Alpha  occ. eigenvalues --   -0.60201  -0.58675  -0.52468  -0.50409  -0.48418
 Alpha  occ. eigenvalues --   -0.45288  -0.44191  -0.43996  -0.41585  -0.39618
 Alpha  occ. eigenvalues --   -0.38671  -0.36856  -0.35730  -0.33862  -0.33048
 Alpha  occ. eigenvalues --   -0.32825  -0.31981  -0.27501  -0.26241  -0.25529
 Alpha virt. eigenvalues --    0.05232   0.05740   0.07675   0.09858   0.10513
 Alpha virt. eigenvalues --    0.11520   0.12517   0.13279   0.14607   0.15541
 Alpha virt. eigenvalues --    0.16528   0.17971   0.18329   0.18864   0.19348

 Mulliken charges:
               1
     1  C   -0.464717
     2  C    0.331387
     3  C   -0.184068
     4  C   -0.169611
     5  C   -0.171743
     6  C   -0.382014
     7  C   -0.211508
     8  C   -0.070350
     9  O   -0.418028
    10  H    0.193233
    11  H    0.102869
    12  H    0.097161
    13  H    0.100574
    14  H    0.114693
    15  H    0.093032
    16  H    0.114848
    17  H    0.113343
    18  H    0.111989
    19  H    0.119239
    20  H    0.094910
    21  H    0.091483
    22  H    0.112064
    23  H    0.281214
 Sum of Mulliken charges =  -0.00000

 Dipole moment (field-independent basis, Debye):
    X=             -0.9600    Y=             -0.4353    Z=             -0.9385  Tot=              1.4113
 Quadrupole moment (field-independent basis, Debye-Ang):
   XX=            -63.0537   YY=            -54.8094   ZZ=            -54.0762
   XY=             -0.1400   XZ=             -4.0376   YZ=              0.0253

  Exact polarizability:  95.494  -5.174  99.484  -0.211  -3.097  70.916
 Approx polarizability: 118.156 -13.950 144.862   1.674  -8.303 110.669

                      1                      2                      3
                      A                      A                      A
 Frequencies --     57.6158                77.2368                80.9314
 Red. masses --      1.6512                 2.0912                 3.1925
 Frc consts  --      0.0032                 0.0074                 0.0123
 IR Inten    --      2.7669                 1.8916                 0.1109

                      4                      5                      6
                      A                      A                      A
 Frequencies --     97.4215               125.1010               166.6087
 Red. masses --      2.7773                 4.0965                 2.5409
 Frc consts  --      0.0155                 0.0378                 0.0416
 IR Inten    --      0.6166                 0.1705                 1.5840

                      7                      8                      9
                      A                      A                      A
 Frequencies --    225.5412               245.5217               279.9042
 Red. masses --      2.8595                 1.1250                 2.0231
 Frc consts  --      0.0857                 0.0400                 0.0934
 IR Inten    --      0.8898                 0.1321                32.7395

                     10                     11                     12
                      A                      A                      A
 Frequencies --    298.8824               328.4602               369.1874
 Red. masses --      1.7033                 3.4370                 2.9219
 Frc consts  --      0.0896                 0.2185                 0.2346
 IR Inten    --     50.4743                31.6005                 0.6137

                     13                     14                     15
                      A                      A                      A
 Frequencies --    440.8499               540.5926               590.8177
 Red. masses --      5.1649                 3.0801                 4.1492
 Frc consts  --      0.5914                 0.5303                 0.8533
 IR Inten    --      2.5149                 1.6992                 4.1502

                     16                     17                     18
                      A                      A                      A
 Frequencies --    625.9940               634.7972               745.9655
 Red. masses --      1.2073                 1.2181                 1.1464
 Frc consts  --      0.2787                 0.2892                 0.3758
 IR Inten    --     41.7551                44.1862                 2.3175

                     19                     20                     21
                      A                      A                      A
 Frequencies --    776.8158               828.8558               892.2942
 Red. masses --      1.2393                 1.8024                 1.5258
 Frc consts  --      0.4406                 0.7296                 0.7157
 IR Inten    --      3.2322                 1.8489                 2.8412

                     22                     23                     24
                      A                      A                      A
 Frequencies --    926.5823               979.1719              1016.0745
 Red. masses --      1.9468                 2.2440                 2.1240
 Frc consts  --      0.9848                 1.2676                 1.2920
 IR Inten    --      0.9473                 0.7749                28.3492

                     25                     26                     27
                      A                      A                      A
 Frequencies --   1051.4194              1055.4958              1073.0933
 Red. masses --      2.3748                 3.2394                 3.4028
 Frc consts  --      1.5468                 2.1263                 2.3087
 IR Inten    --      3.6033                 1.3417                66.7164

                     28                     29                     30
                      A                      A                      A
 Frequencies --   1085.3846              1128.2725              1142.3712
 Red. masses --      2.0096                 1.7185                 1.8733
 Frc consts  --      1.3948                 1.2890                 1.4403
 IR Inten    --     44.3892                 1.0222                 2.3334

                     31                     32                     33
                      A                      A                      A
 Frequencies --   1188.6134              1253.7987              1283.0444
 Red. masses --      1.5302                 1.3509                 1.2460
 Frc consts  --      1.2737                 1.2512                 1.2085
 IR Inten    --      4.2242                 3.2244                 4.3879

                     34                     35                     36
                      A                      A                      A
 Frequencies --   1295.6701              1322.4795              1332.0645
 Red. masses --      1.2589                 1.2188                 1.1407
 Frc consts  --      1.2452                 1.2560                 1.1925
 IR Inten    --      3.1084                 4.6337                 0.4447

                     37                     38                     39
                      A                      A                      A
 Frequencies --   1344.2244              1362.6890              1391.9109
 Red. masses --      1.2588                 1.3707                 1.5003
 Frc consts  --      1.3401                 1.4997                 1.7126
 IR Inten    --      0.0800                 6.4675                 4.7915

                     40                     41                     42
                      A                      A                      A
 Frequencies --   1403.6613              1413.2070              1422.5767
 Red. masses --      1.2793                 1.2334                 1.2920
 Frc consts  --      1.4851                 1.4513                 1.5405
 IR Inten    --     15.0586                 0.7739                40.5837

                     43                     44                     45
                      A                      A                      A
 Frequencies --   1481.6223              1487.6190              1493.9979
 Red. masses --      1.0773                 1.0814                 1.0585
 Frc consts  --      1.3934                 1.4100                 1.3920
 IR Inten    --      0.4233                 1.7375                 0.7482

                     46                     47                     48
                      A                      A                      A
 Frequencies --   1500.1411              1510.7446              1514.3663
 Red. masses --      1.0403                 1.0838                 1.0917
 Frc consts  --      1.3794                 1.4574                 1.4751
 IR Inten    --      5.3163                 2.4864                 0.1897

                     49                     50                     51
                      A                      A                      A
 Frequencies --   2230.6415              2986.8774              2990.1413
 Red. masses --      5.9429                 1.0778                 1.0695
 Frc consts  --     17.4225                 5.6651                 5.6340
 IR Inten    --      2.6729                 9.5380                48.1631

                     52                     53                     54
                      A                      A                      A
 Frequencies --   3015.6738              3019.9662              3025.2598
 Red. masses --      1.0640                 1.0670                 1.0525
 Frc consts  --      5.7009                 5.7334                 5.6752
 IR Inten    --      8.0857                 8.1434                25.3722

                     55                     56                     57
                      A                      A                      A
 Frequencies --   3029.5060              3056.2160              3059.4718
 Red. masses --      1.0449                 1.0934                 1.0915
 Frc consts  --      5.6500                 6.0170                 6.0197
 IR Inten    --     58.4329                13.5715                20.2016

                     58                     59                     60
                      A                      A                      A
 Frequencies --   3074.1666              3087.7715              3096.8829
 Red. masses --      1.1017                 1.0999                 1.1023
 Frc consts  --      6.1342                 6.1788                 6.2288
 IR Inten    --     14.9068                37.7798                63.2695

                     61                     62                     63
                      A                      A                      A
 Frequencies --   3101.9192              3504.6019              3814.9979
 Red. masses --      1.1006                 1.1613                 1.0661
 Frc consts  --      6.2394                 8.4036                 9.1423
 IR Inten    --     35.5981                67.3726                17.5522

 - Thermochemistry -
 -------------------
 Temperature   298.150 Kelvin.  Pressure   1.00000 Atm.
 Atom     1 has atomic number  6 and mass  12.00000

 Molecular mass:   126.10447 amu.
 Principal axes and moments of inertia in atomic units:
                           1         2         3
     Eigenvalues --   950.460562163.643812979.74448
           X            0.99949   0.03188  -0.00138
           Y           -0.03188   0.99949   0.00068
           Z            0.00140  -0.00063   1.00000
 This molecule is an asymmetric top.
 Rotational symmetry number  1.
 Warning -- assumption of classical behavior for rotation
           may cause significant error
 Rotational temperatures (Kelvin)      0.09113     0.04003     0.02907
 Rotational constants (GHZ):           1.89881     0.83412     0.60567
 Zero-point vibrational energy     532241.2 (Joules/Mol)
                                  127.20871 (Kcal/Mol)
 Warning -- explicit consideration of  15 degrees of freedom as
           vibrations may cause significant error
 Vibrational temperatures:     82.90   111.13   116.44   140.17   179.99
          (Kelvin)            239.71   324.50   353.25   402.72   430.03
                              472.58   531.18   634.28   777.79   850.05
                              900.67   913.33  1073.28  1117.66  1192.54
                             1283.81  1333.15  1408.81  1461.90  1512.76
                             1518.62  1543.94  1561.63  1623.33  1643.62
                             1710.15  1803.94  1846.01  1864.18  1902.75
                             1916.54  1934.04  1960.61  2002.65  2019.56
                             2033.29  2046.77  2131.72  2140.35  2149.53
                             2158.37  2173.62  2178.84  3209.40  4297.45
                             4302.15  4338.88  4345.06  4352.67  4358.78
                             4397.21  4401.90  4423.04  4442.61  4455.72
                             4462.97  5042.34  5488.93

 Zero-point correction=                           0.202720 (Hartree/Particle)
 Thermal correction to Energy=                    0.214233
 Thermal correction to Enthalpy=                  0.215177
 Thermal correction to Gibbs Free Energy=         0.165052
 Sum of electronic and zero-point Energies=           -388.259049
 Sum of electronic and thermal Energies=              -388.247536
 Sum of electronic and thermal Enthalpies=            -388.246592
 Sum of electronic and thermal Free Energies=         -388.296717

                     E (Thermal)             CV                S
                      KCal/Mol        Cal/Mol-Kelvin    Cal/Mol-Kelvin
 Total                  134.433             40.866            105.496
 Electronic               0.000              0.000              0.000
 Translational            0.889              2.981             40.409
 Rotational               0.889              2.981             30.195
 Vibrational            132.655             34.905             34.892
 Vibration     1          0.596              1.974              4.537
 Vibration     2          0.599              1.964              3.960
 Vibration     3          0.600              1.962              3.868
 Vibration     4          0.603              1.951              3.505
 Vibration     5          0.610              1.928              3.020
 Vibration     6          0.624              1.884              2.473
 Vibration     7          0.650              1.802              1.914
 Vibration     8          0.660              1.770              1.763
 Vibration     9          0.680              1.711              1.534
 Vibration    10          0.692              1.676              1.423
 Vibration    11          0.712              1.619              1.268
 Vibration    12          0.741              1.536              1.083
 Vibration    13          0.801              1.381              0.824
 Vibration    14          0.896              1.160              0.564
 Vibration    15          0.948              1.051              0.466

 Optimization completed.
    -- Stationary point found.
 Normal termination of Gaussian 16 at Thu Aug  4 06:04:22 2022.
