 Gaussian 16, Revision A.03,
 Gaussian 16:  ES64L-G16RevA.03 25-Dec-2016

 -----------------------------
 # opt freq b3lyp/6-31g(2df,p)
 -----------------------------

 -------------------
 Title Card Required
 -------------------
 Symbolic Z-matrix:
 Charge =  0 Multiplicity = 1

 SCF Done:  E(RB3LYP) =  -387.242353861     A.U. after   14 cycles
 SCF Done:  E(RB3LYP) =  -387.261260035     A.U. after   12 cycles
 SCF Done:  E(RB3LYP) =  -387.262016143     A.U. after   12 cycles
 SCF Done:  E(RB3LYP) =  -387.253545360     A.U. after   14 cycles
 SCF Done:  E(RB3LYP) =  -387.262443055     A.U. after   12 cycles
 SCF Done:  E(RB3LYP) =  -387.262594999     A.U. after    9 cycles
 SCF Done:  E(RB3LYP) =  -387.260840111     A.U. after   11 cycles
 SCF Done:  E(RB3LYP) =  -387.262592662     A.U. after    9 cycles
 SCF Done:  E(RB3LYP) =  -387.262602847     A.U. after    8 cycles
 SCF Done:  E(RB3LYP) =  -387.262606362     A.U. after    9 cycles
 SCF Done:  E(RB3LYP) =  -387.262597104     A.U. after    9 cycles
 SCF Done:  E(RB3LYP) =  -387.262607835     A.U. after    8 cycles
 Optimization completed.
    -- Stationary point found.
 Normal termination of Gaussian 16 at Thu Aug  4 02:02:30 2022.

 ----------------------------------------------------------------------
 #N Geom=AllCheck Guess=TCheck SCRF=Check GenChk RB3LYP/6-31G(2df,p) Fr
 eq
 ----------------------------------------------------------------------

 Structure from the checkpoint file:  "CtCC1CCCCpOpC1.chk"
 -------------------
 Title Card Required
 -------------------
 Charge =  0 Multiplicity = 1

                         Standard orientation:
 ---------------------------------------------------------------------
 Center     Atomic      Atomic             Coordinates (Angstroms)
 Number     Number       Type             X           Y           Z
 ---------------------------------------------------------------------
      1          6           0        2.635023   -1.151545   -0.919370
      2          6           0        1.911494   -0.662089   -0.092485
      3          6           0        1.030073   -0.061557    0.909450
      4          6           0        0.815484    1.450304    0.644491
      5          6           0       -0.030250    1.695092   -0.611327
      6          6           0       -1.375550    0.956626   -0.535167
      7          6           0       -1.184784   -0.543549   -0.283230
      8          8           0       -2.423998   -1.238468   -0.219335
      9          6           0       -0.337757   -0.788121    0.972002
     10          1           0        3.277830   -1.588394   -1.642914
     11          1           0        1.517892   -0.172698    1.886372
     12          1           0        1.785078    1.950373    0.560159
     13          1           0        0.307919    1.876192    1.519837
     14          1           0        0.526270    1.349490   -1.491092
     15          1           0       -0.195865    2.769204   -0.746990
     16          1           0       -1.954723    1.097932   -1.453458
     17          1           0       -1.976736    1.375414    0.287289
     18          1           0       -0.666395   -0.984061   -1.142996
     19          1           0       -2.931529   -0.863898    0.509273
     20          1           0       -0.196054   -1.862980    1.114900
     21          1           0       -0.884105   -0.409792    1.848119
 ---------------------------------------------------------------------

 SCF Done:  E(RB3LYP) =  -387.262607835     A.U. after    1 cycles

 The electronic state is 1-A.
 Alpha  occ. eigenvalues --  -19.12945 -10.22473 -10.21254 -10.18725 -10.18373
 Alpha  occ. eigenvalues --  -10.18141 -10.17870 -10.17801 -10.16961  -1.01197
 Alpha  occ. eigenvalues --   -0.83958  -0.76682  -0.73472  -0.71910  -0.62804
 Alpha  occ. eigenvalues --   -0.61203  -0.57838  -0.51783  -0.50101  -0.46484
 Alpha  occ. eigenvalues --   -0.45311  -0.45065  -0.43142  -0.40500  -0.38739
 Alpha  occ. eigenvalues --   -0.37245  -0.36843  -0.34368  -0.33097  -0.32491
 Alpha  occ. eigenvalues --   -0.30726  -0.26664  -0.26240  -0.25368
 Alpha virt. eigenvalues --    0.05161   0.05526   0.08179   0.09136   0.11298
 Alpha virt. eigenvalues --    0.12611   0.13483   0.15485   0.16200   0.17247
 Alpha virt. eigenvalues --    0.17444   0.17849   0.17982   0.18689   0.20653

 Mulliken charges:
               1
     1  C   -0.499630
     2  C    0.353500
     3  C   -0.169597
     4  C   -0.197733
     5  C   -0.205370
     6  C   -0.209782
     7  C    0.142225
     8  O   -0.435950
     9  C   -0.227707
    10  H    0.196575
    11  H    0.102357
    12  H    0.104661
    13  H    0.092018
    14  H    0.114018
    15  H    0.094743
    16  H    0.101573
    17  H    0.077303
    18  H    0.101569
    19  H    0.272412
    20  H    0.112597
    21  H    0.080218
 Sum of Mulliken charges =  -0.00000

 Dipole moment (field-independent basis, Debye):
    X=              0.1440    Y=              1.4168    Z=              1.1513  Tot=              1.8313
 Quadrupole moment (field-independent basis, Debye-Ang):
   XX=            -54.9848   YY=            -56.6864   ZZ=            -51.8905
   XY=             -3.7550   XZ=             -4.8270   YZ=              0.1653

  Exact polarizability:  91.735  -6.278  79.313  -9.335   4.747  78.465
 Approx polarizability: 126.260 -11.105 112.464 -21.539  14.192 126.495

                      1                      2                      3
                      A                      A                      A
 Frequencies --    102.9978               116.5503               197.1143
 Red. masses --      4.4305                 3.3414                 2.8638
 Frc consts  --      0.0277                 0.0267                 0.0656
 IR Inten    --      0.1925                 0.9308                 0.5572

                      4                      5                      6
                      A                      A                      A
 Frequencies --    244.3464               281.4070               322.1076
 Red. masses --      2.0234                 1.1582                 2.4494
 Frc consts  --      0.0712                 0.0540                 0.1497
 IR Inten    --      8.5338                59.3938                 2.2017

                      7                      8                      9
                      A                      A                      A
 Frequencies --    351.7314               384.3903               399.7617
 Red. masses --      3.8198                 3.9972                 4.1436
 Frc consts  --      0.2784                 0.3480                 0.3901
 IR Inten    --     30.7700                 2.4488                 2.2873

                     10                     11                     12
                      A                      A                      A
 Frequencies --    461.6997               505.5782               570.2926
 Red. masses --      1.7258                 2.9431                 4.2808
 Frc consts  --      0.2167                 0.4432                 0.8203
 IR Inten    --      2.0402                 2.1475                 2.4800

                     13                     14                     15
                      A                      A                      A
 Frequencies --    624.4291               633.5744               676.8589
 Red. masses --      1.2701                 1.2165                 2.6660
 Frc consts  --      0.2918                 0.2877                 0.7196
 IR Inten    --     39.5935                41.9941                 4.4362

                     16                     17                     18
                      A                      A                      A
 Frequencies --    770.9541               809.1651               865.7407
 Red. masses --      3.4259                 1.9398                 1.9040
 Frc consts  --      1.1997                 0.7483                 0.8408
 IR Inten    --      1.9210                 2.0161                 1.7047

                     19                     20                     21
                      A                      A                      A
 Frequencies --    884.1966               909.4160               961.3550
 Red. masses --      1.8453                 1.8747                 2.4633
 Frc consts  --      0.8500                 0.9135                 1.3413
 IR Inten    --      4.1417                 1.1501                 4.5491

                     22                     23                     24
                      A                      A                      A
 Frequencies --    984.8095              1031.7342              1063.3444
 Red. masses --      1.9915                 1.6734                 1.6354
 Frc consts  --      1.1380                 1.0495                 1.0895
 IR Inten    --      8.0621                 0.0356                 5.1047

                     25                     26                     27
                      A                      A                      A
 Frequencies --   1078.2346              1087.1381              1135.6398
 Red. masses --      2.6814                 2.1091                 1.9634
 Frc consts  --      1.8367                 1.4687                 1.4919
 IR Inten    --    119.4718                 3.6618                 7.3742

                     28                     29                     30
                      A                      A                      A
 Frequencies --   1152.0693              1187.6267              1222.7504
 Red. masses --      1.5262                 1.2855                 1.4241
 Frc consts  --      1.1935                 1.0682                 1.2545
 IR Inten    --      0.0727                 5.5887                 5.5882

                     31                     32                     33
                      A                      A                      A
 Frequencies --   1267.4268              1280.5300              1325.7391
 Red. masses --      1.2818                 1.3415                 1.4341
 Frc consts  --      1.2132                 1.2961                 1.4850
 IR Inten    --      1.0773                 7.4354                 1.9892

                     34                     35                     36
                      A                      A                      A
 Frequencies --   1328.1397              1344.0014              1369.9962
 Red. masses --      1.3234                 1.4559                 1.4013
 Frc consts  --      1.3754                 1.5495                 1.5496
 IR Inten    --      7.8925                 6.0963                 4.8643

                     37                     38                     39
                      A                      A                      A
 Frequencies --   1378.5564              1379.6317              1395.3311
 Red. masses --      1.3870                 1.4303                 1.4487
 Frc consts  --      1.5530                 1.6040                 1.6618
 IR Inten    --      4.4299                 6.4015                 4.9716

                     40                     41                     42
                      A                      A                      A
 Frequencies --   1429.2669              1477.9842              1482.3089
 Red. masses --      1.2521                 1.0904                 1.0934
 Frc consts  --      1.5070                 1.4034                 1.4155
 IR Inten    --     46.0711                 0.7220                 1.0587

                     43                     44                     45
                      A                      A                      A
 Frequencies --   1489.5004              1501.1905              2229.0292
 Red. masses --      1.0847                 1.0990                 5.9404
 Frc consts  --      1.4178                 1.4592                17.3900
 IR Inten    --      8.2723                 3.9953                 1.7039

                     46                     47                     48
                      A                      A                      A
 Frequencies --   2987.3892              3004.6493              3015.3811
 Red. masses --      1.0695                 1.0694                 1.0746
 Frc consts  --      5.6236                 5.6884                 5.7569
 IR Inten    --     21.5124                23.4973                 8.3409

                     49                     50                     51
                      A                      A                      A
 Frequencies --   3028.2969              3033.4205              3049.4365
 Red. masses --      1.0733                 1.0604                 1.0826
 Frc consts  --      5.7994                 5.7488                 5.9313
 IR Inten    --     47.4983                20.3102                22.8415

                     52                     53                     54
                      A                      A                      A
 Frequencies --   3072.8916              3076.0578              3083.2400
 Red. masses --      1.0954                 1.0968                 1.1000
 Frc consts  --      6.0940                 6.1145                 6.1609
 IR Inten    --     39.9525                39.1531                34.8898

                     55                     56                     57
                      A                      A                      A
 Frequencies --   3091.4864              3503.8021              3795.7377
 Red. masses --      1.0957                 1.1613                 1.0658
 Frc consts  --      6.1699                 8.3996                 9.0472
 IR Inten    --     26.5044                66.0904                11.8548

 - Thermochemistry -
 -------------------
 Temperature   298.150 Kelvin.  Pressure   1.00000 Atm.
 Atom     1 has atomic number  6 and mass  12.00000

 Molecular mass:   124.08882 amu.
 Principal axes and moments of inertia in atomic units:
                           1         2         3
     Eigenvalues --   791.531301370.087961687.79059
           X            0.99987  -0.01379  -0.00785
           Y            0.01369   0.99983  -0.01270
           Z            0.00803   0.01259   0.99989
 This molecule is an asymmetric top.
 Rotational symmetry number  1.
 Warning -- assumption of classical behavior for rotation
           may cause significant error
 Rotational temperatures (Kelvin)      0.10943     0.06322     0.05132
 Rotational constants (GHZ):           2.28006     1.31724     1.06929
 Zero-point vibrational energy     481122.7 (Joules/Mol)
                                  114.99109 (Kcal/Mol)
 Warning -- explicit consideration of  12 degrees of freedom as
           vibrations may cause significant error
 Vibrational temperatures:    148.19   167.69   283.60   351.56   404.88
          (Kelvin)            463.44   506.06   553.05   575.17   664.28
                              727.41   820.52   898.41   911.57   973.85
                             1109.23  1164.21  1245.61  1272.16  1308.45
                             1383.18  1416.92  1484.44  1529.92  1551.34
                             1564.15  1633.93  1657.57  1708.73  1759.27
                             1823.54  1842.40  1907.44  1910.90  1933.72
                             1971.12  1983.44  1984.98  2007.57  2056.40
                             2126.49  2132.71  2143.06  2159.88  3207.08
                             4298.19  4323.02  4338.46  4357.04  4364.42
                             4387.46  4421.21  4425.76  4436.09  4447.96
                             5041.19  5461.22

 Zero-point correction=                           0.183250 (Hartree/Particle)
 Thermal correction to Energy=                    0.192188
 Thermal correction to Enthalpy=                  0.193132
 Thermal correction to Gibbs Free Energy=         0.150041
 Sum of electronic and zero-point Energies=           -387.079358
 Sum of electronic and thermal Energies=              -387.070420
 Sum of electronic and thermal Enthalpies=            -387.069476
 Sum of electronic and thermal Free Energies=         -387.112566

                     E (Thermal)             CV                S
                      KCal/Mol        Cal/Mol-Kelvin    Cal/Mol-Kelvin
 Total                  120.600             35.266             90.692
 Electronic               0.000              0.000              0.000
 Translational            0.889              2.981             40.361
 Rotational               0.889              2.981             28.994
 Vibrational            118.822             29.305             21.336
 Vibration     1          0.605              1.947              3.397
 Vibration     2          0.608              1.936              3.157
 Vibration     3          0.636              1.844              2.160
 Vibration     4          0.660              1.772              1.771
 Vibration     5          0.681              1.708              1.525
 Vibration     6          0.707              1.631              1.299
 Vibration     7          0.728              1.572              1.158
 Vibration     8          0.753              1.503              1.022
 Vibration     9          0.766              1.471              0.964
 Vibration    10          0.819              1.335              0.761
 Vibration    11          0.861              1.238              0.644
 Vibration    12          0.926              1.096              0.504

                           ! Non-Optimized Parameters !
 Normal termination of Gaussian 16 at Thu Aug  4 02:41:42 2022.
