 Gaussian 16, Revision A.03,
 Gaussian 16:  ES64L-G16RevA.03 25-Dec-2016

 -----------------------------
 # opt freq b3lyp/6-31g(2df,p)
 -----------------------------

 -------------------
 Title Card Required
 -------------------
 Symbolic Z-matrix:
 Charge =  0 Multiplicity = 1

 SCF Done:  E(RB3LYP) =  -403.177964006     A.U. after   15 cycles
 SCF Done:  E(RB3LYP) =  -403.202433719     A.U. after   12 cycles
 SCF Done:  E(RB3LYP) =  -403.206850229     A.U. after   12 cycles
 SCF Done:  E(RB3LYP) =  -403.204050252     A.U. after   13 cycles
 SCF Done:  E(RB3LYP) =  -403.214172686     A.U. after   13 cycles
 SCF Done:  E(RB3LYP) =  -403.215142880     A.U. after   13 cycles
 SCF Done:  E(RB3LYP) =  -403.216312826     A.U. after   14 cycles
 SCF Done:  E(RB3LYP) =  -403.213817063     A.U. after   14 cycles
 SCF Done:  E(RB3LYP) =  -403.218733160     A.U. after   12 cycles
 SCF Done:  E(RB3LYP) =  -403.219359222     A.U. after   12 cycles
 SCF Done:  E(RB3LYP) =  -403.221519584     A.U. after   11 cycles
 SCF Done:  E(RB3LYP) =  -403.220997143     A.U. after   12 cycles
 SCF Done:  E(RB3LYP) =  -403.220837660     A.U. after   11 cycles
 SCF Done:  E(RB3LYP) =  -403.221660665     A.U. after    9 cycles
 SCF Done:  E(RB3LYP) =  -403.221889772     A.U. after   11 cycles
 SCF Done:  E(RB3LYP) =  -403.222046203     A.U. after   11 cycles
 SCF Done:  E(RB3LYP) =  -403.222049681     A.U. after    8 cycles
 SCF Done:  E(RB3LYP) =  -403.222050236     A.U. after    7 cycles
 SCF Done:  E(RB3LYP) =  -403.222050294     A.U. after    7 cycles
 Optimization completed.
    -- Stationary point found.
 Normal termination of Gaussian 16 at Sun Jul  3 21:17:05 2022.

 ----------------------------------------------------------------------
 #N Geom=AllCheck Guess=TCheck SCRF=Check GenChk RB3LYP/6-31G(2df,p) Fr
 eq
 ----------------------------------------------------------------------

 Structure from the checkpoint file:  "CtCCpCpONCpdCpC.chk"
 -------------------
 Title Card Required
 -------------------
 Charge =  0 Multiplicity = 1

                         Standard orientation:
 ---------------------------------------------------------------------
 Center     Atomic      Atomic             Coordinates (Angstroms)
 Number     Number       Type             X           Y           Z
 ---------------------------------------------------------------------
      1          6           0       -3.292966   -1.342239    0.084597
      2          6           0       -2.373510   -0.590241   -0.093509
      3          6           0       -1.279636    0.348920   -0.326325
      4          6           0       -1.737455    1.806735   -0.219354
      5          8           0       -0.262882    0.041728    0.649359
      6          7           0        0.957587    0.639088    0.251181
      7          6           0        1.978286   -0.306047   -0.008714
      8          6           0        1.760014   -1.606309   -0.206430
      9          6           0        3.326980    0.353505   -0.112853
     10          1           0       -4.099320   -2.015587    0.240547
     11          1           0       -0.856450    0.171666   -1.323651
     12          1           0       -2.152955    1.999781    0.773069
     13          1           0       -2.504755    2.020322   -0.968551
     14          1           0       -0.885071    2.468325   -0.392374
     15          1           0        1.220092    1.274681    1.000980
     16          1           0        0.775242   -2.039046   -0.100357
     17          1           0        2.579682   -2.257843   -0.479815
     18          1           0        3.324169    1.145417   -0.870183
     19          1           0        4.091072   -0.379126   -0.376097
     20          1           0        3.617959    0.818018    0.838820
 ---------------------------------------------------------------------

 SCF Done:  E(RB3LYP) =  -403.222050294     A.U. after    1 cycles

 The electronic state is 1-A.
 Alpha  occ. eigenvalues --  -19.17295 -14.37990 -10.25647 -10.21401 -10.18731
 Alpha  occ. eigenvalues --  -10.18281 -10.18087 -10.17790 -10.15244  -1.07616
 Alpha  occ. eigenvalues --   -0.87652  -0.78567  -0.73850  -0.72398  -0.68679
 Alpha  occ. eigenvalues --   -0.63714  -0.55414  -0.53341  -0.52469  -0.48679
 Alpha  occ. eigenvalues --   -0.47431  -0.44098  -0.42493  -0.41366  -0.40501
 Alpha  occ. eigenvalues --   -0.38810  -0.38465  -0.37041  -0.35226  -0.30032
 Alpha  occ. eigenvalues --   -0.28363  -0.27566  -0.26179  -0.21122
 Alpha virt. eigenvalues --    0.02919   0.04149   0.05272   0.08406   0.11481
 Alpha virt. eigenvalues --    0.12486   0.13303   0.13931   0.14308   0.15500
 Alpha virt. eigenvalues --    0.16401   0.17741   0.18071   0.18556   0.20915

 Mulliken charges:
               1
     1  C   -0.450331
     2  C    0.308412
     3  C    0.005361
     4  C   -0.395228
     5  O   -0.267819
     6  N   -0.257905
     7  C    0.399238
     8  C   -0.417325
     9  C   -0.471910
    10  H    0.200509
    11  H    0.114669
    12  H    0.130076
    13  H    0.127669
    14  H    0.125386
    15  H    0.242978
    16  H    0.116586
    17  H    0.097120
    18  H    0.134564
    19  H    0.136238
    20  H    0.121712
 Sum of Mulliken charges =  -0.00000

 Dipole moment (field-independent basis, Debye):
    X=              0.4627    Y=              1.3624    Z=             -0.1334  Tot=              1.4450
 Quadrupole moment (field-independent basis, Debye-Ang):
   XX=            -46.8637   YY=            -51.7131   ZZ=            -55.2633
   XY=              3.4347   XZ=              0.9374   YZ=              1.3278

  Exact polarizability: 108.633  10.784  93.068  -2.855   2.166  56.044
 Approx polarizability: 137.997  24.614 145.083  -5.676   3.042  87.122

                      1                      2                      3
                      A                      A                      A
 Frequencies --     48.1450                55.1070                82.0056
 Red. masses --      3.4466                 3.8235                 3.1888
 Frc consts  --      0.0047                 0.0068                 0.0126
 IR Inten    --      0.1565                 1.5091                 0.4828

                      4                      5                      6
                      A                      A                      A
 Frequencies --    160.2958               173.4935               215.5209
 Red. masses --      1.1367                 2.9811                 2.5177
 Frc consts  --      0.0172                 0.0529                 0.0689
 IR Inten    --      0.0881                 0.5743                 1.2652

                      7                      8                      9
                      A                      A                      A
 Frequencies --    247.4834               268.1169               315.4142
 Red. masses --      1.3567                 2.4408                 3.2840
 Frc consts  --      0.0490                 0.1034                 0.1925
 IR Inten    --      0.7990                 1.0350                 1.1514

                     10                     11                     12
                      A                      A                      A
 Frequencies --    395.6616               462.1246               482.2355
 Red. masses --      3.2981                 3.6004                 3.2738
 Frc consts  --      0.3042                 0.4530                 0.4486
 IR Inten    --      0.1843                 2.0067                 2.6210

                     13                     14                     15
                      A                      A                      A
 Frequencies --    508.3172               541.7221               608.4839
 Red. masses --      2.2062                 3.8395                 3.6779
 Frc consts  --      0.3359                 0.6639                 0.8023
 IR Inten    --     17.4401                 6.2295                 9.9516

                     16                     17                     18
                      A                      A                      A
 Frequencies --    623.3324               675.7025               708.6194
 Red. masses --      1.2281                 1.2554                 1.2794
 Frc consts  --      0.2811                 0.3377                 0.3785
 IR Inten    --     41.3579                31.0070                80.0658

                     19                     20                     21
                      A                      A                      A
 Frequencies --    787.3184               846.0177               867.6555
 Red. masses --      1.8782                 2.3443                 1.3726
 Frc consts  --      0.6859                 0.9886                 0.6088
 IR Inten    --     54.7686                10.3436                46.9629

                     22                     23                     24
                      A                      A                      A
 Frequencies --    900.9690               911.3555               998.2905
 Red. masses --      2.1849                 2.3197                 1.5256
 Frc consts  --      1.0450                 1.1351                 0.8958
 IR Inten    --      7.0505                23.6030                 8.5294

                     25                     26                     27
                      A                      A                      A
 Frequencies --   1019.5167              1058.8036              1068.6940
 Red. masses --      1.9711                 2.8966                 1.7102
 Frc consts  --      1.2071                 1.9132                 1.1508
 IR Inten    --      3.1454                20.8738                20.2955

                     28                     29                     30
                      A                      A                      A
 Frequencies --   1095.8488              1099.7055              1129.4998
 Red. masses --      2.2311                 2.2950                 1.9610
 Frc consts  --      1.5786                 1.6352                 1.4740
 IR Inten    --      6.7961                38.9060                40.8498

                     31                     32                     33
                      A                      A                      A
 Frequencies --   1291.8676              1346.6984              1348.2617
 Red. masses --      2.7045                 1.3291                 1.3330
 Frc consts  --      2.6593                 1.4202                 1.4277
 IR Inten    --     29.9820                 9.7080                50.5451

                     34                     35                     36
                      A                      A                      A
 Frequencies --   1393.7120              1406.2434              1436.5678
 Red. masses --      1.2475                 1.2681                 1.2008
 Frc consts  --      1.4277                 1.4775                 1.4600
 IR Inten    --     11.7478                 6.9554                 0.3813

                     37                     38                     39
                      A                      A                      A
 Frequencies --   1461.8184              1479.2600              1486.1623
 Red. masses --      1.1547                 1.0627                 1.0545
 Frc consts  --      1.4539                 1.3701                 1.3722
 IR Inten    --     17.1531                10.1890                 1.5079

                     40                     41                     42
                      A                      A                      A
 Frequencies --   1494.2378              1496.9885              1732.3662
 Red. masses --      1.0611                 1.0558                 5.5765
 Frc consts  --      1.3958                 1.3940                 9.8604
 IR Inten    --      3.4863                 3.9684                55.5172

                     43                     44                     45
                      A                      A                      A
 Frequencies --   2243.4170              3019.8729              3022.6759
 Red. masses --      5.9019                 1.0435                 1.0825
 Frc consts  --     17.5011                 5.6066                 5.8274
 IR Inten    --      2.6267                28.4040                12.1064

                     46                     47                     48
                      A                      A                      A
 Frequencies --   3047.9191              3073.8745              3126.5215
 Red. masses --      1.0334                 1.0944                 1.1020
 Frc consts  --      5.6563                 6.0927                 6.3466
 IR Inten    --     13.0745                18.1761                17.5131

                     49                     50                     51
                      A                      A                      A
 Frequencies --   3133.7309              3138.9617              3180.1756
 Red. masses --      1.1034                 1.0978                 1.0601
 Frc consts  --      6.3843                 6.3731                 6.3169
 IR Inten    --     16.4762                11.6341                 1.8176

                     52                     53                     54
                      A                      A                      A
 Frequencies --   3271.5041              3482.4244              3504.4495
 Red. masses --      1.1154                 1.0753                 1.1634
 Frc consts  --      7.0336                 7.6832                 8.4181
 IR Inten    --      5.1428                 2.2369                62.2002

 - Thermochemistry -
 -------------------
 Temperature   298.150 Kelvin.  Pressure   1.00000 Atm.
 Atom     1 has atomic number  6 and mass  12.00000

 Molecular mass:   125.08406 amu.
 Principal axes and moments of inertia in atomic units:
                           1         2         3
     Eigenvalues --   549.500512073.063972503.21475
           X            0.99996  -0.00916  -0.00057
           Y            0.00917   0.99996   0.00218
           Z            0.00055  -0.00218   1.00000
 This molecule is an asymmetric top.
 Rotational symmetry number  1.
 Warning -- assumption of classical behavior for rotation
           may cause significant error
 Rotational temperatures (Kelvin)      0.15762     0.04178     0.03460
 Rotational constants (GHZ):           3.28433     0.87057     0.72097
 Zero-point vibrational energy     436488.4 (Joules/Mol)
                                  104.32324 (Kcal/Mol)
 Warning -- explicit consideration of  15 degrees of freedom as
           vibrations may cause significant error
 Vibrational temperatures:     69.27    79.29   117.99   230.63   249.62
          (Kelvin)            310.09   356.07   385.76   453.81   569.27
                              664.89   693.83   731.36   779.42   875.47
                              896.84   972.19  1019.55  1132.78  1217.23
                             1248.36  1296.29  1311.24  1436.32  1466.86
                             1523.38  1537.61  1576.68  1582.23  1625.10
                             1858.71  1937.60  1939.85  2005.24  2023.27
                             2066.90  2103.23  2128.33  2138.26  2149.87
                             2153.83  2492.49  3227.78  4344.92  4348.96
                             4385.28  4422.62  4498.37  4508.74  4516.27
                             4575.56  4706.96  5010.43  5042.12

 Zero-point correction=                           0.166250 (Hartree/Particle)
 Thermal correction to Energy=                    0.176982
 Thermal correction to Enthalpy=                  0.177926
 Thermal correction to Gibbs Free Energy=         0.129723
 Sum of electronic and zero-point Energies=           -403.055801
 Sum of electronic and thermal Energies=              -403.045068
 Sum of electronic and thermal Enthalpies=            -403.044124
 Sum of electronic and thermal Free Energies=         -403.092327

                     E (Thermal)             CV                S
                      KCal/Mol        Cal/Mol-Kelvin    Cal/Mol-Kelvin
 Total                  111.058             38.885            101.452
 Electronic               0.000              0.000              0.000
 Translational            0.889              2.981             40.385
 Rotational               0.889              2.981             29.435
 Vibrational            109.280             32.924             31.632
 Vibration     1          0.595              1.978              4.892
 Vibration     2          0.596              1.976              4.625
 Vibration     3          0.600              1.961              3.842
 Vibration     4          0.622              1.891              2.546
 Vibration     5          0.627              1.875              2.397
 Vibration     6          0.645              1.817              1.996
 Vibration     7          0.661              1.767              1.748
 Vibration     8          0.673              1.732              1.608
 Vibration     9          0.703              1.644              1.334
 Vibration    10          0.762              1.479              0.979
 Vibration    11          0.820              1.334              0.760
 Vibration    12          0.838              1.289              0.704
 Vibration    13          0.863              1.232              0.638
 Vibration    14          0.897              1.158              0.562
 Vibration    15          0.967              1.014              0.435

 Optimization completed.
    -- Stationary point found.
 Normal termination of Gaussian 16 at Sun Jul  3 21:41:51 2022.
