 Gaussian 16, Revision A.03,
 Gaussian 16:  ES64L-G16RevA.03 25-Dec-2016

 -----------------------------
 # opt freq b3lyp/6-31g(2df,p)
 -----------------------------

 -------------------
 Title Card Required
 -------------------
 Symbolic Z-matrix:
 Charge =  0 Multiplicity = 1

 SCF Done:  E(RB3LYP) =  -310.720114924     A.U. after   12 cycles
 SCF Done:  E(RB3LYP) =  -310.757535416     A.U. after   12 cycles
 SCF Done:  E(RB3LYP) =  -310.758793635     A.U. after   11 cycles
 SCF Done:  E(RB3LYP) =  -310.755698590     A.U. after   12 cycles
 SCF Done:  E(RB3LYP) =  -310.757376394     A.U. after   12 cycles
 SCF Done:  E(RB3LYP) =  -310.758869802     A.U. after   10 cycles
 SCF Done:  E(RB3LYP) =  -310.758830542     A.U. after   10 cycles
 SCF Done:  E(RB3LYP) =  -310.758487548     A.U. after   11 cycles
 SCF Done:  E(RB3LYP) =  -310.758930419     A.U. after   10 cycles
 SCF Done:  E(RB3LYP) =  -310.758959769     A.U. after   10 cycles
 SCF Done:  E(RB3LYP) =  -310.758989461     A.U. after   10 cycles
 SCF Done:  E(RB3LYP) =  -310.758991440     A.U. after    8 cycles
 SCF Done:  E(RB3LYP) =  -310.758991683     A.U. after    7 cycles
 SCF Done:  E(RB3LYP) =  -310.758991750     A.U. after    7 cycles
 SCF Done:  E(RB3LYP) =  -310.758991842     A.U. after    7 cycles
 Optimization completed.
    -- Stationary point found.
 Normal termination of Gaussian 16 at Thu Aug  4 10:23:07 2022.

 ----------------------------------------------------------------------
 #N Geom=AllCheck Guess=TCheck SCRF=Check GenChk RB3LYP/6-31G(2df,p) Fr
 eq
 ----------------------------------------------------------------------

 Structure from the checkpoint file:  "CtCCpCpCpCpCtC.chk"
 -------------------
 Title Card Required
 -------------------
 Charge =  0 Multiplicity = 1

                         Standard orientation:
 ---------------------------------------------------------------------
 Center     Atomic      Atomic             Coordinates (Angstroms)
 Number     Number       Type             X           Y           Z
 ---------------------------------------------------------------------
      1          6           0        3.015539    0.315236    0.084154
      2          6           0        1.882766   -0.028456   -0.127962
      3          6           0        0.509588   -0.475500   -0.356074
      4          6           0        0.344614   -1.942400    0.086380
      5          6           0       -0.509585    0.475558    0.356103
      6          6           0       -0.344688    1.942450   -0.086419
      7          6           0       -1.882754    0.028446    0.128080
      8          6           0       -3.015454   -0.315357   -0.084213
      9          1           0        4.017822    0.620806    0.256406
     10          1           0        0.301210   -0.414680   -1.432962
     11          1           0        0.537000   -2.044118    1.158945
     12          1           0        1.052497   -2.582827   -0.445397
     13          1           0       -0.670638   -2.287844   -0.120257
     14          1           0       -0.301176    0.414780    1.432987
     15          1           0       -0.537074    2.044112   -1.158989
     16          1           0        0.670543    2.287958    0.120212
     17          1           0       -1.052608    2.582865    0.445324
     18          1           0       -4.017729   -0.620906   -0.256557
 ---------------------------------------------------------------------

 SCF Done:  E(RB3LYP) =  -310.758991842     A.U. after    1 cycles

 The electronic state is 1-A.
 Alpha  occ. eigenvalues --  -10.21818 -10.21801 -10.18116 -10.18116 -10.17907
 Alpha  occ. eigenvalues --  -10.17907 -10.17246 -10.17246  -0.83926  -0.76732
 Alpha  occ. eigenvalues --   -0.72314  -0.72253  -0.64661  -0.62207  -0.52900
 Alpha  occ. eigenvalues --   -0.52500  -0.49051  -0.45981  -0.43483  -0.43309
 Alpha  occ. eigenvalues --   -0.38622  -0.38042  -0.36928  -0.35785  -0.34686
 Alpha  occ. eigenvalues --   -0.28000  -0.26603  -0.26461  -0.25626
 Alpha virt. eigenvalues --    0.03982   0.04266   0.06628   0.06868   0.11114
 Alpha virt. eigenvalues --    0.12538   0.12713   0.12936   0.13605   0.16431
 Alpha virt. eigenvalues --    0.17222   0.18149   0.18288   0.19048   0.22264

 Mulliken charges:
               1
     1  C   -0.471850
     2  C    0.328750
     3  C   -0.149097
     4  C   -0.399341
     5  C   -0.149074
     6  C   -0.399340
     7  C    0.328665
     8  C   -0.471786
     9  H    0.195208
    10  H    0.113208
    11  H    0.124279
    12  H    0.124826
    13  H    0.134019
    14  H    0.113205
    15  H    0.124281
    16  H    0.134015
    17  H    0.124828
    18  H    0.195205
 Sum of Mulliken charges =   0.00000

 Dipole moment (field-independent basis, Debye):
    X=             -0.0000    Y=              0.0001    Z=             -0.0001  Tot=              0.0002
 Quadrupole moment (field-independent basis, Debye-Ang):
   XX=            -43.4816   YY=            -48.1735   ZZ=            -48.8090
   XY=              2.1448   XZ=              1.4986   YZ=              0.7924

  Exact polarizability: 113.487  10.399  71.000   5.357   1.578  55.157
 Approx polarizability: 170.960  23.262  95.816  14.173   4.810  86.573

                      1                      2                      3
                      A                      A                      A
 Frequencies --     58.8167               134.4636               178.5790
 Red. masses --      3.5103                 3.8746                 3.5136
 Frc consts  --      0.0072                 0.0413                 0.0660
 IR Inten    --      0.0634                 0.1238                 0.0000

                      4                      5                      6
                      A                      A                      A
 Frequencies --    209.7736               217.0623               227.3209
 Red. masses --      2.5568                 1.3202                 1.2007
 Frc consts  --      0.0663                 0.0366                 0.0366
 IR Inten    --      1.3972                 0.0000                 0.2905

                      7                      8                      9
                      A                      A                      A
 Frequencies --    273.4616               281.8735               386.9529
 Red. masses --      2.1456                 2.2700                 3.1958
 Frc consts  --      0.0945                 0.1063                 0.2819
 IR Inten    --      0.0000                 1.9589                 0.0000

                     10                     11                     12
                      A                      A                      A
 Frequencies --    488.8853               503.9861               546.4362
 Red. masses --      7.2443                 4.0380                 4.9451
 Frc consts  --      1.0201                 0.6043                 0.8700
 IR Inten    --      0.0000                 3.6228                 7.8518

                     13                     14                     15
                      A                      A                      A
 Frequencies --    564.6148               625.6095               626.7860
 Red. masses --      3.7774                 1.2170                 1.2148
 Frc consts  --      0.7095                 0.2806                 0.2812
 IR Inten    --      0.0000                 0.0064                86.0682

                     16                     17                     18
                      A                      A                      A
 Frequencies --    642.7011               642.9165               802.7752
 Red. masses --      1.2201                 1.2525                 2.2115
 Frc consts  --      0.2969                 0.3050                 0.8397
 IR Inten    --     85.1035                 0.2074                 0.0000

                     19                     20                     21
                      A                      A                      A
 Frequencies --    858.0041               919.0406               982.8918
 Red. masses --      2.6789                 1.9809                 1.2250
 Frc consts  --      1.1619                 0.9858                 0.6972
 IR Inten    --      0.1094                 0.0000                 6.1192

                     22                     23                     24
                      A                      A                      A
 Frequencies --   1036.2744              1078.7918              1108.1454
 Red. masses --      3.6157                 2.2369                 1.6230
 Frc consts  --      2.2876                 1.5338                 1.1743
 IR Inten    --      0.2200                 0.0000                22.4484

                     25                     26                     27
                      A                      A                      A
 Frequencies --   1109.4617              1180.5882              1266.7720
 Red. masses --      2.1979                 1.9551                 1.3359
 Frc consts  --      1.5940                 1.6055                 1.2630
 IR Inten    --      0.0000                 0.0000                13.4473

                     28                     29                     30
                      A                      A                      A
 Frequencies --   1321.2444              1327.3510              1356.0903
 Red. masses --      1.3031                 1.3254                 1.4470
 Frc consts  --      1.3403                 1.3759                 1.5678
 IR Inten    --      7.7667                 0.0000                 0.0000

                     31                     32                     33
                      A                      A                      A
 Frequencies --   1406.7400              1407.2194              1494.7759
 Red. masses --      1.2108                 1.2086                 1.0448
 Frc consts  --      1.4117                 1.4101                 1.3755
 IR Inten    --      7.4666                 0.0001                 8.2215

                     34                     35                     36
                      A                      A                      A
 Frequencies --   1494.8907              1496.7286              1498.5615
 Red. masses --      1.0443                 1.0421                 1.0539
 Frc consts  --      1.3749                 1.3754                 1.3945
 IR Inten    --      0.0014                 7.3299                 0.0000

                     37                     38                     39
                      A                      A                      A
 Frequencies --   2229.4082              2232.7156              3007.4877
 Red. masses --      5.9273                 5.9514                 1.0800
 Frc consts  --     17.3574                17.4799                 5.7556
 IR Inten    --      0.0001                 3.0828                 0.0000

                     40                     41                     42
                      A                      A                      A
 Frequencies --   3022.7919              3046.7132              3046.9706
 Red. masses --      1.0831                 1.0353                 1.0349
 Frc consts  --      5.8309                 5.6623                 5.6611
 IR Inten    --     17.9951                39.1383                 0.0000

                     43                     44                     45
                      A                      A                      A
 Frequencies --   3118.8761              3119.4045              3135.1528
 Red. masses --      1.1015                 1.1011                 1.1026
 Frc consts  --      6.3131                 6.3129                 6.3856
 IR Inten    --      0.0002                41.0126                 0.0004

                     46                     47                     48
                      A                      A                      A
 Frequencies --   3135.6048              3503.7826              3504.1403
 Red. masses --      1.1025                 1.1615                 1.1615
 Frc consts  --      6.3865                 8.4010                 8.4029
 IR Inten    --     29.0413               139.6880                 0.0004

 - Thermochemistry -
 -------------------
 Temperature   298.150 Kelvin.  Pressure   1.00000 Atm.
 Atom     1 has atomic number  6 and mass  12.00000

 Molecular mass:   106.07825 amu.
 Principal axes and moments of inertia in atomic units:
                           1         2         3
     Eigenvalues --   511.067701285.687651716.87479
           X            0.99999   0.00082   0.00489
           Y           -0.00081   0.99999  -0.00312
           Z           -0.00490   0.00311   0.99998
 This molecule is an asymmetric top.
 Rotational symmetry number  1.
 Warning -- assumption of classical behavior for rotation
           may cause significant error
 Rotational temperatures (Kelvin)      0.16948     0.06737     0.05045
 Rotational constants (GHZ):           3.53132     1.40372     1.05118
 Zero-point vibrational energy     393928.1 (Joules/Mol)
                                   94.15107 (Kcal/Mol)
 Warning -- explicit consideration of  13 degrees of freedom as
           vibrations may cause significant error
 Vibrational temperatures:     84.62   193.46   256.94   301.82   312.30
          (Kelvin)            327.06   393.45   405.55   556.74   703.40
                              725.12   786.20   812.35   900.11   901.81
                              924.70   925.01  1155.01  1234.48  1322.29
                             1414.16  1490.97  1552.14  1594.37  1596.27
                             1698.60  1822.60  1900.98  1909.76  1951.11
                             2023.99  2024.67  2150.65  2150.81  2153.46
                             2156.10  3207.62  3212.38  4327.10  4349.12
                             4383.54  4383.91  4487.37  4488.13  4510.79
                             4511.44  5041.16  5041.68

 Zero-point correction=                           0.150039 (Hartree/Particle)
 Thermal correction to Energy=                    0.159600
 Thermal correction to Enthalpy=                  0.160544
 Thermal correction to Gibbs Free Energy=         0.116242
 Sum of electronic and zero-point Energies=           -310.608953
 Sum of electronic and thermal Energies=              -310.599392
 Sum of electronic and thermal Enthalpies=            -310.598448
 Sum of electronic and thermal Free Energies=         -310.642750

                     E (Thermal)             CV                S
                      KCal/Mol        Cal/Mol-Kelvin    Cal/Mol-Kelvin
 Total                  100.151             35.261             93.243
 Electronic               0.000              0.000              0.000
 Translational            0.889              2.981             39.894
 Rotational               0.889              2.981             28.513
 Vibrational             98.373             29.299             24.836
 Vibration     1          0.596              1.974              4.497
 Vibration     2          0.613              1.919              2.881
 Vibration     3          0.629              1.869              2.343
 Vibration     4          0.642              1.826              2.046
 Vibration     5          0.646              1.815              1.983
 Vibration     6          0.651              1.799              1.900
 Vibration     7          0.676              1.722              1.574
 Vibration     8          0.681              1.707              1.522
 Vibration     9          0.755              1.498              1.012
 Vibration    10          0.845              1.275              0.687
 Vibration    11          0.859              1.241              0.648
 Vibration    12          0.902              1.147              0.552
 Vibration    13          0.920              1.108              0.515

 Optimization completed.
    -- Stationary point found.
 Normal termination of Gaussian 16 at Thu Aug  4 10:43:24 2022.
