 Gaussian 16, Revision A.03,
 Gaussian 16:  ES64L-G16RevA.03 25-Dec-2016

 -----------------------------
 # opt freq b3lyp/6-31g(2df,p)
 -----------------------------

 -------------------
 Title Card Required
 -------------------
 Symbolic Z-matrix:
 Charge =  0 Multiplicity = 1

 SCF Done:  E(RB3LYP) =  -383.436398055     A.U. after   21 cycles
 SCF Done:  E(RB3LYP) =  -383.488864753     A.U. after   18 cycles
 SCF Done:  E(RB3LYP) =  -383.508088554     A.U. after   21 cycles
 SCF Done:  E(RB3LYP) =  -383.499011636     A.U. after   16 cycles
 SCF Done:  E(RB3LYP) =  -383.506238318     A.U. after   15 cycles
 SCF Done:  E(RB3LYP) =  -383.508501023     A.U. after   18 cycles
 SCF Done:  E(RB3LYP) =  -383.507102950     A.U. after   15 cycles
 SCF Done:  E(RB3LYP) =  -383.508520259     A.U. after   28 cycles
 SCF Done:  E(RB3LYP) =  -383.508714945     A.U. after   22 cycles
 SCF Done:  E(RB3LYP) =  -383.508914110     A.U. after   24 cycles
 SCF Done:  E(RB3LYP) =  -383.508918560     A.U. after   26 cycles
 SCF Done:  E(RB3LYP) =  -383.508922774     A.U. after   15 cycles
 SCF Done:  E(RB3LYP) =  -383.508923381     A.U. after    8 cycles
 SCF Done:  E(RB3LYP) =  -383.508923792     A.U. after    7 cycles
 Optimization completed.
    -- Stationary point found.
 Normal termination of Gaussian 16 at Thu Aug  4 10:44:21 2022.

 ----------------------------------------------------------------------
 #N Geom=AllCheck Guess=TCheck SCRF=Check GenChk RB3LYP/6-31G(2df,p) Fr
 eq
 ----------------------------------------------------------------------

 Structure from the checkpoint file:  "CtCCtCCtCCOC.chk"
 -------------------
 Title Card Required
 -------------------
 Charge =  0 Multiplicity = 1

                         Standard orientation:
 ---------------------------------------------------------------------
 Center     Atomic      Atomic             Coordinates (Angstroms)
 Number     Number       Type             X           Y           Z
 ---------------------------------------------------------------------
      1          6           0       -5.348864   -0.292561    0.000005
      2          6           0       -4.147329   -0.152531    0.000001
      3          6           0       -2.803526    0.004137   -0.000006
      4          6           0       -1.593370    0.145094   -0.000008
      5          6           0       -0.251562    0.303282   -0.000002
      6          6           0        0.953059    0.437706    0.000003
      7          6           0        2.392051    0.645967    0.000003
      8          8           0        3.064495   -0.595668   -0.000000
      9          6           0        4.466456   -0.437401    0.000000
     10          1           0       -6.403507   -0.415968    0.000012
     11          1           0        2.676021    1.244038    0.884645
     12          1           0        2.676021    1.244042   -0.884637
     13          1           0        4.901215   -1.438826   -0.000002
     14          1           0        4.816402    0.104951    0.892405
     15          1           0        4.816402    0.104955   -0.892402
 ---------------------------------------------------------------------

 SCF Done:  E(RB3LYP) =  -383.508923792     A.U. after    1 cycles

 The electronic state is 1-A.
 Alpha  occ. eigenvalues --  -19.15549 -10.26700 -10.23509 -10.21675 -10.21403
 Alpha  occ. eigenvalues --  -10.21090 -10.20896 -10.20665 -10.20315  -1.04941
 Alpha  occ. eigenvalues --   -0.81750  -0.79361  -0.76064  -0.72257  -0.66914
 Alpha  occ. eigenvalues --   -0.63925  -0.58022  -0.52225  -0.50875  -0.49976
 Alpha  occ. eigenvalues --   -0.49384  -0.42066  -0.41294  -0.37192  -0.37021
 Alpha  occ. eigenvalues --   -0.33817  -0.31680  -0.31477  -0.27219  -0.24050
 Alpha  occ. eigenvalues --   -0.23514
 Alpha virt. eigenvalues --   -0.05507  -0.04866   0.05679   0.07521   0.09243
 Alpha virt. eigenvalues --    0.11138   0.13414   0.14819   0.15483   0.15486
 Alpha virt. eigenvalues --    0.17570   0.20698   0.21992   0.23647   0.25425

 Mulliken charges:
               1
     1  C   -0.700522
     2  C    0.171476
     3  C   -0.015002
     4  C    0.590148
     5  C   -0.213098
     6  C    0.043627
     7  C   -0.227778
     8  O   -0.229677
     9  C   -0.219194
    10  H    0.194435
    11  H    0.125535
    12  H    0.125535
    13  H    0.136868
    14  H    0.108824
    15  H    0.108824
 Sum of Mulliken charges =  -0.00000

 Dipole moment (field-independent basis, Debye):
    X=              1.4461    Y=              1.0445    Z=              0.0000  Tot=              1.7839
 Quadrupole moment (field-independent basis, Debye-Ang):
   XX=            -27.6754   YY=            -51.8540   ZZ=            -52.0052
   XY=              4.0526   XZ=             -0.0000   YZ=             -0.0000

  Exact polarizability: 239.911  15.340  50.282  -0.000   0.000  46.692
 Approx polarizability: 443.688  41.358  75.381  -0.000  -0.000  67.584

                      1                      2                      3
                      A                      A                      A
 Frequencies --     49.2418                57.1611                96.6449
 Red. masses --      5.2416                 2.7482                 3.9357
 Frc consts  --      0.0075                 0.0053                 0.0217
 IR Inten    --      1.6696                 6.9530                 0.0036

                      4                      5                      6
                      A                      A                      A
 Frequencies --    133.3210               204.1960               228.5368
 Red. masses --      5.5462                 4.4550                 1.1609
 Frc consts  --      0.0581                 0.1094                 0.0357
 IR Inten    --      0.3760                 0.3449                 2.9846

                      7                      8                      9
                      A                      A                      A
 Frequencies --    263.3106               335.8289               352.0701
 Red. masses --      5.9095                 3.7147                 5.0155
 Frc consts  --      0.2414                 0.2468                 0.3663
 IR Inten    --      1.5571                 0.2754                 1.7343

                     10                     11                     12
                      A                      A                      A
 Frequencies --    421.9237               478.1994               492.5362
 Red. masses --      6.8699                 5.1976                 6.6337
 Frc consts  --      0.7206                 0.7003                 0.9482
 IR Inten    --      0.1346                10.2209                 5.0829

                     13                     14                     15
                      A                      A                      A
 Frequencies --    556.3541               567.3716               636.2775
 Red. masses --      1.6848                 1.6259                 4.4388
 Frc consts  --      0.3073                 0.3084                 1.0588
 IR Inten    --     26.1930                28.5805                 4.4837

                     16                     17                     18
                      A                      A                      A
 Frequencies --    659.4671               670.8114               955.5682
 Red. masses --      4.7745                 6.0952                 4.6114
 Frc consts  --      1.2234                 1.6160                 2.4809
 IR Inten    --      4.8115                 2.9546                 8.5357

                     19                     20                     21
                      A                      A                      A
 Frequencies --    986.3477              1018.7460              1145.5365
 Red. masses --      4.8605                 1.6281                 6.9579
 Frc consts  --      2.7861                 0.9956                 5.3796
 IR Inten    --     22.6004                 1.4925               254.9228

                     22                     23                     24
                      A                      A                      A
 Frequencies --   1181.5437              1218.1733              1247.4487
 Red. masses --      1.2738                 1.5598                 1.0837
 Frc consts  --      1.0477                 1.3638                 0.9936
 IR Inten    --      2.7883                50.1090                 4.7923

                     25                     26                     27
                      A                      A                      A
 Frequencies --   1310.4524              1410.5325              1476.0845
 Red. masses --      4.3773                 1.5166                 1.1522
 Frc consts  --      4.4289                 1.7778                 1.4791
 IR Inten    --      0.6417               207.2600                 0.3380

                     28                     29                     30
                      A                      A                      A
 Frequencies --   1484.6782              1490.1329              1513.6597
 Red. masses --      1.0466                 1.0749                 1.0759
 Frc consts  --      1.3593                 1.4063                 1.4524
 IR Inten    --      5.9188                 2.0954                 4.7437

                     31                     32                     33
                      A                      A                      A
 Frequencies --   2155.4556              2298.2295              2342.4966
 Red. masses --      7.1830                 9.8395                11.9518
 Frc consts  --     19.6624                30.6203                38.6404
 IR Inten    --      0.0438                 5.7579                 2.3188

                     34                     35                     36
                      A                      A                      A
 Frequencies --   2938.5932              2955.4079              2972.7517
 Red. masses --      1.0533                 1.1021                 1.0375
 Frc consts  --      5.3592                 5.6717                 5.4018
 IR Inten    --     28.7738                37.2761                85.9683

                     37                     38                     39
                      A                      A                      A
 Frequencies --   3018.2524              3126.5571              3502.8118
 Red. masses --      1.1034                 1.0960                 1.1528
 Frc consts  --      5.9223                 6.3121                 8.3335
 IR Inten    --     55.1989                22.8574               148.9940

 - Thermochemistry -
 -------------------
 Temperature   298.150 Kelvin.  Pressure   1.00000 Atm.
 Atom     1 has atomic number  6 and mass  12.00000

 Molecular mass:   118.04186 amu.
 Principal axes and moments of inertia in atomic units:
                           1         2         3
     Eigenvalues --    94.671364545.376174617.31657
           X            1.00000   0.00268  -0.00000
           Y           -0.00268   1.00000   0.00000
           Z            0.00000  -0.00000   1.00000
 This molecule is an asymmetric top.
 Rotational symmetry number  1.
 Rotational temperatures (Kelvin)      0.91489     0.01906     0.01876
 Rotational constants (GHZ):          19.06322     0.39705     0.39086
 Zero-point vibrational energy     286820.9 (Joules/Mol)
                                   68.55184 (Kcal/Mol)
 Warning -- explicit consideration of  14 degrees of freedom as
           vibrations may cause significant error
 Vibrational temperatures:     70.85    82.24   139.05   191.82   293.79
          (Kelvin)            328.81   378.85   483.18   506.55   607.05
                              688.02   708.65   800.47   816.32   915.46
                              948.83   965.15  1374.85  1419.13  1465.75
                             1648.17  1699.98  1752.68  1794.80  1885.45
                             2029.44  2123.76  2136.12  2143.97  2177.82
                             3101.22  3306.64  3370.33  4227.98  4252.17
                             4277.13  4342.59  4498.42  5039.76

 Zero-point correction=                           0.109244 (Hartree/Particle)
 Thermal correction to Energy=                    0.119167
 Thermal correction to Enthalpy=                  0.120111
 Thermal correction to Gibbs Free Energy=         0.073505
 Sum of electronic and zero-point Energies=           -383.399679
 Sum of electronic and thermal Energies=              -383.389757
 Sum of electronic and thermal Enthalpies=            -383.388813
 Sum of electronic and thermal Free Energies=         -383.435419

                     E (Thermal)             CV                S
                      KCal/Mol        Cal/Mol-Kelvin    Cal/Mol-Kelvin
 Total                   74.778             33.875             98.091
 Electronic               0.000              0.000              0.000
 Translational            0.889              2.981             40.212
 Rotational               0.889              2.981             29.076
 Vibrational             73.001             27.913             28.802
 Vibration     1          0.595              1.978              4.848
 Vibration     2          0.596              1.975              4.553
 Vibration     3          0.603              1.952              3.521
 Vibration     4          0.613              1.920              2.898
 Vibration     5          0.640              1.834              2.095
 Vibration     6          0.651              1.797              1.890
 Vibration     7          0.670              1.740              1.640
 Vibration     8          0.717              1.604              1.232
 Vibration     9          0.729              1.571              1.157
 Vibration    10          0.784              1.423              0.885
 Vibration    11          0.835              1.298              0.715
 Vibration    12          0.848              1.267              0.677
 Vibration    13          0.912              1.126              0.531
 Vibration    14          0.923              1.102              0.509

 Optimization completed.
    -- Stationary point found.
 Normal termination of Gaussian 16 at Thu Aug  4 10:57:51 2022.
