 Gaussian 16, Revision A.03,
 Gaussian 16:  ES64L-G16RevA.03 25-Dec-2016

 -----------------------------
 # opt freq b3lyp/6-31g(2df,p)
 -----------------------------

 -------------------
 Title Card Required
 -------------------
 Symbolic Z-matrix:
 Charge =  0 Multiplicity = 1

 SCF Done:  E(RB3LYP) =  -424.316807985     A.U. after   13 cycles
 SCF Done:  E(RB3LYP) =  -424.337751582     A.U. after   12 cycles
 SCF Done:  E(RB3LYP) =  -424.338610510     A.U. after   12 cycles
 SCF Done:  E(RB3LYP) =  -424.331865942     A.U. after   13 cycles
 SCF Done:  E(RB3LYP) =  -424.339138015     A.U. after   11 cycles
 SCF Done:  E(RB3LYP) =  -424.338246858     A.U. after   11 cycles
 SCF Done:  E(RB3LYP) =  -424.339030134     A.U. after   11 cycles
 SCF Done:  E(RB3LYP) =  -424.339419301     A.U. after    9 cycles
 SCF Done:  E(RB3LYP) =  -424.339647195     A.U. after   10 cycles
 SCF Done:  E(RB3LYP) =  -424.339536319     A.U. after   10 cycles
 SCF Done:  E(RB3LYP) =  -424.339678373     A.U. after   10 cycles
 SCF Done:  E(RB3LYP) =  -424.339699553     A.U. after    9 cycles
 SCF Done:  E(RB3LYP) =  -424.339708294     A.U. after    9 cycles
 SCF Done:  E(RB3LYP) =  -424.339708795     A.U. after    7 cycles
 SCF Done:  E(RB3LYP) =  -424.339708897     A.U. after    7 cycles
 SCF Done:  E(RB3LYP) =  -424.339708914     A.U. after    6 cycles
 Optimization completed.
    -- Stationary point found.
 Normal termination of Gaussian 16 at Thu Aug  4 00:08:41 2022.

 ----------------------------------------------------------------------
 #N Geom=AllCheck Guess=TCheck SCRF=Check GenChk RB3LYP/6-31G(2df,p) Fr
 eq
 ----------------------------------------------------------------------

 Structure from the checkpoint file:  "CtCCpCCOCpOC.chk"
 -------------------
 Title Card Required
 -------------------
 Charge =  0 Multiplicity = 1

                         Standard orientation:
 ---------------------------------------------------------------------
 Center     Atomic      Atomic             Coordinates (Angstroms)
 Number     Number       Type             X           Y           Z
 ---------------------------------------------------------------------
      1          6           0        1.294752    2.734996   -0.053006
      2          6           0        1.243468    1.541877    0.077744
      3          6           0        1.146018    0.089810    0.239533
      4          6           0       -0.139929   -0.472978   -0.397120
      5          6           0       -1.415722    0.059670    0.242933
      6          8           0       -2.511315   -0.605135   -0.348122
      7          6           0       -3.750591   -0.163937    0.150288
      8          8           0        2.308626   -0.491797   -0.340815
      9          6           0        2.663666   -1.741735    0.208535
     10          1           0        1.353130    3.789337   -0.166838
     11          1           0        1.132431   -0.133436    1.320825
     12          1           0       -0.133404   -1.563110   -0.297300
     13          1           0       -0.134645   -0.238794   -1.465506
     14          1           0       -1.496296    1.148283    0.095511
     15          1           0       -1.403807   -0.117847    1.333899
     16          1           0       -4.531163   -0.729121   -0.364930
     17          1           0       -3.908087    0.910529   -0.035398
     18          1           0       -3.842429   -0.339172    1.234472
     19          1           0        3.590765   -2.048673   -0.280980
     20          1           0        1.903684   -2.516470    0.031245
     21          1           0        2.841352   -1.672286    1.293050
 ---------------------------------------------------------------------

 SCF Done:  E(RB3LYP) =  -424.339708914     A.U. after    1 cycles

 The electronic state is 1-A.
 Alpha  occ. eigenvalues --  -19.14449 -19.13855 -10.25962 -10.22770 -10.22759
 Alpha  occ. eigenvalues --  -10.22302 -10.18492 -10.18283 -10.17785  -1.03766
 Alpha  occ. eigenvalues --   -1.03192  -0.80513  -0.74874  -0.71230  -0.67755
 Alpha  occ. eigenvalues --   -0.63428  -0.60445  -0.53626  -0.50258  -0.49719
 Alpha  occ. eigenvalues --   -0.48328  -0.47279  -0.45856  -0.43831  -0.42173
 Alpha  occ. eigenvalues --   -0.39997  -0.39146  -0.36577  -0.34907  -0.32221
 Alpha  occ. eigenvalues --   -0.31699  -0.27964  -0.27387  -0.25559  -0.25296
 Alpha virt. eigenvalues --    0.03411   0.04978   0.09038   0.09739   0.12358
 Alpha virt. eigenvalues --    0.13041   0.13284   0.14133   0.14704   0.15690
 Alpha virt. eigenvalues --    0.16083   0.16404   0.17694   0.19656   0.20293

 Mulliken charges:
               1
     1  C   -0.442693
     2  C    0.333829
     3  C   -0.065385
     4  C   -0.218472
     5  C   -0.059440
     6  O   -0.230059
     7  C   -0.228029
     8  O   -0.243368
     9  C   -0.237912
    10  H    0.199472
    11  H    0.091899
    12  H    0.110416
    13  H    0.123819
    14  H    0.102194
    15  H    0.080348
    16  H    0.126599
    17  H    0.104397
    18  H    0.101636
    19  H    0.132963
    20  H    0.110209
    21  H    0.107575
 Sum of Mulliken charges =   0.00000

 Dipole moment (field-independent basis, Debye):
    X=             -0.7271    Y=             -0.1117    Z=              1.4754  Tot=              1.6486
 Quadrupole moment (field-independent basis, Debye-Ang):
   XX=            -53.4284   YY=            -49.0763   ZZ=            -55.7605
   XY=             -4.0689   XZ=              0.1459   YZ=             -1.5680

  Exact polarizability:  89.489  -1.438  95.686   0.126  -2.198  62.575
 Approx polarizability: 103.884   0.014 143.193  -0.661  -4.595  95.731

                      1                      2                      3
                      A                      A                      A
 Frequencies --     57.9427                61.9352                78.1436
 Red. masses --      2.4920                 2.1916                 2.1452
 Frc consts  --      0.0049                 0.0050                 0.0077
 IR Inten    --      1.7608                 2.7957                 1.3125

                      4                      5                      6
                      A                      A                      A
 Frequencies --    108.0133               133.8019               155.2951
 Red. masses --      3.3182                 2.4599                 1.9959
 Frc consts  --      0.0228                 0.0259                 0.0284
 IR Inten    --      0.2960                 1.0305                 1.0581

                      7                      8                      9
                      A                      A                      A
 Frequencies --    204.4272               219.4192               237.7260
 Red. masses --      2.1061                 1.9021                 1.4701
 Frc consts  --      0.0519                 0.0540                 0.0489
 IR Inten    --      2.5018                 0.1578                 3.5276

                     10                     11                     12
                      A                      A                      A
 Frequencies --    315.1279               339.3407               404.1021
 Red. masses --      4.6255                 4.2609                 3.6757
 Frc consts  --      0.2706                 0.2891                 0.3537
 IR Inten    --      2.4470                 4.5070                 0.8266

                     13                     14                     15
                      A                      A                      A
 Frequencies --    490.5018               544.1110               577.2915
 Red. masses --      3.5555                 6.1947                 3.0711
 Frc consts  --      0.5040                 1.0805                 0.6030
 IR Inten    --      4.2815                 1.3417                 6.0375

                     16                     17                     18
                      A                      A                      A
 Frequencies --    623.9445               668.5103               794.7190
 Red. masses --      1.2079                 1.2517                 1.3844
 Frc consts  --      0.2770                 0.3296                 0.5152
 IR Inten    --     47.6622                34.1958                 0.5323

                     19                     20                     21
                      A                      A                      A
 Frequencies --    889.7031               962.8050              1000.7143
 Red. masses --      2.0140                 4.4173                 4.4074
 Frc consts  --      0.9393                 2.4126                 2.6005
 IR Inten    --      3.2766                17.8731                37.5106

                     22                     23                     24
                      A                      A                      A
 Frequencies --   1062.4434              1088.7538              1105.2186
 Red. masses --      2.5074                 3.0631                 2.1231
 Frc consts  --      1.6676                 2.1393                 1.5280
 IR Inten    --      9.0883                11.7516                10.9160

                     25                     26                     27
                      A                      A                      A
 Frequencies --   1139.0959              1165.2579              1179.3302
 Red. masses --      5.0015                 5.0205                 1.2706
 Frc consts  --      3.8236                 4.0164                 1.0412
 IR Inten    --    220.3548               128.7542                 0.5784

                     28                     29                     30
                      A                      A                      A
 Frequencies --   1183.3624              1214.5012              1228.0604
 Red. masses --      1.3061                 1.4404                 1.6870
 Frc consts  --      1.0777                 1.2518                 1.4990
 IR Inten    --      8.8441                23.2057                29.0691

                     31                     32                     33
                      A                      A                      A
 Frequencies --   1231.1086              1298.4076              1305.7406
 Red. masses --      1.3128                 1.3471                 1.1047
 Frc consts  --      1.1723                 1.3380                 1.1097
 IR Inten    --      7.6832                 1.4447                 0.1656

                     34                     35                     36
                      A                      A                      A
 Frequencies --   1354.6956              1379.3471              1428.1047
 Red. masses --      1.3128                 1.3476                 1.3725
 Frc consts  --      1.4195                 1.5106                 1.6492
 IR Inten    --      9.2574                45.1795                32.7696

                     37                     38                     39
                      A                      A                      A
 Frequencies --   1476.9230              1481.8233              1485.2805
 Red. masses --      1.1181                 1.1645                 1.0471
 Frc consts  --      1.4369                 1.5065                 1.3610
 IR Inten    --      1.3888                 0.9423                 4.8297

                     40                     41                     42
                      A                      A                      A
 Frequencies --   1486.4453              1491.9474              1505.5702
 Red. masses --      1.0819                 1.0781                 1.0634
 Frc consts  --      1.4084                 1.4139                 1.4202
 IR Inten    --      0.0303                 6.8401                 7.7158

                     43                     44                     45
                      A                      A                      A
 Frequencies --   1509.3211              1533.1540              2240.4908
 Red. masses --      1.0593                 1.0920                 5.9009
 Frc consts  --      1.4218                 1.5123                17.4525
 IR Inten    --      8.9724                 1.0559                 2.2189

                     46                     47                     48
                      A                      A                      A
 Frequencies --   2937.0444              2947.7939              2967.1624
 Red. masses --      1.0658                 1.0779                 1.0398
 Frc consts  --      5.4168                 5.5185                 5.3934
 IR Inten    --     25.9210                38.2090                72.0283

                     49                     50                     51
                      A                      A                      A
 Frequencies --   2978.2692              2994.2310              3009.6813
 Red. masses --      1.0384                 1.0911                 1.1029
 Frc consts  --      5.4268                 5.7636                 5.8863
 IR Inten    --     60.3502                44.3455                53.5383

                     52                     53                     54
                      A                      A                      A
 Frequencies --   3027.7813              3056.1670              3107.3259
 Red. masses --      1.1012                 1.0592                 1.1043
 Frc consts  --      5.9477                 5.8286                 6.2821
 IR Inten    --     48.5736                26.0566                21.9753

                     55                     56                     57
                      A                      A                      A
 Frequencies --   3112.3920              3118.1932              3503.4296
 Red. masses --      1.0956                 1.0963                 1.1632
 Frc consts  --      6.2532                 6.2803                 8.4115
 IR Inten    --     31.7895                25.9237                60.4933

 - Thermochemistry -
 -------------------
 Temperature   298.150 Kelvin.  Pressure   1.00000 Atm.
 Atom     1 has atomic number  6 and mass  12.00000

 Molecular mass:   128.08373 amu.
 Principal axes and moments of inertia in atomic units:
                           1         2         3
     Eigenvalues --   777.035192211.668572865.95566
           X            0.99955  -0.02981  -0.00120
           Y            0.02980   0.99950  -0.01053
           Z            0.00151   0.01049   0.99994
 This molecule is an asymmetric top.
 Rotational symmetry number  1.
 Warning -- assumption of classical behavior for rotation
           may cause significant error
 Rotational temperatures (Kelvin)      0.11147     0.03916     0.03022
 Rotational constants (GHZ):           2.32260     0.81601     0.62972
 Zero-point vibrational energy     467748.4 (Joules/Mol)
                                  111.79456 (Kcal/Mol)
 Warning -- explicit consideration of  15 degrees of freedom as
           vibrations may cause significant error
 Vibrational temperatures:     83.37    89.11   112.43   155.41   192.51
          (Kelvin)            223.44   294.13   315.70   342.03   453.40
                              488.24   581.41   705.72   782.85   830.59
                              897.72   961.84  1143.42  1280.08  1385.26
                             1439.80  1528.62  1566.47  1590.16  1638.90
                             1676.55  1696.79  1702.59  1747.40  1766.90
                             1771.29  1868.12  1878.67  1949.10  1984.57
                             2054.72  2124.96  2132.01  2136.99  2138.66
                             2146.58  2166.18  2171.58  2205.87  3223.57
                             4225.75  4241.22  4269.08  4285.07  4308.03
                             4330.26  4356.30  4397.14  4470.75  4478.04
                             4486.38  5040.65

 Zero-point correction=                           0.178156 (Hartree/Particle)
 Thermal correction to Energy=                    0.189463
 Thermal correction to Enthalpy=                  0.190407
 Thermal correction to Gibbs Free Energy=         0.140413
 Sum of electronic and zero-point Energies=           -424.161553
 Sum of electronic and thermal Energies=              -424.150246
 Sum of electronic and thermal Enthalpies=            -424.149302
 Sum of electronic and thermal Free Energies=         -424.199296

                     E (Thermal)             CV                S
                      KCal/Mol        Cal/Mol-Kelvin    Cal/Mol-Kelvin
 Total                  118.890             38.709            105.221
 Electronic               0.000              0.000              0.000
 Translational            0.889              2.981             40.456
 Rotational               0.889              2.981             29.978
 Vibrational            117.112             32.748             34.787
 Vibration     1          0.596              1.974              4.526
 Vibration     2          0.597              1.972              4.395
 Vibration     3          0.599              1.964              3.937
 Vibration     4          0.606              1.943              3.304
 Vibration     5          0.613              1.920              2.891
 Vibration     6          0.620              1.897              2.606
 Vibration     7          0.640              1.834              2.093
 Vibration     8          0.647              1.812              1.964
 Vibration     9          0.656              1.783              1.820
 Vibration    10          0.702              1.645              1.335
 Vibration    11          0.719              1.597              1.215
 Vibration    12          0.769              1.461              0.948
 Vibration    13          0.846              1.271              0.682
 Vibration    14          0.899              1.153              0.557
 Vibration    15          0.934              1.080              0.490

 Optimization completed.
    -- Stationary point found.
 Normal termination of Gaussian 16 at Thu Aug  4 00:34:23 2022.
