 Gaussian 16, Revision A.03,
 Gaussian 16:  ES64L-G16RevA.03 25-Dec-2016

 -----------------------------
 # opt freq b3lyp/6-31g(2df,p)
 -----------------------------

 -------------------
 Title Card Required
 -------------------
 Symbolic Z-matrix:
 Charge =  0 Multiplicity = 1

 SCF Done:  E(RB3LYP) =  -382.578587846     A.U. after   15 cycles
 SCF Done:  E(RB3LYP) =  -382.581855852     A.U. after   13 cycles
 SCF Done:  E(RB3LYP) =  -382.578711532     A.U. after   13 cycles
 SCF Done:  E(RB3LYP) =  -382.583294408     A.U. after   13 cycles
 SCF Done:  E(RB3LYP) =  -382.584052347     A.U. after   13 cycles
 SCF Done:  E(RB3LYP) =  -382.581889941     A.U. after   13 cycles
 SCF Done:  E(RB3LYP) =  -382.584961762     A.U. after   13 cycles
 SCF Done:  E(RB3LYP) =  -382.585768279     A.U. after   14 cycles
 SCF Done:  E(RB3LYP) =  -382.586186348     A.U. after   16 cycles
 SCF Done:  E(RB3LYP) =  -382.587024646     A.U. after   14 cycles
 SCF Done:  E(RB3LYP) =  -382.587148873     A.U. after   12 cycles
 SCF Done:  E(RB3LYP) =  -382.587184452     A.U. after   12 cycles
 SCF Done:  E(RB3LYP) =  -382.587191831     A.U. after   10 cycles
 SCF Done:  E(RB3LYP) =  -382.587196542     A.U. after   10 cycles
 SCF Done:  E(RB3LYP) =  -382.587201864     A.U. after   11 cycles
 SCF Done:  E(RB3LYP) =  -382.587205014     A.U. after   11 cycles
 SCF Done:  E(RB3LYP) =  -382.587205660     A.U. after    9 cycles
 SCF Done:  E(RB3LYP) =  -382.587205737     A.U. after    7 cycles
 Optimization completed.
    -- Stationary point found.
 Normal termination of Gaussian 16 at Thu Aug  4 00:19:28 2022.

 ----------------------------------------------------------------------
 #N Geom=AllCheck Guess=TCheck SCRF=Check GenChk RB3LYP/6-31G(2df,p) Fr
 eq
 ----------------------------------------------------------------------

 Structure from the checkpoint file:  "CtCC1OCC1CdO.chk"
 -------------------
 Title Card Required
 -------------------
 Charge =  0 Multiplicity = 1

                         Standard orientation:
 ---------------------------------------------------------------------
 Center     Atomic      Atomic             Coordinates (Angstroms)
 Number     Number       Type             X           Y           Z
 ---------------------------------------------------------------------
      1          6           0       -2.815639   -1.231162    0.246332
      2          6           0       -1.846219   -0.619088   -0.113694
      3          6           0       -0.666021    0.107974   -0.542121
      4          8           0       -0.746622    1.538108   -0.333221
      5          6           0        0.412895    1.532798    0.519765
      6          6           0        0.592883   -0.000349    0.382236
      7          6           0        1.855920   -0.437897   -0.309494
      8          8           0        2.625371   -1.256664    0.119344
      9          1           0       -3.676840   -1.769250    0.558524
     10          1           0       -0.452731   -0.113692   -1.597079
     11          1           0        0.185700    1.876804    1.534157
     12          1           0        1.227448    2.140851    0.106552
     13          1           0        0.441631   -0.576940    1.293063
     14          1           0        2.041883    0.077020   -1.282341
 ---------------------------------------------------------------------

 SCF Done:  E(RB3LYP) =  -382.587205737     A.U. after    1 cycles

 The electronic state is 1-A.
 Alpha  occ. eigenvalues --  -19.15441 -19.15375 -10.28493 -10.27963 -10.25545
 Alpha  occ. eigenvalues --  -10.21883 -10.19595 -10.19286  -1.06444  -1.05826
 Alpha  occ. eigenvalues --   -0.79897  -0.77268  -0.71170  -0.63760  -0.58699
 Alpha  occ. eigenvalues --   -0.55040  -0.51897  -0.50892  -0.47963  -0.45006
 Alpha  occ. eigenvalues --   -0.44724  -0.41935  -0.40859  -0.36116  -0.33800
 Alpha  occ. eigenvalues --   -0.29403  -0.28426  -0.27101  -0.26202
 Alpha virt. eigenvalues --   -0.04169   0.00693   0.03794   0.09585   0.10432
 Alpha virt. eigenvalues --    0.11109   0.11834   0.13252   0.13940   0.15906
 Alpha virt. eigenvalues --    0.18624   0.22102   0.22687   0.26640   0.29147

 Mulliken charges:
               1
     1  C   -0.426635
     2  C    0.326531
     3  C   -0.070204
     4  O   -0.269948
     5  C   -0.089622
     6  C   -0.152334
     7  C    0.161407
     8  O   -0.244545
     9  H    0.209236
    10  H    0.113293
    11  H    0.126686
    12  H    0.113288
    13  H    0.119933
    14  H    0.082915
 Sum of Mulliken charges =  -0.00000

 Dipole moment (field-independent basis, Debye):
    X=             -0.8271    Y=              0.5029    Z=              0.1806  Tot=              0.9847
 Quadrupole moment (field-independent basis, Debye-Ang):
   XX=            -48.8846   YY=            -48.0397   ZZ=            -43.4044
   XY=              9.9430   XZ=             -2.8048   YZ=              1.5347

  Exact polarizability:  82.341   9.631  61.467  -4.421  -2.550  51.147
 Approx polarizability: 118.481  12.841  95.314  -6.824  -9.971  78.493

                      1                      2                      3
                      A                      A                      A
 Frequencies --     42.3600                71.4672               149.8088
 Red. masses --      3.9653                 4.3360                 3.8149
 Frc consts  --      0.0042                 0.0130                 0.0504
 IR Inten    --      4.1652                 7.7230                 1.3082

                      4                      5                      6
                      A                      A                      A
 Frequencies --    193.6512               297.3646               322.9052
 Red. masses --      4.2569                 2.5434                 3.0266
 Frc consts  --      0.0941                 0.1325                 0.1859
 IR Inten    --      4.9887                 0.9898                 7.0946

                      7                      8                      9
                      A                      A                      A
 Frequencies --    432.1154               505.8055               546.1798
 Red. masses --      7.3967                 5.4866                 7.1179
 Frc consts  --      0.8137                 0.8270                 1.2510
 IR Inten    --      2.1912                 3.6124                 8.2577

                     10                     11                     12
                      A                      A                      A
 Frequencies --    629.7037               682.3486               783.2435
 Red. masses --      1.2265                 1.2559                 4.3319
 Frc consts  --      0.2865                 0.3445                 1.5657
 IR Inten    --     41.2699                33.8660                 7.4177

                     13                     14                     15
                      A                      A                      A
 Frequencies --    875.4090               893.5492               956.8395
 Red. masses --      1.5135                 2.9629                 4.0454
 Frc consts  --      0.6834                 1.3938                 2.1822
 IR Inten    --     14.3315                 6.6560                49.5124

                     16                     17                     18
                      A                      A                      A
 Frequencies --   1002.7459              1038.2788              1062.3817
 Red. masses --      4.0808                 8.7925                 2.3537
 Frc consts  --      2.4175                 5.5846                 1.5652
 IR Inten    --      7.0724               126.3652                 3.6124

                     19                     20                     21
                      A                      A                      A
 Frequencies --   1082.5498              1135.7160              1173.9765
 Red. masses --      2.7487                 2.0905                 1.2816
 Frc consts  --      1.8979                 1.5887                 1.0407
 IR Inten    --      9.4592                24.1939                 7.3932

                     22                     23                     24
                      A                      A                      A
 Frequencies --   1212.3637              1252.9081              1294.2305
 Red. masses --      1.3359                 1.2325                 1.3482
 Frc consts  --      1.1569                 1.1399                 1.3305
 IR Inten    --      5.7711                 4.0499                 1.4818

                     25                     26                     27
                      A                      A                      A
 Frequencies --   1350.5634              1369.1421              1430.2041
 Red. masses --      1.3621                 1.4492                 1.2042
 Frc consts  --      1.4638                 1.6006                 1.4513
 IR Inten    --      6.1718                32.9434                 5.1880

                     28                     29                     30
                      A                      A                      A
 Frequencies --   1522.5151              1834.9106              2237.3468
 Red. masses --      1.0964                10.3692                 5.9127
 Frc consts  --      1.4975                20.5695                17.4384
 IR Inten    --      0.6556               199.6946                 5.8529

                     31                     32                     33
                      A                      A                      A
 Frequencies --   2850.1062              3003.2777              3021.4643
 Red. masses --      1.0819                 1.0813                 1.0598
 Frc consts  --      5.1777                 5.7465                 5.7003
 IR Inten    --     87.4985                35.2006                53.1539

                     34                     35                     36
                      A                      A                      A
 Frequencies --   3072.7328              3138.0812              3500.8584
 Red. masses --      1.1080                 1.0880                 1.1630
 Frc consts  --      6.1634                 6.3127                 8.3982
 IR Inten    --     26.4161                 5.2866                66.4598

 - Thermochemistry -
 -------------------
 Temperature   298.150 Kelvin.  Pressure   1.00000 Atm.
 Atom     1 has atomic number  6 and mass  12.00000

 Molecular mass:   110.03678 amu.
 Principal axes and moments of inertia in atomic units:
                           1         2         3
     Eigenvalues --   531.653251248.039641628.84791
           X            0.99886   0.04677  -0.00919
           Y           -0.04665   0.99883   0.01274
           Z            0.00977  -0.01230   0.99988
 This molecule is an asymmetric top.
 Rotational symmetry number  1.
 Warning -- assumption of classical behavior for rotation
           may cause significant error
 Rotational temperatures (Kelvin)      0.16291     0.06940     0.05317
 Rotational constants (GHZ):           3.39458     1.44606     1.10799
 Zero-point vibrational energy     274956.3 (Joules/Mol)
                                   65.71613 (Kcal/Mol)
 Warning -- explicit consideration of   9 degrees of freedom as
           vibrations may cause significant error
 Vibrational temperatures:     60.95   102.83   215.54   278.62   427.84
          (Kelvin)            464.59   621.72   727.74   785.83   906.00
                              981.75  1126.91  1259.52  1285.62  1376.68
                             1442.73  1493.85  1528.53  1557.55  1634.04
                             1689.09  1744.32  1802.66  1862.11  1943.16
                             1969.89  2057.74  2190.56  2640.03  3219.04
                             4100.67  4321.05  4347.21  4420.98  4515.00
                             5036.95

 Zero-point correction=                           0.104725 (Hartree/Particle)
 Thermal correction to Energy=                    0.112662
 Thermal correction to Enthalpy=                  0.113606
 Thermal correction to Gibbs Free Energy=         0.071168
 Sum of electronic and zero-point Energies=           -382.482480
 Sum of electronic and thermal Energies=              -382.474544
 Sum of electronic and thermal Enthalpies=            -382.473600
 Sum of electronic and thermal Free Energies=         -382.516037

                     E (Thermal)             CV                S
                      KCal/Mol        Cal/Mol-Kelvin    Cal/Mol-Kelvin
 Total                   70.696             27.486             89.318
 Electronic               0.000              0.000              0.000
 Translational            0.889              2.981             40.003
 Rotational               0.889              2.981             28.471
 Vibrational             68.919             21.525             20.844
 Vibration     1          0.595              1.980              5.146
 Vibration     2          0.598              1.968              4.113
 Vibration     3          0.618              1.903              2.675
 Vibration     4          0.635              1.849              2.193
 Vibration     5          0.691              1.679              1.432
 Vibration     6          0.708              1.630              1.295
 Vibration     7          0.793              1.400              0.852
 Vibration     8          0.861              1.237              0.644
 Vibration     9          0.901              1.148              0.552

 Optimization completed.
    -- Stationary point found.
 Normal termination of Gaussian 16 at Thu Aug  4 00:37:12 2022.
