 Gaussian 16, Revision A.03,
 Gaussian 16:  ES64L-G16RevA.03 25-Dec-2016

 -----------------------------
 # opt freq b3lyp/6-31g(2df,p)
 -----------------------------

 -------------------
 Title Card Required
 -------------------
 Symbolic Z-matrix:
 Charge =  0 Multiplicity = 1

 SCF Done:  E(RB3LYP) =  -351.297066456     A.U. after   13 cycles
 SCF Done:  E(RB3LYP) =  -351.317467821     A.U. after   11 cycles
 SCF Done:  E(RB3LYP) =  -351.316723049     A.U. after   12 cycles
 SCF Done:  E(RB3LYP) =  -351.315767593     A.U. after   12 cycles
 SCF Done:  E(RB3LYP) =  -351.313879814     A.U. after   12 cycles
 SCF Done:  E(RB3LYP) =  -351.317982057     A.U. after    8 cycles
 SCF Done:  E(RB3LYP) =  -351.319271221     A.U. after   11 cycles
 SCF Done:  E(RB3LYP) =  -351.319293553     A.U. after   10 cycles
 SCF Done:  E(RB3LYP) =  -351.319591336     A.U. after   10 cycles
 SCF Done:  E(RB3LYP) =  -351.319495637     A.U. after   11 cycles
 SCF Done:  E(RB3LYP) =  -351.319976576     A.U. after    9 cycles
 SCF Done:  E(RB3LYP) =  -351.319991904     A.U. after    9 cycles
 SCF Done:  E(RB3LYP) =  -351.319998503     A.U. after    8 cycles
 SCF Done:  E(RB3LYP) =  -351.319999476     A.U. after    7 cycles
 SCF Done:  E(RB3LYP) =  -351.319999674     A.U. after    5 cycles
 Optimization completed.
    -- Stationary point found.
 Normal termination of Gaussian 16 at Thu Aug  4 13:37:47 2022.

 ----------------------------------------------------------------------
 #N Geom=AllCheck Guess=TCheck SCRF=Check GenChk RB3LYP/6-31G(2df,p) Fr
 eq
 ----------------------------------------------------------------------

 Structure from the checkpoint file:  "CtCCCCCC1CC1.chk"
 -------------------
 Title Card Required
 -------------------
 Charge =  0 Multiplicity = 1

                         Standard orientation:
 ---------------------------------------------------------------------
 Center     Atomic      Atomic             Coordinates (Angstroms)
 Number     Number       Type             X           Y           Z
 ---------------------------------------------------------------------
      1          6           0       -4.815662   -0.423380    0.326005
      2          6           0       -3.757097    0.094830    0.089093
      3          6           0       -2.457126    0.692418   -0.190912
      4          6           0       -1.286314   -0.297681   -0.024957
      5          6           0        0.072564    0.342818   -0.320356
      6          6           0        1.246505   -0.632689   -0.163464
      7          6           0        2.590888   -0.000843   -0.456854
      8          6           0        3.328845    0.760052    0.617214
      9          6           0        3.854964   -0.569963    0.133337
     10          1           0       -5.756339   -0.869814    0.532614
     11          1           0       -2.301803    1.554619    0.471231
     12          1           0       -2.452819    1.093654   -1.213156
     13          1           0       -1.449747   -1.154856   -0.688991
     14          1           0       -1.299545   -0.694234    0.997332
     15          1           0        0.227718    1.203334    0.344178
     16          1           0        0.071320    0.746011   -1.342801
     17          1           0        1.092164   -1.495736   -0.825938
     18          1           0        1.252622   -1.033146    0.859621
     19          1           0        2.682410    0.402484   -1.463116
     20          1           0        2.884013    0.796274    1.606852
     21          1           0        3.868756    1.659604    0.342800
     22          1           0        3.762637   -1.422286    0.798959
     23          1           0        4.753215   -0.579292   -0.474222
 ---------------------------------------------------------------------

 SCF Done:  E(RB3LYP) =  -351.319999674     A.U. after    2 cycles

 The electronic state is 1-A.
 Alpha  occ. eigenvalues --  -10.20431 -10.18695 -10.18509 -10.18101 -10.18061
 Alpha  occ. eigenvalues --  -10.18013 -10.18010 -10.17551 -10.16415  -0.85431
 Alpha  occ. eigenvalues --   -0.80886  -0.76044  -0.71110  -0.65429  -0.59760
 Alpha  occ. eigenvalues --   -0.58613  -0.56244  -0.52013  -0.49121  -0.47257
 Alpha  occ. eigenvalues --   -0.45741  -0.45483  -0.42358  -0.40203  -0.37831
 Alpha  occ. eigenvalues --   -0.36186  -0.35974  -0.34822  -0.33182  -0.32823
 Alpha  occ. eigenvalues --   -0.28480  -0.27609  -0.25801  -0.25679
 Alpha virt. eigenvalues --    0.05903   0.06380   0.09176   0.10131   0.10760
 Alpha virt. eigenvalues --    0.12213   0.13009   0.13498   0.14080   0.15263
 Alpha virt. eigenvalues --    0.15453   0.17323   0.18284   0.18579   0.19826

 Mulliken charges:
               1
     1  C   -0.438545
     2  C    0.293255
     3  C   -0.356248
     4  C   -0.174779
     5  C   -0.169345
     6  C   -0.213374
     7  C    0.036947
     8  C   -0.254519
     9  C   -0.277525
    10  H    0.191642
    11  H    0.128051
    12  H    0.127848
    13  H    0.107974
    14  H    0.107566
    15  H    0.098037
    16  H    0.092523
    17  H    0.095751
    18  H    0.090982
    19  H    0.078642
    20  H    0.107705
    21  H    0.109085
    22  H    0.108924
    23  H    0.109400
 Sum of Mulliken charges =  -0.00000

 Dipole moment (field-independent basis, Debye):
    X=              0.8031    Y=              0.1793    Z=             -0.1959  Tot=              0.8459
 Quadrupole moment (field-independent basis, Debye-Ang):
   XX=            -58.3948   YY=            -56.0997   ZZ=            -55.8288
   XY=              1.6526   XZ=             -1.3044   YZ=             -0.7914

  Exact polarizability: 126.749   7.863  79.194  -3.348  -1.361  73.445
 Approx polarizability: 152.876  16.629 120.942  -6.777  -2.896 114.197

                      1                      2                      3
                      A                      A                      A
 Frequencies --     43.6566                64.6149                80.1708
 Red. masses --      3.4845                 2.5926                 3.0404
 Frc consts  --      0.0039                 0.0064                 0.0115
 IR Inten    --      0.0924                 0.0284                 0.0080

                      4                      5                      6
                      A                      A                      A
 Frequencies --    121.2545               139.8664               166.2449
 Red. masses --      2.3341                 2.1664                 3.1111
 Frc consts  --      0.0202                 0.0250                 0.0507
 IR Inten    --      0.0101                 0.0155                 0.0906

                      7                      8                      9
                      A                      A                      A
 Frequencies --    277.9010               296.0588               349.9101
 Red. masses --      3.5893                 3.1006                 3.2173
 Frc consts  --      0.1633                 0.1601                 0.2321
 IR Inten    --      0.1699                 0.8160                 3.0427

                     10                     11                     12
                      A                      A                      A
 Frequencies --    393.1734               446.4609               535.3230
 Red. masses --      2.2994                 2.9164                 4.5473
 Frc consts  --      0.2094                 0.3425                 0.7678
 IR Inten    --      0.3112                 0.2778                 4.3575

                     13                     14                     15
                      A                      A                      A
 Frequencies --    614.0921               632.9940               734.4402
 Red. masses --      1.1981                 1.2179                 1.0816
 Frc consts  --      0.2662                 0.2875                 0.3437
 IR Inten    --     44.2204                43.1921                 2.5619

                     16                     17                     18
                      A                      A                      A
 Frequencies --    770.3977               776.1570               818.0816
 Red. masses --      1.1464                 1.2744                 1.3230
 Frc consts  --      0.4009                 0.4523                 0.5217
 IR Inten    --      0.6493                 1.3799                 1.9151

                     19                     20                     21
                      A                      A                      A
 Frequencies --    835.8074               893.8102               926.6220
 Red. masses --      1.7342                 1.5390                 3.1172
 Frc consts  --      0.7138                 0.7244                 1.5770
 IR Inten    --      7.8344                 1.3496                 5.0349

                     22                     23                     24
                      A                      A                      A
 Frequencies --    947.4881               976.1262              1023.9582
 Red. masses --      3.2584                 2.1226                 2.6752
 Frc consts  --      1.7235                 1.1916                 1.6526
 IR Inten    --      1.1928                 5.7279                 0.5955

                     25                     26                     27
                      A                      A                      A
 Frequencies --   1039.1904              1058.0691              1064.2279
 Red. masses --      1.6967                 1.8734                 2.1238
 Frc consts  --      1.0795                 1.2357                 1.4172
 IR Inten    --      3.7130                 2.4154                 1.7820

                     28                     29                     30
                      A                      A                      A
 Frequencies --   1076.8898              1090.5252              1137.9172
 Red. masses --      1.4316                 2.3438                 1.2310
 Frc consts  --      0.9781                 1.6423                 0.9391
 IR Inten    --      0.6244                 0.7623                 0.0984

                     31                     32                     33
                      A                      A                      A
 Frequencies --   1142.4963              1198.4251              1217.3960
 Red. masses --      1.2210                 1.3924                 1.6272
 Frc consts  --      0.9390                 1.1783                 1.4209
 IR Inten    --      0.2102                 0.3328                 0.1853

                     34                     35                     36
                      A                      A                      A
 Frequencies --   1230.3632              1250.1448              1282.4979
 Red. masses --      1.8061                 1.2912                 1.3014
 Frc consts  --      1.6109                 1.1890                 1.2612
 IR Inten    --      0.5947                 8.0494                 0.5181

                     37                     38                     39
                      A                      A                      A
 Frequencies --   1317.3501              1324.0194              1330.6105
 Red. masses --      1.3027                 1.1049                 1.1226
 Frc consts  --      1.3320                 1.1412                 1.1710
 IR Inten    --      0.8143                 0.6929                 0.2764

                     40                     41                     42
                      A                      A                      A
 Frequencies --   1370.5649              1395.2620              1419.5412
 Red. masses --      1.4075                 1.5522                 1.6524
 Frc consts  --      1.5578                 1.7804                 1.9618
 IR Inten    --      7.0614                 1.4368                 0.2658

                     43                     44                     45
                      A                      A                      A
 Frequencies --   1468.9131              1472.7294              1481.8871
 Red. masses --      1.0882                 1.0827                 1.0820
 Frc consts  --      1.3834                 1.3836                 1.3999
 IR Inten    --      1.0181                 0.7036                 1.0942

                     46                     47                     48
                      A                      A                      A
 Frequencies --   1490.0507              1506.9336              1509.7247
 Red. masses --      1.0963                 1.2787                 1.1712
 Frc consts  --      1.4341                 1.7109                 1.5728
 IR Inten    --      0.0922                 1.1819                 3.5845

                     49                     50                     51
                      A                      A                      A
 Frequencies --   2238.0305              3002.1488              3008.9405
 Red. masses --      5.9392                 1.0581                 1.0605
 Frc consts  --     17.5271                 5.6190                 5.6568
 IR Inten    --      5.2014                 3.5049                29.9993

                     52                     53                     54
                      A                      A                      A
 Frequencies --   3012.9232              3028.5247              3033.9731
 Red. masses --      1.0580                 1.0973                 1.0599
 Frc consts  --      5.6584                 5.9300                 5.7485
 IR Inten    --     15.9096                 0.8685                47.0998

                     55                     56                     57
                      A                      A                      A
 Frequencies --   3039.0493              3049.7097              3079.3703
 Red. masses --      1.1002                 1.1039                 1.1053
 Frc consts  --      5.9868                 6.0489                 6.1752
 IR Inten    --      9.0842                16.5710                62.0903

                     58                     59                     60
                      A                      A                      A
 Frequencies --   3125.7884              3126.4840              3131.9909
 Red. masses --      1.0522                 1.0792                 1.0657
 Frc consts  --      6.0572                 6.2152                 6.1595
 IR Inten    --     23.6843                26.1783                 6.5353

                     61                     62                     63
                      A                      A                      A
 Frequencies --   3203.4627              3218.8054              3508.2124
 Red. masses --      1.1174                 1.1152                 1.1618
 Frc consts  --      6.7559                 6.8073                 8.4247
 IR Inten    --      0.3753                25.7240                68.8709

 - Thermochemistry -
 -------------------
 Temperature   298.150 Kelvin.  Pressure   1.00000 Atm.
 Atom     1 has atomic number  6 and mass  12.00000

 Molecular mass:   122.10955 amu.
 Principal axes and moments of inertia in atomic units:
                           1         2         3
     Eigenvalues --   238.919683901.549493974.66354
           X            1.00000   0.00047   0.00138
           Y           -0.00041   0.99925  -0.03861
           Z           -0.00139   0.03861   0.99925
 This molecule is an asymmetric top.
 Rotational symmetry number  1.
 Rotational temperatures (Kelvin)      0.36252     0.02220     0.02179
 Rotational constants (GHZ):           7.55376     0.46257     0.45406
 Zero-point vibrational energy     535614.5 (Joules/Mol)
                                  128.01494 (Kcal/Mol)
 Warning -- explicit consideration of  13 degrees of freedom as
           vibrations may cause significant error
 Vibrational temperatures:     62.81    92.97   115.35   174.46   201.24
          (Kelvin)            239.19   399.84   425.96   503.44   565.69
                              642.36   770.21   883.54   910.74  1056.70
                             1108.43  1116.72  1177.04  1202.54  1285.99
                             1333.20  1363.22  1404.43  1473.25  1495.16
                             1522.33  1531.19  1549.40  1569.02  1637.21
                             1643.80  1724.27  1751.56  1770.22  1798.68
                             1845.23  1895.37  1904.97  1914.45  1971.94
                             2007.47  2042.40  2113.44  2118.93  2132.11
                             2143.85  2168.14  2172.16  3220.03  4319.42
                             4329.19  4334.92  4357.37  4365.21  4372.51
                             4387.85  4430.53  4497.31  4498.31  4506.24
                             4609.07  4631.14  5047.54

 Zero-point correction=                           0.204005 (Hartree/Particle)
 Thermal correction to Energy=                    0.214528
 Thermal correction to Enthalpy=                  0.215472
 Thermal correction to Gibbs Free Energy=         0.167236
 Sum of electronic and zero-point Energies=           -351.115995
 Sum of electronic and thermal Energies=              -351.105472
 Sum of electronic and thermal Enthalpies=            -351.104528
 Sum of electronic and thermal Free Energies=         -351.152764

                     E (Thermal)             CV                S
                      KCal/Mol        Cal/Mol-Kelvin    Cal/Mol-Kelvin
 Total                  134.618             38.279            101.522
 Electronic               0.000              0.000              0.000
 Translational            0.889              2.981             40.313
 Rotational               0.889              2.981             29.695
 Vibrational            132.841             32.317             31.514
 Vibration     1          0.595              1.980              5.086
 Vibration     2          0.597              1.971              4.311
 Vibration     3          0.600              1.963              3.887
 Vibration     4          0.609              1.931              3.080
 Vibration     5          0.615              1.913              2.806
 Vibration     6          0.624              1.884              2.478
 Vibration     7          0.679              1.714              1.547
 Vibration     8          0.690              1.681              1.439
 Vibration     9          0.727              1.575              1.167
 Vibration    10          0.760              1.485              0.988
 Vibration    11          0.806              1.369              0.807
 Vibration    12          0.890              1.172              0.575
 Vibration    13          0.973              1.002              0.426

 Optimization completed.
    -- Stationary point found.
 Normal termination of Gaussian 16 at Thu Aug  4 14:06:27 2022.
