 Gaussian 16, Revision A.03,
 Gaussian 16:  ES64L-G16RevA.03 25-Dec-2016

 -----------------------------
 # opt freq b3lyp/6-31g(2df,p)
 -----------------------------

 -------------------
 Title Card Required
 -------------------
 Symbolic Z-matrix:
 Charge =  0 Multiplicity = 1

 SCF Done:  E(RB3LYP) =  -326.828546728     A.U. after   14 cycles
 SCF Done:  E(RB3LYP) =  -326.852004074     A.U. after   13 cycles
 SCF Done:  E(RB3LYP) =  -326.851541038     A.U. after   13 cycles
 SCF Done:  E(RB3LYP) =  -326.851047929     A.U. after   12 cycles
 SCF Done:  E(RB3LYP) =  -326.849543462     A.U. after   12 cycles
 SCF Done:  E(RB3LYP) =  -326.852616457     A.U. after    9 cycles
 SCF Done:  E(RB3LYP) =  -326.853915436     A.U. after   12 cycles
 SCF Done:  E(RB3LYP) =  -326.853252692     A.U. after   12 cycles
 SCF Done:  E(RB3LYP) =  -326.854068184     A.U. after   11 cycles
 SCF Done:  E(RB3LYP) =  -326.853974691     A.U. after   12 cycles
 SCF Done:  E(RB3LYP) =  -326.854380221     A.U. after   11 cycles
 SCF Done:  E(RB3LYP) =  -326.854460723     A.U. after   11 cycles
 SCF Done:  E(RB3LYP) =  -326.854500013     A.U. after   11 cycles
 SCF Done:  E(RB3LYP) =  -326.854538519     A.U. after    9 cycles
 SCF Done:  E(RB3LYP) =  -326.854552929     A.U. after    9 cycles
 SCF Done:  E(RB3LYP) =  -326.854556375     A.U. after    9 cycles
 SCF Done:  E(RB3LYP) =  -326.854556681     A.U. after    7 cycles
 SCF Done:  E(RB3LYP) =  -326.854556715     A.U. after    7 cycles
 Optimization completed.
    -- Stationary point found.
 Normal termination of Gaussian 16 at Sun Jul  3 23:24:30 2022.

 ----------------------------------------------------------------------
 #N Geom=AllCheck Guess=TCheck SCRF=Check GenChk RB3LYP/6-31G(2df,p) Fr
 eq
 ----------------------------------------------------------------------

 Structure from the checkpoint file:  "CtCC1CCCpdNpC1.chk"
 -------------------
 Title Card Required
 -------------------
 Charge =  0 Multiplicity = 1

                         Standard orientation:
 ---------------------------------------------------------------------
 Center     Atomic      Atomic             Coordinates (Angstroms)
 Number     Number       Type             X           Y           Z
 ---------------------------------------------------------------------
      1          6           0        3.308703   -0.387628   -0.202486
      2          6           0        2.163631   -0.186547    0.103917
      3          6           0        0.773981    0.060606    0.453274
      4          6           0        0.180338    1.356495   -0.164976
      5          6           0       -1.336795    1.176629    0.003959
      6          6           0       -1.567492   -0.335617   -0.045293
      7          7           0       -2.663199   -0.971461   -0.086618
      8          6           0       -0.216115   -1.031204   -0.020824
      9          1           0        4.321298   -0.567633   -0.466314
     10          1           0        0.695966    0.141696    1.546489
     11          1           0        0.447662    1.396730   -1.226094
     12          1           0        0.572241    2.259027    0.308777
     13          1           0       -1.928385    1.701114   -0.751913
     14          1           0       -1.666786    1.548094    0.982884
     15          1           0       -3.457598   -0.325580   -0.112531
     16          1           0        0.045004   -1.341150   -1.040331
     17          1           0       -0.224515   -1.928473    0.599937
 ---------------------------------------------------------------------

 SCF Done:  E(RB3LYP) =  -326.854556715     A.U. after    1 cycles

 The electronic state is 1-A.
 Alpha  occ. eigenvalues --  -14.30607 -10.23152 -10.21789 -10.19682 -10.19645
 Alpha  occ. eigenvalues --  -10.19092 -10.18144 -10.17237  -0.90576  -0.83873
 Alpha  occ. eigenvalues --   -0.75566  -0.72120  -0.68249  -0.60588  -0.54177
 Alpha  occ. eigenvalues --   -0.53071  -0.50285  -0.49013  -0.43652  -0.41456
 Alpha  occ. eigenvalues --   -0.40879  -0.38672  -0.37265  -0.36257  -0.34882
 Alpha  occ. eigenvalues --   -0.29275  -0.26745  -0.26485  -0.25003
 Alpha virt. eigenvalues --   -0.00158   0.05053   0.05204   0.09005   0.11241
 Alpha virt. eigenvalues --    0.12024   0.12894   0.14360   0.15487   0.16175
 Alpha virt. eigenvalues --    0.16569   0.19453   0.19987   0.22618   0.25149

 Mulliken charges:
               1
     1  C   -0.438102
     2  C    0.299212
     3  C   -0.172120
     4  C   -0.216738
     5  C   -0.312726
     6  C    0.334118
     7  N   -0.488841
     8  C   -0.259516
     9  H    0.194320
    10  H    0.108390
    11  H    0.117676
    12  H    0.111680
    13  H    0.119310
    14  H    0.125256
    15  H    0.213478
    16  H    0.133173
    17  H    0.131429
 Sum of Mulliken charges =  -0.00000

 Dipole moment (field-independent basis, Debye):
    X=              0.4451    Y=              2.1156    Z=              0.1139  Tot=              2.1650
 Quadrupole moment (field-independent basis, Debye-Ang):
   XX=            -47.3451   YY=            -49.8924   ZZ=            -46.9085
   XY=             -6.7822   XZ=             -1.2096   YZ=              0.0821

  Exact polarizability: 108.156  -2.279  66.014  -4.044   0.891  53.183
 Approx polarizability: 152.007  -1.777  95.276  -9.986   2.530  84.680

                      1                      2                      3
                      A                      A                      A
 Frequencies --     69.9622               134.7408               143.3497
 Red. masses --      3.0084                 2.3853                 3.8388
 Frc consts  --      0.0087                 0.0255                 0.0465
 IR Inten    --      1.4352                 1.3396                 0.5277

                      4                      5                      6
                      A                      A                      A
 Frequencies --    269.9271               409.3456               441.8788
 Red. masses --      2.6654                 4.1205                 2.2467
 Frc consts  --      0.1144                 0.4068                 0.2585
 IR Inten    --      0.8407                10.2133                 1.0993

                      7                      8                      9
                      A                      A                      A
 Frequencies --    493.4618               517.5042               540.4352
 Red. masses --      4.4426                 3.5719                 3.1920
 Frc consts  --      0.6374                 0.5636                 0.5493
 IR Inten    --      2.6052                 3.5539                 6.3930

                     10                     11                     12
                      A                      A                      A
 Frequencies --    576.0180               629.3395               633.6545
 Red. masses --      2.9981                 1.2055                 1.2333
 Frc consts  --      0.5861                 0.2813                 0.2918
 IR Inten    --      1.4861                41.7084                42.2635

                     13                     14                     15
                      A                      A                      A
 Frequencies --    738.2269               826.7546               861.5316
 Red. masses --      1.6868                 3.1766                 2.5463
 Frc consts  --      0.5416                 1.2793                 1.1135
 IR Inten    --      4.6767                 2.9109                 7.8669

                     16                     17                     18
                      A                      A                      A
 Frequencies --    888.1632               932.1689               983.4353
 Red. masses --      1.3363                 1.3935                 2.1466
 Frc consts  --      0.6211                 0.7134                 1.2232
 IR Inten    --     28.6092                 1.2421                 9.7222

                     19                     20                     21
                      A                      A                      A
 Frequencies --   1026.4369              1034.9021              1066.4095
 Red. masses --      1.8717                 1.9225                 4.2277
 Frc consts  --      1.1619                 1.2132                 2.8327
 IR Inten    --     17.9135                 6.3621                 3.3490

                     22                     23                     24
                      A                      A                      A
 Frequencies --   1082.8101              1154.1851              1188.5428
 Red. masses --      1.9051                 1.4177                 1.3436
 Frc consts  --      1.3161                 1.1127                 1.1183
 IR Inten    --     43.5929                 0.2835                 1.6975

                     25                     26                     27
                      A                      A                      A
 Frequencies --   1229.8298              1262.0794              1295.5280
 Red. masses --      1.4186                 1.3964                 1.2758
 Frc consts  --      1.2641                 1.3105                 1.2616
 IR Inten    --      5.1147                 0.2817                 7.8580

                     28                     29                     30
                      A                      A                      A
 Frequencies --   1308.3171              1317.2417              1350.5143
 Red. masses --      1.3404                 1.2333                 1.9365
 Frc consts  --      1.3518                 1.2608                 2.0810
 IR Inten    --      7.3483                 7.3298                64.4416

                     31                     32                     33
                      A                      A                      A
 Frequencies --   1372.2189              1462.2325              1464.0477
 Red. masses --      1.5498                 1.0813                 1.0873
 Frc consts  --      1.7193                 1.3621                 1.3732
 IR Inten    --      6.3819                 8.2546                 1.0774

                     34                     35                     36
                      A                      A                      A
 Frequencies --   1500.7158              1753.2571              2237.6930
 Red. masses --      1.0950                 9.9501                 5.9570
 Frc consts  --      1.4529                18.0205                17.5744
 IR Inten    --      2.5558                96.5997                 3.7645

                     37                     38                     39
                      A                      A                      A
 Frequencies --   3006.2196              3028.8312              3041.8751
 Red. masses --      1.0815                 1.0668                 1.0678
 Frc consts  --      5.7584                 5.7659                 5.8215
 IR Inten    --      9.8083                13.6394                 8.1773

                     40                     41                     42
                      A                      A                      A
 Frequencies --   3055.7955              3088.2330              3112.2984
 Red. masses --      1.0638                 1.0945                 1.1033
 Frc consts  --      5.8525                 6.1501                 6.2969
 IR Inten    --     19.2952                16.2858                24.9659

                     43                     44                     45
                      A                      A                      A
 Frequencies --   3121.5394              3417.5184              3505.1273
 Red. masses --      1.0956                 1.0745                 1.1617
 Frc consts  --      6.2901                 7.3939                 8.4093
 IR Inten    --      9.0292                 5.5792                73.2411

 - Thermochemistry -
 -------------------
 Temperature   298.150 Kelvin.  Pressure   1.00000 Atm.
 Atom     1 has atomic number  6 and mass  12.00000

 Molecular mass:   107.07350 amu.
 Principal axes and moments of inertia in atomic units:
                           1         2         3
     Eigenvalues --   347.752971411.587021682.24458
           X            0.99986  -0.01612  -0.00343
           Y            0.01612   0.99987  -0.00002
           Z            0.00343  -0.00003   0.99999
 This molecule is an asymmetric top.
 Rotational symmetry number  1.
 Rotational temperatures (Kelvin)      0.24907     0.06136     0.05149
 Rotational constants (GHZ):           5.18972     1.27852     1.07282
 Zero-point vibrational energy     374277.4 (Joules/Mol)
                                   89.45445 (Kcal/Mol)
 Warning -- explicit consideration of  10 degrees of freedom as
           vibrations may cause significant error
 Vibrational temperatures:    100.66   193.86   206.25   388.36   588.96
          (Kelvin)            635.77   709.98   744.57   777.57   828.76
                              905.48   911.69  1062.14  1189.52  1239.55
                             1277.87  1341.18  1414.94  1476.81  1488.99
                             1534.33  1557.92  1660.61  1710.05  1769.45
                             1815.85  1863.98  1882.38  1895.22  1943.09
                             1974.32  2103.83  2106.44  2159.20  2522.55
                             3219.54  4325.28  4357.81  4376.58  4396.61
                             4443.28  4477.90  4491.20  4917.05  5043.10

 Zero-point correction=                           0.142555 (Hartree/Particle)
 Thermal correction to Energy=                    0.150263
 Thermal correction to Enthalpy=                  0.151207
 Thermal correction to Gibbs Free Energy=         0.110336
 Sum of electronic and zero-point Energies=           -326.712002
 Sum of electronic and thermal Energies=              -326.704294
 Sum of electronic and thermal Enthalpies=            -326.703349
 Sum of electronic and thermal Free Energies=         -326.744220

                     E (Thermal)             CV                S
                      KCal/Mol        Cal/Mol-Kelvin    Cal/Mol-Kelvin
 Total                   94.292             29.311             86.020
 Electronic               0.000              0.000              0.000
 Translational            0.889              2.981             39.922
 Rotational               0.889              2.981             28.203
 Vibrational             92.514             23.350             17.895
 Vibration     1          0.598              1.968              4.154
 Vibration     2          0.613              1.919              2.877
 Vibration     3          0.616              1.910              2.759
 Vibration     4          0.674              1.729              1.597
 Vibration     5          0.774              1.450              0.929
 Vibration     6          0.802              1.379              0.821
 Vibration     7          0.849              1.265              0.675
 Vibration     8          0.873              1.211              0.616
 Vibration     9          0.896              1.161              0.564
 Vibration    10          0.932              1.083              0.493

 Optimization completed.
    -- Stationary point found.
 Normal termination of Gaussian 16 at Sun Jul  3 23:44:13 2022.
