 Gaussian 16, Revision A.03,
 Gaussian 16:  ES64L-G16RevA.03 25-Dec-2016

 -----------------------------
 # opt freq b3lyp/6-31g(2df,p)
 -----------------------------

 -------------------
 Title Card Required
 -------------------
 Symbolic Z-matrix:
 Charge =  0 Multiplicity = 1

 SCF Done:  E(RB3LYP) =  -348.868906075     A.U. after   14 cycles
 SCF Done:  E(RB3LYP) =  -348.891059867     A.U. after   12 cycles
 SCF Done:  E(RB3LYP) =  -348.893478164     A.U. after   12 cycles
 SCF Done:  E(RB3LYP) =  -348.885756478     A.U. after   14 cycles
 SCF Done:  E(RB3LYP) =  -348.892422506     A.U. after   12 cycles
 SCF Done:  E(RB3LYP) =  -348.893726062     A.U. after   11 cycles
 SCF Done:  E(RB3LYP) =  -348.893878075     A.U. after   12 cycles
 SCF Done:  E(RB3LYP) =  -348.893934223     A.U. after   11 cycles
 SCF Done:  E(RB3LYP) =  -348.894038745     A.U. after   11 cycles
 SCF Done:  E(RB3LYP) =  -348.894115460     A.U. after   10 cycles
 SCF Done:  E(RB3LYP) =  -348.894847551     A.U. after   12 cycles
 SCF Done:  E(RB3LYP) =  -348.894923006     A.U. after    9 cycles
 SCF Done:  E(RB3LYP) =  -348.894881045     A.U. after   11 cycles
 SCF Done:  E(RB3LYP) =  -348.894967627     A.U. after   11 cycles
 SCF Done:  E(RB3LYP) =  -348.894981778     A.U. after   11 cycles
 SCF Done:  E(RB3LYP) =  -348.895000551     A.U. after   10 cycles
 SCF Done:  E(RB3LYP) =  -348.895000981     A.U. after    7 cycles
 SCF Done:  E(RB3LYP) =  -348.895001048     A.U. after    7 cycles
 SCF Done:  E(RB3LYP) =  -348.895001055     A.U. after    6 cycles
 Optimization completed.
    -- Stationary point found.
 Normal termination of Gaussian 16 at Thu Aug  4 07:04:07 2022.

 ----------------------------------------------------------------------
 #N Geom=AllCheck Guess=TCheck SCRF=Check GenChk RB3LYP/6-31G(2df,p) Fr
 eq
 ----------------------------------------------------------------------

 Structure from the checkpoint file:  "CtCC1dCCCCdCC1.chk"
 -------------------
 Title Card Required
 -------------------
 Charge =  0 Multiplicity = 1

                         Standard orientation:
 ---------------------------------------------------------------------
 Center     Atomic      Atomic             Coordinates (Angstroms)
 Number     Number       Type             X           Y           Z
 ---------------------------------------------------------------------
      1          6           0       -3.471674   -0.028712    0.456981
      2          6           0       -2.304162   -0.109575    0.166845
      3          6           0       -0.927252   -0.147571   -0.190669
      4          6           0       -0.224590   -1.288841   -0.117206
      5          6           0        1.229769   -1.394320   -0.483349
      6          6           0        2.152443   -0.619731    0.475569
      7          6           0        1.968257    0.874981    0.483683
      8          6           0        0.965000    1.605155   -0.004678
      9          6           0       -0.314164    1.160959   -0.681646
     10          1           0       -4.499770    0.024134    0.716077
     11          1           0       -0.726044   -2.183900    0.238807
     12          1           0        1.389415   -1.011928   -1.501035
     13          1           0        1.531499   -2.445906   -0.495990
     14          1           0        3.196545   -0.834012    0.209330
     15          1           0        2.028356   -1.008867    1.496696
     16          1           0        2.787355    1.419278    0.951779
     17          1           0        1.057939    2.686033    0.081034
     18          1           0       -0.150088    1.087555   -1.768624
     19          1           0       -1.056962    1.953544   -0.561254
 ---------------------------------------------------------------------

 SCF Done:  E(RB3LYP) =  -348.895001055     A.U. after    1 cycles

 The electronic state is 1-A.
 Alpha  occ. eigenvalues --  -10.20363 -10.19199 -10.18901 -10.18841 -10.18623
 Alpha  occ. eigenvalues --  -10.18095 -10.17944 -10.17832 -10.17076  -0.83945
 Alpha  occ. eigenvalues --   -0.78424  -0.76237  -0.72677  -0.66420  -0.64866
 Alpha  occ. eigenvalues --   -0.56176  -0.52934  -0.50615  -0.49612  -0.46035
 Alpha  occ. eigenvalues --   -0.44312  -0.42404  -0.40895  -0.38804  -0.37668
 Alpha  occ. eigenvalues --   -0.36185  -0.33305  -0.33036  -0.30553  -0.26744
 Alpha  occ. eigenvalues --   -0.24043  -0.22262
 Alpha virt. eigenvalues --   -0.01769   0.02334   0.06147   0.08534   0.12132
 Alpha virt. eigenvalues --    0.12370   0.12853   0.13122   0.13572   0.16082
 Alpha virt. eigenvalues --    0.17518   0.18622   0.19771   0.21186   0.22497

 Mulliken charges:
               1
     1  C   -0.436479
     2  C    0.244051
     3  C    0.138018
     4  C   -0.132798
     5  C   -0.263281
     6  C   -0.236588
     7  C   -0.033123
     8  C   -0.053159
     9  C   -0.361762
    10  H    0.192277
    11  H    0.093477
    12  H    0.113743
    13  H    0.100607
    14  H    0.102571
    15  H    0.113452
    16  H    0.082780
    17  H    0.087609
    18  H    0.128370
    19  H    0.120235
 Sum of Mulliken charges =  -0.00000

 Dipole moment (field-independent basis, Debye):
    X=              0.8173    Y=             -0.1695    Z=             -0.2234  Tot=              0.8641
 Quadrupole moment (field-independent basis, Debye-Ang):
   XX=            -49.3142   YY=            -51.3332   ZZ=            -54.4864
   XY=             -1.5790   XZ=             -0.5442   YZ=             -0.6758

  Exact polarizability: 130.473 -12.995  86.803  -1.728  -2.495  59.872
 Approx polarizability: 199.628 -35.853 133.545  -4.714  -6.200  95.276

                      1                      2                      3
                      A                      A                      A
 Frequencies --     63.1661               117.4199               166.2490
 Red. masses --      2.6250                 2.7452                 3.2809
 Frc consts  --      0.0062                 0.0223                 0.0534
 IR Inten    --      0.1755                 0.2564                 0.9260

                      4                      5                      6
                      A                      A                      A
 Frequencies --    236.8967               308.1048               326.8901
 Red. masses --      2.2823                 4.0357                 3.0929
 Frc consts  --      0.0755                 0.2257                 0.1947
 IR Inten    --      0.5893                 0.9225                 0.1261

                      7                      8                      9
                      A                      A                      A
 Frequencies --    422.3464               428.1533               523.8111
 Red. masses --      2.4165                 3.8856                 4.8222
 Frc consts  --      0.2540                 0.4197                 0.7796
 IR Inten    --      0.5346                 0.0607                 2.3682

                     10                     11                     12
                      A                      A                      A
 Frequencies --    549.2449               576.5363               588.8988
 Red. masses --      3.7101                 1.5812                 1.8429
 Frc consts  --      0.6594                 0.3097                 0.3766
 IR Inten    --     15.1988                27.6569                 3.1618

                     13                     14                     15
                      A                      A                      A
 Frequencies --    633.5288               657.6809               699.6772
 Red. masses --      1.2186                 1.4772                 2.1784
 Frc consts  --      0.2882                 0.3764                 0.6283
 IR Inten    --     41.0330                14.2841                 4.3188

                     16                     17                     18
                      A                      A                      A
 Frequencies --    815.0739               874.1128               880.7139
 Red. masses --      3.5366                 2.4904                 1.7021
 Frc consts  --      1.3843                 1.1211                 0.7779
 IR Inten    --      1.9584                10.8551                 9.4397

                     19                     20                     21
                      A                      A                      A
 Frequencies --    905.1490               928.5692               963.0511
 Red. masses --      2.4860                 2.0573                 2.2091
 Frc consts  --      1.2000                 1.0451                 1.2072
 IR Inten    --      1.9997                 5.2157                 0.3578

                     22                     23                     24
                      A                      A                      A
 Frequencies --   1010.9260              1033.1112              1056.7963
 Red. masses --      1.2140                 1.9995                 2.4439
 Frc consts  --      0.7310                 1.2574                 1.6081
 IR Inten    --      0.2308                 2.9657                 0.9723

                     25                     26                     27
                      A                      A                      A
 Frequencies --   1088.6811              1146.2567              1202.9255
 Red. masses --      2.0137                 2.2268                 1.1940
 Frc consts  --      1.4062                 1.7239                 1.0180
 IR Inten    --      3.8536                 2.2921                 0.5943

                     28                     29                     30
                      A                      A                      A
 Frequencies --   1225.9536              1260.5810              1285.5382
 Red. masses --      1.1920                 1.2986                 1.1135
 Frc consts  --      1.0555                 1.2158                 1.0842
 IR Inten    --      5.7957                 2.0593                 3.8227

                     31                     32                     33
                      A                      A                      A
 Frequencies --   1338.1618              1348.9207              1379.1941
 Red. masses --      1.2457                 1.4734                 1.6875
 Frc consts  --      1.3142                 1.5796                 1.8912
 IR Inten    --      0.7608                 1.9252                 0.4205

                     34                     35                     36
                      A                      A                      A
 Frequencies --   1391.0949              1428.6918              1469.2237
 Red. masses --      1.4781                 1.4245                 1.0861
 Frc consts  --      1.6852                 1.7131                 1.3813
 IR Inten    --      3.5360                 2.1575                 1.0641

                     37                     38                     39
                      A                      A                      A
 Frequencies --   1473.6696              1489.5777              1693.2068
 Red. masses --      1.0842                 1.0966                 7.0507
 Frc consts  --      1.3873                 1.4336                11.9097
 IR Inten    --      4.9636                 5.3391                 1.0265

                     40                     41                     42
                      A                      A                      A
 Frequencies --   1736.4154              2214.0487              2982.4706
 Red. masses --      6.8384                 6.1340                 1.0729
 Frc consts  --     12.1482                17.7161                 5.6227
 IR Inten    --      3.9118                 3.8072                19.6803

                     43                     44                     45
                      A                      A                      A
 Frequencies --   3000.3061              3010.1854              3030.8705
 Red. masses --      1.0632                 1.0685                 1.0950
 Frc consts  --      5.6390                 5.7043                 5.9267
 IR Inten    --     34.3218                13.8896                46.5592

                     46                     47                     48
                      A                      A                      A
 Frequencies --   3078.0525              3085.4122              3123.4342
 Red. masses --      1.0946                 1.0870                 1.0831
 Frc consts  --      6.1100                 6.0967                 6.2256
 IR Inten    --     33.7307                 8.0587                 9.6058

                     49                     50                     51
                      A                      A                      A
 Frequencies --   3149.6314              3171.8050              3504.3713
 Red. masses --      1.0937                 1.0902                 1.1572
 Frc consts  --      6.3923                 6.4621                 8.3728
 IR Inten    --     43.5625                11.4729                84.5253

 - Thermochemistry -
 -------------------
 Temperature   298.150 Kelvin.  Pressure   1.00000 Atm.
 Atom     1 has atomic number  6 and mass  12.00000

 Molecular mass:   118.07825 amu.
 Principal axes and moments of inertia in atomic units:
                           1         2         3
     Eigenvalues --   569.823521530.429791906.61405
           X            0.99990  -0.01410   0.00282
           Y            0.01413   0.99986  -0.00864
           Z           -0.00270   0.00867   0.99996
 This molecule is an asymmetric top.
 Rotational symmetry number  1.
 Warning -- assumption of classical behavior for rotation
           may cause significant error
 Rotational temperatures (Kelvin)      0.15200     0.05659     0.04543
 Rotational constants (GHZ):           3.16719     1.17924     0.94657
 Zero-point vibrational energy     419140.3 (Joules/Mol)
                                  100.17694 (Kcal/Mol)
 Warning -- explicit consideration of  12 degrees of freedom as
           vibrations may cause significant error
 Vibrational temperatures:     90.88   168.94   239.20   340.84   443.29
          (Kelvin)            470.32   607.66   616.02   753.65   790.24
                              829.51   847.29   911.51   946.26  1006.68
                             1172.71  1257.65  1267.15  1302.31  1336.00
                             1385.62  1454.50  1486.42  1520.49  1566.37
                             1649.21  1730.74  1763.87  1813.69  1849.60
                             1925.32  1940.80  1984.35  2001.48  2055.57
                             2113.89  2120.28  2143.17  2436.15  2498.31
                             3185.52  4291.11  4316.77  4330.99  4360.75
                             4428.63  4439.22  4493.93  4531.62  4563.52
                             5042.01

 Zero-point correction=                           0.159642 (Hartree/Particle)
 Thermal correction to Energy=                    0.168195
 Thermal correction to Enthalpy=                  0.169139
 Thermal correction to Gibbs Free Energy=         0.126376
 Sum of electronic and zero-point Energies=           -348.735359
 Sum of electronic and thermal Energies=              -348.726807
 Sum of electronic and thermal Enthalpies=            -348.725862
 Sum of electronic and thermal Free Energies=         -348.768625

                     E (Thermal)             CV                S
                      KCal/Mol        Cal/Mol-Kelvin    Cal/Mol-Kelvin
 Total                  105.544             33.060             90.002
 Electronic               0.000              0.000              0.000
 Translational            0.889              2.981             40.213
 Rotational               0.889              2.981             28.899
 Vibrational            103.766             27.098             20.890
 Vibration     1          0.597              1.972              4.356
 Vibration     2          0.608              1.935              3.142
 Vibration     3          0.624              1.884              2.477
 Vibration     4          0.656              1.784              1.826
 Vibration     5          0.698              1.658              1.372
 Vibration     6          0.711              1.622              1.275
 Vibration     7          0.785              1.422              0.884
 Vibration     8          0.790              1.409              0.865
 Vibration     9          0.879              1.197              0.601
 Vibration    10          0.905              1.141              0.546
 Vibration    11          0.933              1.082              0.492
 Vibration    12          0.946              1.055              0.469

 Optimization completed.
    -- Stationary point found.
 Normal termination of Gaussian 16 at Thu Aug  4 07:34:45 2022.
