 Gaussian 16, Revision A.03,
 Gaussian 16:  ES64L-G16RevA.03 25-Dec-2016

 -----------------------------
 # opt freq b3lyp/6-31g(2df,p)
 -----------------------------

 -------------------
 Title Card Required
 -------------------
 Symbolic Z-matrix:
 Charge =  0 Multiplicity = 1

 SCF Done:  E(RB3LYP) =  -360.278405338     A.U. after   17 cycles
 SCF Done:  E(RB3LYP) =  -360.307676606     A.U. after   13 cycles
 SCF Done:  E(RB3LYP) =  -360.307461341     A.U. after   15 cycles
 SCF Done:  E(RB3LYP) =  -360.309823188     A.U. after   13 cycles
 SCF Done:  E(RB3LYP) =  -360.311095232     A.U. after   12 cycles
 SCF Done:  E(RB3LYP) =  -360.309784285     A.U. after   12 cycles
 SCF Done:  E(RB3LYP) =  -360.311224279     A.U. after   11 cycles
 SCF Done:  E(RB3LYP) =  -360.311229897     A.U. after    9 cycles
 SCF Done:  E(RB3LYP) =  -360.311199014     A.U. after   10 cycles
 SCF Done:  E(RB3LYP) =  -360.311230308     A.U. after   10 cycles
 SCF Done:  E(RB3LYP) =  -360.311231421     A.U. after    9 cycles
 Optimization completed.
    -- Stationary point found.
 Normal termination of Gaussian 16 at Sun Jul  3 15:54:33 2022.

 ----------------------------------------------------------------------
 #N Geom=AllCheck Guess=TCheck SCRF=Check GenChk RB3LYP/6-31G(2df,p) Fr
 eq
 ----------------------------------------------------------------------

 Structure from the checkpoint file:  "CtCC1dCCpdOpCdN1.chk"
 -------------------
 Title Card Required
 -------------------
 Charge =  0 Multiplicity = 1

                         Standard orientation:
 ---------------------------------------------------------------------
 Center     Atomic      Atomic             Coordinates (Angstroms)
 Number     Number       Type             X           Y           Z
 ---------------------------------------------------------------------
      1          6           0       -3.281346   -0.267003   -0.000044
      2          6           0       -2.080316   -0.168298    0.000037
      3          6           0       -0.680778   -0.032520    0.000008
      4          6           0        0.267309   -0.989238    0.000019
      5          6           0        1.568694   -0.281006   -0.000003
      6          8           0        2.694288   -0.713278   -0.000018
      7          6           0        1.146181    1.195102   -0.000005
      8          7           0       -0.118783    1.336064    0.000006
      9          1           0       -4.339936   -0.359109   -0.000009
     10          1           0        0.138884   -2.059487    0.000028
     11          1           0        1.839766    2.030145    0.000005
 ---------------------------------------------------------------------

 SCF Done:  E(RB3LYP) =  -360.311231421     A.U. after    1 cycles

 The electronic state is 1-A.
 Alpha  occ. eigenvalues --  -19.16491 -14.35968 -10.29153 -10.26743 -10.24702
 Alpha  occ. eigenvalues --  -10.21388 -10.21116 -10.20900  -1.06902  -0.97361
 Alpha  occ. eigenvalues --   -0.81091  -0.76853  -0.70839  -0.61540  -0.57975
 Alpha  occ. eigenvalues --   -0.54630  -0.51438  -0.45516  -0.45049  -0.44860
 Alpha  occ. eigenvalues --   -0.44031  -0.38201  -0.32580  -0.32390  -0.30490
 Alpha  occ. eigenvalues --   -0.26008  -0.25993
 Alpha virt. eigenvalues --   -0.12600  -0.00902   0.02034   0.06578   0.10531
 Alpha virt. eigenvalues --    0.11694   0.12298   0.13776   0.20025   0.20846
 Alpha virt. eigenvalues --    0.23315   0.27104   0.28535   0.34691   0.37663

 Mulliken charges:
               1
     1  C   -0.370798
     2  C    0.278625
     3  C    0.180898
     4  C   -0.347811
     5  C    0.385810
     6  O   -0.288689
     7  C   -0.103251
     8  N   -0.231943
     9  H    0.212917
    10  H    0.139025
    11  H    0.145216
 Sum of Mulliken charges =  -0.00000

 Dipole moment (field-independent basis, Debye):
    X=             -1.9935    Y=             -0.4333    Z=              0.0000  Tot=              2.0400
 Quadrupole moment (field-independent basis, Debye-Ang):
   XX=            -40.6941   YY=            -44.2875   ZZ=            -44.0552
   XY=              6.2482   XZ=              0.0001   YZ=             -0.0001

  Exact polarizability: 127.236  -2.515  55.925   0.001  -0.000  30.391
 Approx polarizability: 246.429 -24.323  89.325   0.004  -0.000  48.682

                      1                      2                      3
                      A                      A                      A
 Frequencies --    113.1169               152.0680               250.4197
 Red. masses --      5.6982                 4.8092                 6.3620
 Frc consts  --      0.0430                 0.0655                 0.2351
 IR Inten    --      0.0418                 0.8052                18.4038

                      4                      5                      6
                      A                      A                      A
 Frequencies --    382.0655               423.2247               524.9343
 Red. masses --      7.5218                 7.2727                 8.4195
 Frc consts  --      0.6469                 0.7675                 1.3669
 IR Inten    --      1.7396                11.1470                 1.4280

                      7                      8                      9
                      A                      A                      A
 Frequencies --    548.8851               632.4378               651.1842
 Red. masses --      5.8042                 2.4220                 1.3050
 Frc consts  --      1.0303                 0.5708                 0.3260
 IR Inten    --      0.8186                 5.0309                35.7218

                     10                     11                     12
                      A                      A                      A
 Frequencies --    654.7857               666.7326               751.4466
 Red. masses --      1.3298                 5.0984                 5.7203
 Frc consts  --      0.3359                 1.3353                 1.9031
 IR Inten    --     26.5525                 7.7478                 2.7443

                     13                     14                     15
                      A                      A                      A
 Frequencies --    803.7105               844.6675               896.9095
 Red. masses --      1.2437                 5.8340                 3.8021
 Frc consts  --      0.4733                 2.4524                 1.8021
 IR Inten    --     12.8837                15.9121                17.6590

                     16                     17                     18
                      A                      A                      A
 Frequencies --    931.9439              1078.3658              1158.2707
 Red. masses --      1.7284                 7.7279                 1.5651
 Frc consts  --      0.8845                 5.2947                 1.2371
 IR Inten    --     25.1613                 6.7082                14.7301

                     19                     20                     21
                      A                      A                      A
 Frequencies --   1253.5864              1273.6709              1621.8787
 Red. masses --      3.9568                 1.4980                 8.4282
 Frc consts  --      3.6635                 1.4317                13.0623
 IR Inten    --    133.2621                 0.2352                67.3862

                     22                     23                     24
                      A                      A                      A
 Frequencies --   1670.6900              1818.1913              2223.3897
 Red. masses --      9.8612                12.3224                 6.1514
 Frc consts  --     16.2170                24.0008                17.9165
 IR Inten    --     45.8226               266.7025                49.3740

                     25                     26                     27
                      A                      A                      A
 Frequencies --   3193.1214              3272.2774              3498.3949
 Red. masses --      1.0963                 1.0983                 1.1590
 Frc consts  --      6.5860                 6.9288                 8.3571
 IR Inten    --      7.0636                 1.1579                75.3067

 - Thermochemistry -
 -------------------
 Temperature   298.150 Kelvin.  Pressure   1.00000 Atm.
 Atom     1 has atomic number  6 and mass  12.00000

 Molecular mass:   105.02146 amu.
 Principal axes and moments of inertia in atomic units:
                           1         2         3
     Eigenvalues --   259.424891327.023411586.44831
           X            0.99986   0.01662   0.00000
           Y           -0.01662   0.99986  -0.00000
           Z           -0.00000   0.00000   1.00000
 This molecule is an asymmetric top.
 Rotational symmetry number  1.
 Rotational temperatures (Kelvin)      0.33387     0.06527     0.05460
 Rotational constants (GHZ):           6.95670     1.35999     1.13760
 Zero-point vibrational energy     187158.0 (Joules/Mol)
                                   44.73183 (Kcal/Mol)
 Warning -- explicit consideration of   7 degrees of freedom as
           vibrations may cause significant error
 Vibrational temperatures:    162.75   218.79   360.30   549.71   608.93
          (Kelvin)            755.26   789.72   909.94   936.91   942.09
                              959.28  1081.16  1156.36  1215.29  1290.45
                             1340.86  1551.53  1666.49  1803.63  1832.53
                             2333.52  2403.75  2615.97  3198.96  4594.19
                             4708.08  5033.41

 Zero-point correction=                           0.071285 (Hartree/Particle)
 Thermal correction to Energy=                    0.077920
 Thermal correction to Enthalpy=                  0.078864
 Thermal correction to Gibbs Free Energy=         0.040439
 Sum of electronic and zero-point Energies=           -360.239947
 Sum of electronic and thermal Energies=              -360.233312
 Sum of electronic and thermal Enthalpies=            -360.232368
 Sum of electronic and thermal Free Energies=         -360.270792

                     E (Thermal)             CV                S
                      KCal/Mol        Cal/Mol-Kelvin    Cal/Mol-Kelvin
 Total                   48.895             24.435             80.872
 Electronic               0.000              0.000              0.000
 Translational            0.889              2.981             39.864
 Rotational               0.889              2.981             27.793
 Vibrational             47.118             18.474             13.215
 Vibration     1          0.607              1.939              3.215
 Vibration     2          0.619              1.900              2.646
 Vibration     3          0.663              1.762              1.728
 Vibration     4          0.752              1.508              1.031
 Vibration     5          0.785              1.420              0.881
 Vibration     6          0.880              1.195              0.599
 Vibration     7          0.904              1.142              0.546

 Optimization completed.
    -- Stationary point found.
 Normal termination of Gaussian 16 at Sun Jul  3 16:07:56 2022.
