 Gaussian 16, Revision A.03,
 Gaussian 16:  ES64L-G16RevA.03 25-Dec-2016

 -----------------------------
 # opt freq b3lyp/6-31g(2df,p)
 -----------------------------

 -------------------
 Title Card Required
 -------------------
 Symbolic Z-matrix:
 Charge =  0 Multiplicity = 1

 SCF Done:  E(RB3LYP) =  -270.201697587     A.U. after   14 cycles
 SCF Done:  E(RB3LYP) =  -270.223863149     A.U. after   13 cycles
 SCF Done:  E(RB3LYP) =  -270.224102839     A.U. after   13 cycles
 SCF Done:  E(RB3LYP) =  -270.214142682     A.U. after   14 cycles
 SCF Done:  E(RB3LYP) =  -270.223588371     A.U. after   13 cycles
 SCF Done:  E(RB3LYP) =  -270.224462524     A.U. after   10 cycles
 SCF Done:  E(RB3LYP) =  -270.224537794     A.U. after   11 cycles
 SCF Done:  E(RB3LYP) =  -270.224297395     A.U. after   12 cycles
 SCF Done:  E(RB3LYP) =  -270.224648643     A.U. after   11 cycles
 SCF Done:  E(RB3LYP) =  -270.224660821     A.U. after   11 cycles
 SCF Done:  E(RB3LYP) =  -270.224703249     A.U. after   10 cycles
 SCF Done:  E(RB3LYP) =  -270.224703907     A.U. after    8 cycles
 SCF Done:  E(RB3LYP) =  -270.224704150     A.U. after    8 cycles
 Optimization completed.
    -- Stationary point found.
 Normal termination of Gaussian 16 at Sun Jul  3 22:32:44 2022.

 ----------------------------------------------------------------------
 #N Geom=AllCheck Guess=TCheck SCRF=Check GenChk RB3LYP/6-31G(2df,p) Fr
 eq
 ----------------------------------------------------------------------

 Structure from the checkpoint file:  "CtCCpdCpCtCC.chk"
 -------------------
 Title Card Required
 -------------------
 Charge =  0 Multiplicity = 1

                         Standard orientation:
 ---------------------------------------------------------------------
 Center     Atomic      Atomic             Coordinates (Angstroms)
 Number     Number       Type             X           Y           Z
 ---------------------------------------------------------------------
      1          6           0       -2.470920   -1.525178   -0.000457
      2          6           0       -1.720382   -0.584488    0.000215
      3          6           0       -0.812427    0.522103    0.000100
      4          6           0       -1.259928    1.792392    0.000013
      5          6           0        0.580896    0.204976   -0.000040
      6          6           0        1.751011   -0.086773   -0.000238
      7          6           0        3.162414   -0.436266   -0.000012
      8          1           0       -3.135457   -2.353310    0.001429
      9          1           0       -2.321088    2.007759    0.000043
     10          1           0       -0.567173    2.624629   -0.000069
     11          1           0        3.403708   -1.106167   -0.832802
     12          1           0        3.442708   -0.947654    0.927713
     13          1           0        3.793318    0.454150   -0.093793
 ---------------------------------------------------------------------

 SCF Done:  E(RB3LYP) =  -270.224704150     A.U. after    1 cycles

 The electronic state is 1-A.
 Alpha  occ. eigenvalues --  -10.23213 -10.20842 -10.19389 -10.18700 -10.18489
 Alpha  occ. eigenvalues --  -10.17951 -10.17676  -0.82826  -0.77514  -0.73319
 Alpha  occ. eigenvalues --   -0.69853  -0.62569  -0.54977  -0.50419  -0.46578
 Alpha  occ. eigenvalues --   -0.45221  -0.43122  -0.43033  -0.39560  -0.35864
 Alpha  occ. eigenvalues --   -0.28107  -0.27214  -0.25775  -0.22774
 Alpha virt. eigenvalues --   -0.03956   0.03405   0.06546   0.08045   0.10779
 Alpha virt. eigenvalues --    0.12585   0.14445   0.14982   0.16092   0.18658
 Alpha virt. eigenvalues --    0.20398   0.20631   0.23738   0.32330   0.34388

 Mulliken charges:
               1
     1  C   -0.487669
     2  C    0.292429
     3  C    0.054645
     4  C   -0.358098
     5  C    0.031511
     6  C    0.057387
     7  C   -0.501541
     8  H    0.200277
     9  H    0.126085
    10  H    0.124140
    11  H    0.154441
    12  H    0.154320
    13  H    0.152073
 Sum of Mulliken charges =  -0.00000

 Dipole moment (field-independent basis, Debye):
    X=              0.9278    Y=              0.0023    Z=              0.0029  Tot=              0.9278
 Quadrupole moment (field-independent basis, Debye-Ang):
   XX=            -31.0387   YY=            -36.0334   ZZ=            -42.4955
   XY=              0.5875   XZ=             -0.0028   YZ=             -0.0045

  Exact polarizability: 107.957  -1.177  83.177   0.043  -0.021  35.839
 Approx polarizability: 158.345  -5.057 145.709   0.094  -0.031  53.164

 ******    1 imaginary frequencies (negative Signs) ******

                      1                      2                      3
                      A                      A                      A
 Frequencies --    -16.5680                89.2720               148.2698
 Red. masses --      1.0319                 3.8448                 3.6396
 Frc consts  --      0.0002                 0.0181                 0.0471
 IR Inten    --      0.0026                 1.7013                 5.6733

                      4                      5                      6
                      A                      A                      A
 Frequencies --    205.7200               281.9594               315.4767
 Red. masses --      3.5047                 4.0201                 3.4898
 Frc consts  --      0.0874                 0.1883                 0.2046
 IR Inten    --      0.5354                 0.1451                 3.7700

                      7                      8                      9
                      A                      A                      A
 Frequencies --    383.7265               467.4952               552.9047
 Red. masses --      4.3179                 4.4676                 6.9072
 Frc consts  --      0.3746                 0.5753                 1.2441
 IR Inten    --      1.0778                 4.4474                 0.6018

                     10                     11                     12
                      A                      A                      A
 Frequencies --    594.7015               634.1609               663.9212
 Red. masses --      1.4376                 1.2891                 3.8167
 Frc consts  --      0.2996                 0.3054                 0.9912
 IR Inten    --     36.3597                34.4539                 3.5626

                     13                     14                     15
                      A                      A                      A
 Frequencies --    684.7691               734.1778               901.9030
 Red. masses --      4.3156                 1.1244                 2.3695
 Frc consts  --      1.1923                 0.3571                 1.1356
 IR Inten    --      9.3384                 0.1633                 5.7522

                     16                     17                     18
                      A                      A                      A
 Frequencies --    925.6669              1048.0430              1052.7144
 Red. masses --      1.3815                 1.3991                 1.4027
 Frc consts  --      0.6975                 0.9054                 0.9159
 IR Inten    --     35.4173                 1.4241                 2.7901

                     19                     20                     21
                      A                      A                      A
 Frequencies --   1079.7193              1313.4652              1412.4065
 Red. masses --      2.4977                 4.6030                 1.2408
 Frc consts  --      1.7156                 4.6787                 1.4584
 IR Inten    --      2.8656                40.0391                 9.0565

                     22                     23                     24
                      A                      A                      A
 Frequencies --   1429.2611              1475.1367              1475.3451
 Red. masses --      1.2700                 1.0397                 1.0392
 Frc consts  --      1.5285                 1.3329                 1.3328
 IR Inten    --      2.0789                 5.7132                 6.5559

                     25                     26                     27
                      A                      A                      A
 Frequencies --   1636.7303              2228.3687              2356.9483
 Red. masses --      4.5965                 6.0575                11.8777
 Frc consts  --      7.2549                17.7221                38.8760
 IR Inten    --     17.8650                 1.2552                27.9209

                     28                     29                     30
                      A                      A                      A
 Frequencies --   3026.8333              3086.9175              3091.4356
 Red. masses --      1.0347                 1.1000                 1.1003
 Frc consts  --      5.5851                 6.1755                 6.1954
 IR Inten    --     28.6267                 8.2184                 8.4286

                     31                     32                     33
                      A                      A                      A
 Frequencies --   3169.3284              3266.7870              3503.8167
 Red. masses --      1.0589                 1.1175                 1.1598
 Frc consts  --      6.2667                 7.0265                 8.3888
 IR Inten    --      0.2680                 2.4388                71.5387

 - Thermochemistry -
 -------------------
 Temperature   298.150 Kelvin.  Pressure   1.00000 Atm.
 Atom     1 has atomic number  6 and mass  12.00000

 Molecular mass:    90.04695 amu.
 Principal axes and moments of inertia in atomic units:
                           1         2         3
     Eigenvalues --   346.946561256.277061591.97302
           X            0.99988  -0.01574  -0.00000
           Y            0.01574   0.99988  -0.00004
           Z            0.00000   0.00004   1.00000
 This molecule is an asymmetric top.
 Rotational symmetry number  1.
 Rotational temperatures (Kelvin)      0.24965     0.06894     0.05441
 Rotational constants (GHZ):           5.20178     1.43658     1.13365
    1 imaginary frequencies ignored.
 Zero-point vibrational energy     258617.0 (Joules/Mol)
                                   61.81094 (Kcal/Mol)
 Warning -- explicit consideration of   9 degrees of freedom as
           vibrations may cause significant error
 Vibrational temperatures:    128.44   213.33   295.99   405.68   453.90
          (Kelvin)            552.10   672.62   795.51   855.64   912.42
                              955.23   985.23  1056.32  1297.64  1331.83
                             1507.90  1514.62  1553.48  1889.78  2032.14
                             2056.39  2122.39  2122.69  2354.89  3206.13
                             3391.12  4354.94  4441.39  4447.89  4559.96
                             4700.18  5041.21

 Zero-point correction=                           0.098502 (Hartree/Particle)
 Thermal correction to Energy=                    0.105775
 Thermal correction to Enthalpy=                  0.106719
 Thermal correction to Gibbs Free Energy=         0.067081
 Sum of electronic and zero-point Energies=           -270.126202
 Sum of electronic and thermal Energies=              -270.118929
 Sum of electronic and thermal Enthalpies=            -270.117985
 Sum of electronic and thermal Free Energies=         -270.157623

                     E (Thermal)             CV                S
                      KCal/Mol        Cal/Mol-Kelvin    Cal/Mol-Kelvin
 Total                   66.375             25.962             83.425
 Electronic               0.000              0.000              0.000
 Translational            0.889              2.981             39.405
 Rotational               0.889              2.981             28.030
 Vibrational             64.597             20.000             15.989
 Vibration     1          0.602              1.957              3.676
 Vibration     2          0.618              1.905              2.694
 Vibration     3          0.640              1.832              2.081
 Vibration     4          0.681              1.707              1.522
 Vibration     5          0.703              1.644              1.333
 Vibration     6          0.753              1.505              1.024
 Vibration     7          0.825              1.322              0.745
 Vibration     8          0.908              1.133              0.538
 Vibration     9          0.952              1.043              0.459

                           ! Non-Optimized Parameters !
 Normal termination of Gaussian 16 at Sun Jul  3 22:44:00 2022.
