 Gaussian 16, Revision A.03,
 Gaussian 16:  ES64L-G16RevA.03 25-Dec-2016

 -----------------------------
 # opt freq b3lyp/6-31g(2df,p)
 -----------------------------

 -------------------
 Title Card Required
 -------------------
 Symbolic Z-matrix:
 Charge =  0 Multiplicity = 1

 SCF Done:  E(RB3LYP) =  -352.543506278     A.U. after   13 cycles
 SCF Done:  E(RB3LYP) =  -352.564452988     A.U. after   12 cycles
 SCF Done:  E(RB3LYP) =  -352.564401284     A.U. after   13 cycles
 SCF Done:  E(RB3LYP) =  -352.563546316     A.U. after   12 cycles
 SCF Done:  E(RB3LYP) =  -352.562309806     A.U. after   11 cycles
 SCF Done:  E(RB3LYP) =  -352.564854402     A.U. after    8 cycles
 SCF Done:  E(RB3LYP) =  -352.565577469     A.U. after   11 cycles
 SCF Done:  E(RB3LYP) =  -352.564494598     A.U. after   11 cycles
 SCF Done:  E(RB3LYP) =  -352.565800261     A.U. after   10 cycles
 SCF Done:  E(RB3LYP) =  -352.565814571     A.U. after    9 cycles
 SCF Done:  E(RB3LYP) =  -352.565932178     A.U. after    9 cycles
 SCF Done:  E(RB3LYP) =  -352.565915754     A.U. after    9 cycles
 SCF Done:  E(RB3LYP) =  -352.565931019     A.U. after    9 cycles
 SCF Done:  E(RB3LYP) =  -352.565934242     A.U. after    7 cycles
 SCF Done:  E(RB3LYP) =  -352.565936864     A.U. after    7 cycles
 SCF Done:  E(RB3LYP) =  -352.565936912     A.U. after    6 cycles
 SCF Done:  E(RB3LYP) =  -352.565936925     A.U. after    6 cycles
 Optimization completed.
    -- Stationary point found.
 Normal termination of Gaussian 16 at Thu Aug  4 00:30:58 2022.

 ----------------------------------------------------------------------
 #N Geom=AllCheck Guess=TCheck SCRF=Check GenChk RB3LYP/6-31G(2df,p) Fr
 eq
 ----------------------------------------------------------------------

 Structure from the checkpoint file:  "CtCCCpCpCCCC.chk"
 -------------------
 Title Card Required
 -------------------
 Charge =  0 Multiplicity = 1

                         Standard orientation:
 ---------------------------------------------------------------------
 Center     Atomic      Atomic             Coordinates (Angstroms)
 Number     Number       Type             X           Y           Z
 ---------------------------------------------------------------------
      1          6           0       -4.373207   -0.031531   -0.569006
      2          6           0       -3.305942   -0.387121   -0.144067
      3          6           0       -1.999802   -0.806453    0.349738
      4          6           0       -0.832181    0.109004   -0.100387
      5          6           0       -1.016644    1.534021    0.435324
      6          6           0        0.505951   -0.520653    0.325719
      7          6           0        1.755781    0.187611   -0.209804
      8          6           0        3.057778   -0.535576    0.154435
      9          6           0        4.308144    0.171012   -0.375929
     10          1           0       -5.320763    0.274320   -0.937254
     11          1           0       -1.803086   -1.832421    0.012851
     12          1           0       -2.020808   -0.846645    1.447864
     13          1           0       -0.857801    0.147253   -1.197963
     14          1           0       -0.945318    1.550073    1.530090
     15          1           0       -1.997763    1.928439    0.157185
     16          1           0       -0.257334    2.214727    0.041337
     17          1           0        0.525764   -1.566245   -0.011959
     18          1           0        0.551254   -0.557448    1.424205
     19          1           0        1.800647    1.214607    0.173596
     20          1           0        1.683746    0.274132   -1.303311
     21          1           0        3.023050   -1.561721   -0.235142
     22          1           0        3.125290   -0.629797    1.246504
     23          1           0        4.284724    0.250093   -1.468608
     24          1           0        5.219935   -0.368579   -0.101185
     25          1           0        4.389196    1.187325    0.025655
 ---------------------------------------------------------------------

 SCF Done:  E(RB3LYP) =  -352.565936925     A.U. after    1 cycles

 The electronic state is 1-A.
 Alpha  occ. eigenvalues --  -10.20191 -10.19103 -10.17823 -10.17820 -10.17668
 Alpha  occ. eigenvalues --  -10.17642 -10.17146 -10.16876 -10.16509  -0.82331
 Alpha  occ. eigenvalues --   -0.78597  -0.74625  -0.70672  -0.68592  -0.63773
 Alpha  occ. eigenvalues --   -0.58082  -0.56247  -0.52019  -0.47712  -0.46045
 Alpha  occ. eigenvalues --   -0.45215  -0.43821  -0.41448  -0.40293  -0.39845
 Alpha  occ. eigenvalues --   -0.38277  -0.35880  -0.35582  -0.34027  -0.32836
 Alpha  occ. eigenvalues --   -0.32259  -0.31912  -0.31283  -0.25834  -0.25785
 Alpha virt. eigenvalues --    0.05578   0.06274   0.08905   0.10285   0.11499
 Alpha virt. eigenvalues --    0.12185   0.13146   0.13839   0.15220   0.15719
 Alpha virt. eigenvalues --    0.16622   0.17158   0.17753   0.18519   0.18941

 Mulliken charges:
               1
     1  C   -0.443638
     2  C    0.300897
     3  C   -0.363351
     4  C    0.026728
     5  C   -0.391490
     6  C   -0.178251
     7  C   -0.178167
     8  C   -0.161067
     9  C   -0.380963
    10  H    0.191536
    11  H    0.124458
    12  H    0.124793
    13  H    0.082328
    14  H    0.108182
    15  H    0.129494
    16  H    0.115483
    17  H    0.088160
    18  H    0.090243
    19  H    0.097596
    20  H    0.091832
    21  H    0.093660
    22  H    0.094062
    23  H    0.113382
    24  H    0.110799
    25  H    0.113295
 Sum of Mulliken charges =  -0.00000

 Dipole moment (field-independent basis, Debye):
    X=              0.7639    Y=             -0.1040    Z=              0.1196  Tot=              0.7802
 Quadrupole moment (field-independent basis, Debye-Ang):
   XX=            -58.9264   YY=            -58.2140   ZZ=            -57.7018
   XY=             -1.3454   XZ=              1.1568   YZ=             -0.3317

  Exact polarizability: 129.254  -4.379  81.963   6.630  -1.820  77.831
 Approx polarizability: 157.041 -11.241 121.241  14.534  -4.176 122.456

                      1                      2                      3
                      A                      A                      A
 Frequencies --     47.9191                62.6694                88.0193
 Red. masses --      3.3890                 1.7017                 3.1897
 Frc consts  --      0.0046                 0.0039                 0.0146
 IR Inten    --      0.0592                 0.0173                 0.0281

                      4                      5                      6
                      A                      A                      A
 Frequencies --    105.0747               140.2800               170.6743
 Red. masses --      2.6922                 1.9169                 3.1743
 Frc consts  --      0.0175                 0.0222                 0.0545
 IR Inten    --      0.0182                 0.0081                 0.0894

                      7                      8                      9
                      A                      A                      A
 Frequencies --    239.5611               248.1997               267.6772
 Red. masses --      1.0970                 1.1674                 3.4057
 Frc consts  --      0.0371                 0.0424                 0.1438
 IR Inten    --      0.0634                 0.0187                 0.2249

                     10                     11                     12
                      A                      A                      A
 Frequencies --    299.7157               351.1990               375.7327
 Red. masses --      2.6230                 2.9706                 3.2249
 Frc consts  --      0.1388                 0.2159                 0.2682
 IR Inten    --      0.0979                 2.8677                 1.6626

                     13                     14                     15
                      A                      A                      A
 Frequencies --    409.6788               464.1438               559.8137
 Red. masses --      2.2340                 2.5986                 3.7194
 Frc consts  --      0.2209                 0.3298                 0.6868
 IR Inten    --      0.7136                 0.2998                 1.4606

                     16                     17                     18
                      A                      A                      A
 Frequencies --    612.0318               633.8577               735.7838
 Red. masses --      1.2005                 1.2150                 1.0824
 Frc consts  --      0.2650                 0.2876                 0.3453
 IR Inten    --     43.5641                42.7263                 3.1290

                     19                     20                     21
                      A                      A                      A
 Frequencies --    787.1199               840.5238               885.7527
 Red. masses --      1.2344                 2.5373                 1.5214
 Frc consts  --      0.4506                 1.0562                 0.7032
 IR Inten    --      0.2261                 0.9813                 1.0112

                     22                     23                     24
                      A                      A                      A
 Frequencies --    906.3896               917.7893               924.1122
 Red. masses --      1.6925                 1.3432                 2.4210
 Frc consts  --      0.8192                 0.6666                 1.2181
 IR Inten    --      1.9802                 1.1622                 0.5067

                     25                     26                     27
                      A                      A                      A
 Frequencies --    981.4433              1024.0223              1037.0405
 Red. masses --      2.4153                 1.6633                 1.9246
 Frc consts  --      1.3707                 1.0277                 1.2195
 IR Inten    --      2.0461                 0.4396                 0.1154

                     28                     29                     30
                      A                      A                      A
 Frequencies --   1069.7367              1078.9866              1129.1245
 Red. masses --      2.3670                 2.3020                 1.6242
 Frc consts  --      1.5959                 1.5790                 1.2200
 IR Inten    --      0.2213                 0.5480                 4.6919

                     31                     32                     33
                      A                      A                      A
 Frequencies --   1143.8202              1184.1477              1230.9355
 Red. masses --      2.6222                 1.7563                 1.4338
 Frc consts  --      2.0213                 1.4509                 1.2800
 IR Inten    --      0.7455                 8.7347                 4.1411

                     34                     35                     36
                      A                      A                      A
 Frequencies --   1261.7953              1271.9876              1308.8375
 Red. masses --      1.3278                 1.2283                 1.2858
 Frc consts  --      1.2456                 1.1709                 1.2977
 IR Inten    --      0.3346                 2.0484                 1.1937

                     37                     38                     39
                      A                      A                      A
 Frequencies --   1320.5789              1333.3660              1356.3149
 Red. masses --      1.2149                 1.0688                 1.3570
 Frc consts  --      1.2483                 1.1195                 1.4707
 IR Inten    --      0.1588                 0.3352                 3.1096

                     40                     41                     42
                      A                      A                      A
 Frequencies --   1377.9017              1381.2207              1399.9028
 Red. masses --      1.3394                 1.4469                 1.5513
 Frc consts  --      1.4983                 1.6264                 1.7912
 IR Inten    --      2.8195                 1.6550                 0.9217

                     43                     44                     45
                      A                      A                      A
 Frequencies --   1412.2395              1415.3755              1467.1436
 Red. masses --      1.2449                 1.2844                 1.0903
 Frc consts  --      1.4628                 1.5160                 1.3827
 IR Inten    --      2.3116                 5.7936                 1.7280

                     46                     47                     48
                      A                      A                      A
 Frequencies --   1481.7877              1486.1866              1498.3993
 Red. masses --      1.0780                 1.0668                 1.0553
 Frc consts  --      1.3945                 1.3883                 1.3960
 IR Inten    --      0.1677                 0.5320                 0.9498

                     49                     50                     51
                      A                      A                      A
 Frequencies --   1499.2390              1499.8711              1506.6267
 Red. masses --      1.0686                 1.0417                 1.0472
 Frc consts  --      1.4152                 1.3807                 1.4005
 IR Inten    --      1.0269                 4.7943                 5.9221

                     52                     53                     54
                      A                      A                      A
 Frequencies --   1513.0873              2234.7133              2994.7138
 Red. masses --      1.0883                 5.9458                 1.0592
 Frc consts  --      1.4680                17.4946                 5.5967
 IR Inten    --      4.3669                 4.1278                 7.6914

                     55                     56                     57
                      A                      A                      A
 Frequencies --   3004.9670              3006.3219              3013.5180
 Red. masses --      1.0676                 1.0636                 1.0670
 Frc consts  --      5.6801                 5.6637                 5.7088
 IR Inten    --      4.7380                 0.9342                 0.3101

                     58                     59                     60
                      A                      A                      A
 Frequencies --   3016.5106              3027.3387              3028.8206
 Red. masses --      1.0671                 1.0702                 1.0491
 Frc consts  --      5.7208                 5.7789                 5.6702
 IR Inten    --     78.8394                 9.3210                29.3134

                     61                     62                     63
                      A                      A                      A
 Frequencies --   3029.6392              3036.9549              3046.7826
 Red. masses --      1.0521                 1.0987                 1.0996
 Frc consts  --      5.6895                 5.9703                 6.0141
 IR Inten    --     29.8675                 0.8874                16.8961

                     64                     65                     66
                      A                      A                      A
 Frequencies --   3063.4751              3094.7076              3099.6582
 Red. masses --      1.1028                 1.1021                 1.0954
 Frc consts  --      6.0977                 6.2186                 6.2006
 IR Inten    --     72.0855                60.6940                19.5029

                     67                     68                     69
                      A                      A                      A
 Frequencies --   3100.2696              3118.8042              3507.2675
 Red. masses --      1.1006                 1.1014                 1.1615
 Frc consts  --      6.2330                 6.3119                 8.4177
 IR Inten    --     47.3877                24.2946                68.6860

 - Thermochemistry -
 -------------------
 Temperature   298.150 Kelvin.  Pressure   1.00000 Atm.
 Atom     1 has atomic number  6 and mass  12.00000

 Molecular mass:   124.12520 amu.
 Principal axes and moments of inertia in atomic units:
                           1         2         3
     Eigenvalues --   341.972473436.477193591.46109
           X            0.99999  -0.00362  -0.00351
           Y            0.00357   0.99992  -0.01220
           Z            0.00356   0.01219   0.99992
 This molecule is an asymmetric top.
 Rotational symmetry number  1.
 Rotational temperatures (Kelvin)      0.25328     0.02520     0.02412
 Rotational constants (GHZ):           5.27745     0.52517     0.50251
 Zero-point vibrational energy     593164.1 (Joules/Mol)
                                  141.76963 (Kcal/Mol)
 Warning -- explicit consideration of  16 degrees of freedom as
           vibrations may cause significant error
 Vibrational temperatures:     68.94    90.17   126.64   151.18   201.83
          (Kelvin)            245.56   344.67   357.10   385.13   431.22
                              505.30   540.60   589.44   667.80   805.45
                              880.58   911.98  1058.63  1132.49  1209.33
                             1274.40  1304.09  1320.49  1329.59  1412.08
                             1473.34  1492.07  1539.11  1552.42  1624.56
                             1645.70  1703.72  1771.04  1815.44  1830.11
                             1883.13  1900.02  1918.42  1951.43  1982.49
                             1987.27  2014.15  2031.90  2036.41  2110.89
                             2131.96  2138.29  2155.86  2157.07  2157.98
                             2167.70  2177.00  3215.25  4308.73  4323.48
                             4325.43  4335.78  4340.09  4355.67  4357.80
                             4358.98  4369.50  4383.64  4407.66  4452.59
                             4459.72  4460.60  4487.26  5046.18

 Zero-point correction=                           0.225924 (Hartree/Particle)
 Thermal correction to Energy=                    0.237592
 Thermal correction to Enthalpy=                  0.238536
 Thermal correction to Gibbs Free Energy=         0.188306
 Sum of electronic and zero-point Energies=           -352.340013
 Sum of electronic and thermal Energies=              -352.328345
 Sum of electronic and thermal Enthalpies=            -352.327401
 Sum of electronic and thermal Free Energies=         -352.377631

                     E (Thermal)             CV                S
                      KCal/Mol        Cal/Mol-Kelvin    Cal/Mol-Kelvin
 Total                  149.091             42.111            105.718
 Electronic               0.000              0.000              0.000
 Translational            0.889              2.981             40.362
 Rotational               0.889              2.981             29.824
 Vibrational            147.314             36.149             35.532
 Vibration     1          0.595              1.978              4.901
 Vibration     2          0.597              1.972              4.371
 Vibration     3          0.601              1.958              3.704
 Vibration     4          0.605              1.945              3.358
 Vibration     5          0.615              1.913              2.800
 Vibration     6          0.626              1.879              2.428
 Vibration     7          0.657              1.780              1.806
 Vibration     8          0.662              1.766              1.743
 Vibration     9          0.673              1.733              1.611
 Vibration    10          0.692              1.674              1.418
 Vibration    11          0.728              1.573              1.161
 Vibration    12          0.747              1.522              1.056
 Vibration    13          0.774              1.449              0.928
 Vibration    14          0.822              1.330              0.754
 Vibration    15          0.915              1.118              0.524
 Vibration    16          0.971              1.006              0.429

 Optimization completed.
    -- Stationary point found.
 Normal termination of Gaussian 16 at Thu Aug  4 01:07:29 2022.
