 Gaussian 16, Revision A.03,
 Gaussian 16:  ES64L-G16RevA.03 25-Dec-2016

 -----------------------------
 # opt freq b3lyp/6-31g(2df,p)
 -----------------------------

 -------------------
 Title Card Required
 -------------------
 Symbolic Z-matrix:
 Charge =  0 Multiplicity = 1

 SCF Done:  E(RB3LYP) =  -387.231032404     A.U. after   13 cycles
 SCF Done:  E(RB3LYP) =  -387.252487721     A.U. after   12 cycles
 SCF Done:  E(RB3LYP) =  -387.253840925     A.U. after   12 cycles
 SCF Done:  E(RB3LYP) =  -387.246045296     A.U. after   13 cycles
 SCF Done:  E(RB3LYP) =  -387.253441871     A.U. after   12 cycles
 SCF Done:  E(RB3LYP) =  -387.254147417     A.U. after    8 cycles
 SCF Done:  E(RB3LYP) =  -387.253086834     A.U. after   12 cycles
 SCF Done:  E(RB3LYP) =  -387.254503513     A.U. after   10 cycles
 SCF Done:  E(RB3LYP) =  -387.254377123     A.U. after   11 cycles
 SCF Done:  E(RB3LYP) =  -387.254546735     A.U. after   10 cycles
 SCF Done:  E(RB3LYP) =  -387.255693417     A.U. after   10 cycles
 SCF Done:  E(RB3LYP) =  -387.255766409     A.U. after   11 cycles
 SCF Done:  E(RB3LYP) =  -387.255730846     A.U. after   10 cycles
 SCF Done:  E(RB3LYP) =  -387.255773839     A.U. after   11 cycles
 SCF Done:  E(RB3LYP) =  -387.255775966     A.U. after    9 cycles
 SCF Done:  E(RB3LYP) =  -387.255775991     A.U. after    8 cycles
 SCF Done:  E(RB3LYP) =  -387.255776532     A.U. after    9 cycles
 SCF Done:  E(RB3LYP) =  -387.255776539     A.U. after    8 cycles
 SCF Done:  E(RB3LYP) =  -387.255776608     A.U. after    7 cycles
 Optimization completed.
    -- Stationary point found.
 Normal termination of Gaussian 16 at Thu Aug  4 02:02:03 2022.

 ----------------------------------------------------------------------
 #N Geom=AllCheck Guess=TCheck SCRF=Check GenChk RB3LYP/6-31G(2df,p) Fr
 eq
 ----------------------------------------------------------------------

 Structure from the checkpoint file:  "CtCC1CCCpOpC1C.chk"
 -------------------
 Title Card Required
 -------------------
 Charge =  0 Multiplicity = 1

                         Standard orientation:
 ---------------------------------------------------------------------
 Center     Atomic      Atomic             Coordinates (Angstroms)
 Number     Number       Type             X           Y           Z
 ---------------------------------------------------------------------
      1          6           0       -3.328125   -0.005353    0.063598
      2          6           0       -2.141589   -0.129471    0.216665
      3          6           0       -0.704432   -0.278820    0.375751
      4          6           0       -0.168213   -1.692385    0.019386
      5          6           0        1.321768   -1.480708   -0.365022
      6          6           0        1.560673    0.049978   -0.394052
      7          8           0        2.259799    0.515892    0.757757
      8          6           0        0.145534    0.658479   -0.524232
      9          6           0        0.040534    2.143738   -0.199227
     10          1           0       -4.376631    0.102737   -0.063545
     11          1           0       -0.455626   -0.054163    1.424673
     12          1           0       -0.736692   -2.079960   -0.830348
     13          1           0       -0.305315   -2.398716    0.841608
     14          1           0        1.537414   -1.927110   -1.339691
     15          1           0        2.013711   -1.938286    0.347884
     16          1           0        2.196106    0.351679   -1.231263
     17          1           0        1.826485    0.165311    1.542756
     18          1           0       -0.185703    0.488354   -1.558060
     19          1           0        0.428787    2.351694    0.801562
     20          1           0       -1.000388    2.476732   -0.247162
     21          1           0        0.622565    2.741843   -0.907675
 ---------------------------------------------------------------------

 SCF Done:  E(RB3LYP) =  -387.255776608     A.U. after    1 cycles

 The electronic state is 1-A.
 Alpha  occ. eigenvalues --  -19.13652 -10.22985 -10.21081 -10.18898 -10.18864
 Alpha  occ. eigenvalues --  -10.18332 -10.17897 -10.16945 -10.16879  -1.01818
 Alpha  occ. eigenvalues --   -0.84552  -0.75565  -0.74679  -0.70009  -0.65759
 Alpha  occ. eigenvalues --   -0.59141  -0.57922  -0.53097  -0.49783  -0.47459
 Alpha  occ. eigenvalues --   -0.45718  -0.44459  -0.42084  -0.41015  -0.38619
 Alpha  occ. eigenvalues --   -0.37154  -0.35066  -0.34304  -0.33918  -0.33301
 Alpha  occ. eigenvalues --   -0.31665  -0.27030  -0.26200  -0.25420
 Alpha virt. eigenvalues --    0.04301   0.05434   0.07945   0.08864   0.10708
 Alpha virt. eigenvalues --    0.12552   0.13051   0.15538   0.15828   0.16525
 Alpha virt. eigenvalues --    0.16885   0.18380   0.18951   0.19821   0.20413

 Mulliken charges:
               1
     1  C   -0.442983
     2  C    0.295534
     3  C   -0.173788
     4  C   -0.225473
     5  C   -0.256978
     6  C    0.122336
     7  O   -0.438701
     8  C    0.017978
     9  C   -0.409323
    10  H    0.191304
    11  H    0.087277
    12  H    0.115697
    13  H    0.106830
    14  H    0.108776
    15  H    0.106056
    16  H    0.080108
    17  H    0.279927
    18  H    0.080347
    19  H    0.117686
    20  H    0.123357
    21  H    0.114036
 Sum of Mulliken charges =  -0.00000

 Dipole moment (field-independent basis, Debye):
    X=             -0.4670    Y=             -0.9909    Z=             -0.0521  Tot=              1.0967
 Quadrupole moment (field-independent basis, Debye-Ang):
   XX=            -57.4824   YY=            -55.7025   ZZ=            -51.8772
   XY=             -2.7334   XZ=             -0.1126   YZ=             -0.9396

  Exact polarizability: 105.946  -2.809  78.831   0.376  -0.628  67.657
 Approx polarizability: 153.488  -3.553 104.826   5.095  -0.683 107.422

                      1                      2                      3
                      A                      A                      A
 Frequencies --     50.8519                92.4859               135.4552
 Red. masses --      2.0811                 3.9904                 3.5271
 Frc consts  --      0.0032                 0.0201                 0.0381
 IR Inten    --      0.6468                 0.8722                 0.0038

                      4                      5                      6
                      A                      A                      A
 Frequencies --    200.9397               229.1499               256.6235
 Red. masses --      1.1810                 2.1389                 1.2625
 Frc consts  --      0.0281                 0.0662                 0.0490
 IR Inten    --      1.3631                 0.7943                91.5200

                      7                      8                      9
                      A                      A                      A
 Frequencies --    267.1617               305.6522               398.0716
 Red. masses --      2.3618                 3.0515                 3.1040
 Frc consts  --      0.0993                 0.1680                 0.2898
 IR Inten    --      7.9305                 0.9480                 9.6199

                     10                     11                     12
                      A                      A                      A
 Frequencies --    474.8076               494.8524               542.2917
 Red. masses --      5.0533                 4.3045                 3.3320
 Frc consts  --      0.6712                 0.6210                 0.5773
 IR Inten    --      2.7522                 2.4262                 1.6285

                     13                     14                     15
                      A                      A                      A
 Frequencies --    580.1264               624.5918               631.5481
 Red. masses --      3.9250                 1.2191                 1.2312
 Frc consts  --      0.7783                 0.2802                 0.2893
 IR Inten    --      3.1035                40.9647                40.2709

                     16                     17                     18
                      A                      A                      A
 Frequencies --    704.2285               782.2612               797.1343
 Red. masses --      2.6388                 2.0470                 2.2592
 Frc consts  --      0.7711                 0.7380                 0.8458
 IR Inten    --      4.7307                 1.2651                 1.8825

                     19                     20                     21
                      A                      A                      A
 Frequencies --    873.6460               907.2279               963.4325
 Red. masses --      2.0246                 2.0300                 1.9697
 Frc consts  --      0.9105                 0.9844                 1.0772
 IR Inten    --     12.9242                 7.5370                 9.0086

                     22                     23                     24
                      A                      A                      A
 Frequencies --   1002.4581              1009.4171              1022.5748
 Red. masses --      2.0679                 1.8921                 2.7707
 Frc consts  --      1.2243                 1.1359                 1.7070
 IR Inten    --      9.3369                23.7366                 3.6731

                     25                     26                     27
                      A                      A                      A
 Frequencies --   1057.0800              1073.4057              1113.1521
 Red. masses --      2.4995                 1.8330                 2.2160
 Frc consts  --      1.6456                 1.2444                 1.6178
 IR Inten    --      0.9323                 9.9642                19.0505

                     28                     29                     30
                      A                      A                      A
 Frequencies --   1159.3668              1179.4818              1222.9145
 Red. masses --      1.8593                 1.5846                 1.3871
 Frc consts  --      1.4725                 1.2989                 1.2222
 IR Inten    --     43.1929                14.7381                 2.9610

                     31                     32                     33
                      A                      A                      A
 Frequencies --   1259.3292              1259.9507              1290.6551
 Red. masses --      1.2923                 1.3636                 1.2947
 Frc consts  --      1.2075                 1.2754                 1.2707
 IR Inten    --     10.4729                 0.3392                 2.6599

                     34                     35                     36
                      A                      A                      A
 Frequencies --   1314.7865              1319.5835              1334.2977
 Red. masses --      1.3248                 1.3981                 1.4127
 Frc consts  --      1.3493                 1.4343                 1.4818
 IR Inten    --      0.4501                 4.9397                 2.2194

                     37                     38                     39
                      A                      A                      A
 Frequencies --   1361.6428              1382.5225              1409.2662
 Red. masses --      1.5149                 1.4516                 1.2557
 Frc consts  --      1.6549                 1.6347                 1.4694
 IR Inten    --      1.8673                 0.8084                 6.6317

                     40                     41                     42
                      A                      A                      A
 Frequencies --   1433.3491              1484.7078              1494.8732
 Red. masses --      1.1955                 1.0739                 1.0483
 Frc consts  --      1.4472                 1.3948                 1.3802
 IR Inten    --     46.6574                 0.8565                 3.2003

                     43                     44                     45
                      A                      A                      A
 Frequencies --   1498.8244              1506.4688              2233.5157
 Red. masses --      1.0489                 1.0922                 5.9712
 Frc consts  --      1.3883                 1.4605                17.5506
 IR Inten    --      6.1173                 4.1917                 5.1288

                     46                     47                     48
                      A                      A                      A
 Frequencies --   2977.0602              3015.3516              3040.6383
 Red. masses --      1.0800                 1.0835                 1.0354
 Frc consts  --      5.6398                 5.8045                 5.6401
 IR Inten    --     15.4616                23.8942                23.2008

                     49                     50                     51
                      A                      A                      A
 Frequencies --   3053.9316              3065.2961              3074.1114
 Red. masses --      1.0616                 1.0632                 1.0859
 Frc consts  --      5.8333                 5.8860                 6.0461
 IR Inten    --     15.9725                33.6741                31.2147

                     52                     53                     54
                      A                      A                      A
 Frequencies --   3091.6490              3106.8506              3112.9492
 Red. masses --      1.1031                 1.1009                 1.1052
 Frc consts  --      6.2121                 6.2609                 6.3098
 IR Inten    --      5.9332                21.5426                33.6414

                     55                     56                     57
                      A                      A                      A
 Frequencies --   3119.7076              3505.2253              3812.4856
 Red. masses --      1.1015                 1.1611                 1.0659
 Frc consts  --      6.3162                 8.4049                 9.1283
 IR Inten    --     23.2736                72.5710                10.4644

 - Thermochemistry -
 -------------------
 Temperature   298.150 Kelvin.  Pressure   1.00000 Atm.
 Atom     1 has atomic number  6 and mass  12.00000

 Molecular mass:   124.08882 amu.
 Principal axes and moments of inertia in atomic units:
                           1         2         3
     Eigenvalues --   699.303961410.327901880.97177
           X            0.99982  -0.01894  -0.00281
           Y            0.01893   0.99981  -0.00461
           Z            0.00289   0.00456   0.99999
 This molecule is an asymmetric top.
 Rotational symmetry number  1.
 Warning -- assumption of classical behavior for rotation
           may cause significant error
 Rotational temperatures (Kelvin)      0.12386     0.06141     0.04605
 Rotational constants (GHZ):           2.58077     1.27966     0.95947
 Zero-point vibrational energy     476780.2 (Joules/Mol)
                                  113.95320 (Kcal/Mol)
 Warning -- explicit consideration of  13 degrees of freedom as
           vibrations may cause significant error
 Vibrational temperatures:     73.16   133.07   194.89   289.11   329.70
          (Kelvin)            369.22   384.39   439.77   572.74   683.14
                              711.98   780.24   834.67   898.65   908.66
                             1013.23  1125.50  1146.90  1256.98  1305.30
                             1386.16  1442.31  1452.33  1471.26  1520.90
                             1544.39  1601.58  1668.07  1697.01  1759.50
                             1811.89  1812.79  1856.96  1891.68  1898.59
                             1919.76  1959.10  1989.14  2027.62  2062.27
                             2136.16  2150.79  2156.47  2167.47  3213.53
                             4283.33  4338.42  4374.80  4393.93  4410.28
                             4422.96  4448.19  4470.07  4478.84  4488.56
                             5043.24  5485.32

 Zero-point correction=                           0.181596 (Hartree/Particle)
 Thermal correction to Energy=                    0.191335
 Thermal correction to Enthalpy=                  0.192279
 Thermal correction to Gibbs Free Energy=         0.146874
 Sum of electronic and zero-point Energies=           -387.074181
 Sum of electronic and thermal Energies=              -387.064442
 Sum of electronic and thermal Enthalpies=            -387.063498
 Sum of electronic and thermal Free Energies=         -387.108903

                     E (Thermal)             CV                S
                      KCal/Mol        Cal/Mol-Kelvin    Cal/Mol-Kelvin
 Total                  120.064             36.686             95.564
 Electronic               0.000              0.000              0.000
 Translational            0.889              2.981             40.361
 Rotational               0.889              2.981             29.008
 Vibrational            118.287             30.725             26.195
 Vibration     1          0.595              1.977              4.784
 Vibration     2          0.602              1.955              3.607
 Vibration     3          0.613              1.918              2.867
 Vibration     4          0.638              1.839              2.124
 Vibration     5          0.652              1.797              1.886
 Vibration     6          0.666              1.752              1.685
 Vibration     7          0.672              1.733              1.615
 Vibration     8          0.696              1.663              1.386
 Vibration     9          0.764              1.474              0.970
 Vibration    10          0.832              1.306              0.724
 Vibration    11          0.850              1.261              0.671
 Vibration    12          0.897              1.157              0.560
 Vibration    13          0.937              1.074              0.485

 Optimization completed.
    -- Stationary point found.
 Normal termination of Gaussian 16 at Thu Aug  4 02:37:20 2022.
