 Gaussian 16, Revision A.03,
 Gaussian 16:  ES64L-G16RevA.03 25-Dec-2016

 -----------------------------
 # opt freq b3lyp/6-31g(2df,p)
 -----------------------------

 -------------------
 Title Card Required
 -------------------
 Symbolic Z-matrix:
 Charge =  0 Multiplicity = 1

 SCF Done:  E(RB3LYP) =  -272.670947276     A.U. after   13 cycles
 SCF Done:  E(RB3LYP) =  -272.689324539     A.U. after   13 cycles
 SCF Done:  E(RB3LYP) =  -272.690185641     A.U. after   11 cycles
 SCF Done:  E(RB3LYP) =  -272.688161852     A.U. after   12 cycles
 SCF Done:  E(RB3LYP) =  -272.689987344     A.U. after   11 cycles
 SCF Done:  E(RB3LYP) =  -272.690272111     A.U. after    8 cycles
 SCF Done:  E(RB3LYP) =  -272.690082198     A.U. after   11 cycles
 SCF Done:  E(RB3LYP) =  -272.690311782     A.U. after   10 cycles
 SCF Done:  E(RB3LYP) =  -272.690314205     A.U. after    8 cycles
 Optimization completed.
    -- Stationary point found.
 Normal termination of Gaussian 16 at Sun Jul  3 20:45:03 2022.

 ----------------------------------------------------------------------
 #N Geom=AllCheck Guess=TCheck SCRF=Check GenChk RB3LYP/6-31G(2df,p) Fr
 eq
 ----------------------------------------------------------------------

 Structure from the checkpoint file:  "CtCCpCppCpCdC.chk"
 -------------------
 Title Card Required
 -------------------
 Charge =  0 Multiplicity = 1

                         Standard orientation:
 ---------------------------------------------------------------------
 Center     Atomic      Atomic             Coordinates (Angstroms)
 Number     Number       Type             X           Y           Z
 ---------------------------------------------------------------------
      1          6           0        2.542262   -0.796664    0.000011
      2          6           0        1.426821   -0.348425    0.000016
      3          6           0        0.067442    0.206076   -0.000000
      4          6           0       -0.112836    1.082980    1.266458
      5          6           0       -0.112813    1.082965   -1.266473
      6          6           0       -0.943884   -0.946314   -0.000005
      7          6           0       -2.264945   -0.806621    0.000003
      8          1           0        3.527176   -1.193462    0.000001
      9          1           0        0.623191    1.892061    1.277645
     10          1           0        0.014813    0.486215    2.172754
     11          1           0       -1.114535    1.521644    1.280994
     12          1           0        0.623215    1.892046   -1.277656
     13          1           0       -1.114512    1.521629   -1.281031
     14          1           0        0.014852    0.486190   -2.172759
     15          1           0       -0.513073   -1.943748   -0.000017
     16          1           0       -2.752542    0.163879    0.000015
     17          1           0       -2.920868   -1.670439   -0.000003
 ---------------------------------------------------------------------

 SCF Done:  E(RB3LYP) =  -272.690314205     A.U. after    1 cycles

 The electronic state is 1-A.
 Alpha  occ. eigenvalues --  -10.22257 -10.18902 -10.17962 -10.17962 -10.17827
 Alpha  occ. eigenvalues --  -10.17532 -10.16776  -0.83572  -0.74783  -0.72165
 Alpha  occ. eigenvalues --   -0.68845  -0.63074  -0.55496  -0.51517  -0.48797
 Alpha  occ. eigenvalues --   -0.44814  -0.42166  -0.42160  -0.39544  -0.39115
 Alpha  occ. eigenvalues --   -0.36307  -0.35213  -0.33142  -0.26738  -0.26359
 Alpha  occ. eigenvalues --   -0.25453
 Alpha virt. eigenvalues --    0.01126   0.06022   0.06279   0.09287   0.11757
 Alpha virt. eigenvalues --    0.13256   0.13391   0.15001   0.16753   0.18574
 Alpha virt. eigenvalues --    0.19021   0.19024   0.20850   0.22362   0.25524

 Mulliken charges:
               1
     1  C   -0.501390
     2  C    0.338867
     3  C    0.036409
     4  C   -0.392390
     5  C   -0.392388
     6  C    0.010329
     7  C   -0.338469
     8  H    0.193686
     9  H    0.120938
    10  H    0.126472
    11  H    0.113717
    12  H    0.120938
    13  H    0.113718
    14  H    0.126472
    15  H    0.102631
    16  H    0.105548
    17  H    0.114913
 Sum of Mulliken charges =  -0.00000

 Dipole moment (field-independent basis, Debye):
    X=             -0.3827    Y=              0.2739    Z=             -0.0000  Tot=              0.4706
 Quadrupole moment (field-independent basis, Debye-Ang):
   XX=            -39.8932   YY=            -41.9790   ZZ=            -44.9167
   XY=             -1.3455   XZ=             -0.0001   YZ=              0.0000

  Exact polarizability:  95.967  -5.452  64.766  -0.000   0.000  53.162
 Approx polarizability: 145.488 -15.424  92.292  -0.000   0.000  74.117

 ******    1 imaginary frequencies (negative Signs) ******

                      1                      2                      3
                      A                      A                      A
 Frequencies --    -95.1485               154.8700               179.8076
 Red. masses --      1.8305                 3.4692                 3.0325
 Frc consts  --      0.0098                 0.0490                 0.0578
 IR Inten    --      0.3648                 0.0592                 0.4297

                      4                      5                      6
                      A                      A                      A
 Frequencies --    238.4383               269.3848               290.1447
 Red. masses --      1.0623                 1.2251                 1.9393
 Frc consts  --      0.0356                 0.0524                 0.0962
 IR Inten    --      0.1949                 0.5666                 0.5622

                      7                      8                      9
                      A                      A                      A
 Frequencies --    292.4442               355.4789               473.7195
 Red. masses --      1.8936                 2.3161                 2.9328
 Frc consts  --      0.0954                 0.1724                 0.3878
 IR Inten    --      0.5542                 0.2623                 0.3512

                     10                     11                     12
                      A                      A                      A
 Frequencies --    542.0183               544.0348               622.4567
 Red. masses --      4.2751                 5.8407                 1.2165
 Frc consts  --      0.7400                 1.0185                 0.2777
 IR Inten    --      1.2722                 2.9207                42.8926

                     13                     14                     15
                      A                      A                      A
 Frequencies --    634.1045               678.5549               693.8073
 Red. masses --      1.2203                 1.9172                 3.3013
 Frc consts  --      0.2891                 0.5201                 0.9363
 IR Inten    --     42.2019                 9.7098                 1.1252

                     16                     17                     18
                      A                      A                      A
 Frequencies --    889.7321               935.5347               941.7075
 Red. masses --      1.9286                 1.9986                 1.5635
 Frc consts  --      0.8995                 1.0306                 0.8169
 IR Inten    --      1.5188                 0.2899                 0.2062

                     19                     20                     21
                      A                      A                      A
 Frequencies --    947.4676              1027.8426              1040.0326
 Red. masses --      1.3732                 1.1371                 1.2301
 Frc consts  --      0.7263                 0.7078                 0.7840
 IR Inten    --     25.9351                 6.6422                 4.1692

                     22                     23                     24
                      A                      A                      A
 Frequencies --   1084.1548              1145.0000              1216.4265
 Red. masses --      1.4345                 3.3842                 2.4925
 Frc consts  --      0.9934                 2.6141                 2.1730
 IR Inten    --      5.2225                 6.7072                 9.5958

                     25                     26                     27
                      A                      A                      A
 Frequencies --   1239.7950              1335.7088              1392.7241
 Red. masses --      2.7167                 1.2502                 1.1950
 Frc consts  --      2.4603                 1.3141                 1.3656
 IR Inten    --     24.2243                 0.4305                 1.6147

                     28                     29                     30
                      A                      A                      A
 Frequencies --   1410.3209              1450.9109              1478.5917
 Red. masses --      1.2021                 1.1861                 1.0466
 Frc consts  --      1.4087                 1.4711                 1.3482
 IR Inten    --      0.6368                 7.4280                 0.7604

                     31                     32                     33
                      A                      A                      A
 Frequencies --   1483.6881              1495.4008              1503.9967
 Red. masses --      1.0478                 1.0520                 1.0570
 Frc consts  --      1.3590                 1.3860                 1.4087
 IR Inten    --      1.6595                 4.4378                 3.7936

                     34                     35                     36
                      A                      A                      A
 Frequencies --   1703.8505              2233.7860              3040.0102
 Red. masses --      4.7165                 5.9291                 1.0334
 Frc consts  --      8.0674                17.4310                 5.6268
 IR Inten    --      4.6692                 2.8673                18.0408

                     37                     38                     39
                      A                      A                      A
 Frequencies --   3043.4960              3114.4352              3119.6199
 Red. masses --      1.0338                 1.1030                 1.1021
 Frc consts  --      5.6422                 6.3034                 6.3196
 IR Inten    --     20.1294                 0.0020                46.1580

                     40                     41                     42
                      A                      A                      A
 Frequencies --   3125.3611              3127.0006              3143.6532
 Red. masses --      1.1026                 1.1022                 1.0600
 Frc consts  --      6.3453                 6.3496                 6.1719
 IR Inten    --     15.8666                19.6121                10.5297

                     43                     44                     45
                      A                      A                      A
 Frequencies --   3165.8548              3224.9489              3502.4063
 Red. masses --      1.0926                 1.1137                 1.1617
 Frc consts  --      6.4520                 6.8246                 8.3964
 IR Inten    --      4.0572                13.6614                67.9261

 - Thermochemistry -
 -------------------
 Temperature   298.150 Kelvin.  Pressure   1.00000 Atm.
 Atom     1 has atomic number  6 and mass  12.00000

 Molecular mass:    94.07825 amu.
 Principal axes and moments of inertia in atomic units:
                           1         2         3
     Eigenvalues --   468.62965 933.455091012.06690
           X            1.00000   0.00058  -0.00000
           Y           -0.00058   1.00000   0.00000
           Z            0.00000  -0.00000   1.00000
 This molecule is an asymmetric top.
 Rotational symmetry number  1.
 Warning -- assumption of classical behavior for rotation
           may cause significant error
 Rotational temperatures (Kelvin)      0.18482     0.09279     0.08558
 Rotational constants (GHZ):           3.85110     1.93340     1.78322
    1 imaginary frequencies ignored.
 Zero-point vibrational energy     380010.1 (Joules/Mol)
                                   90.82459 (Kcal/Mol)
 Warning -- explicit consideration of  10 degrees of freedom as
           vibrations may cause significant error
 Vibrational temperatures:    222.82   258.70   343.06   387.58   417.45
          (Kelvin)            420.76   511.45   681.58   779.84   782.74
                              895.58   912.33   976.29   998.23  1280.13
                             1346.03  1354.91  1363.19  1478.84  1496.37
                             1559.86  1647.40  1750.17  1783.79  1921.79
                             2003.82  2029.14  2087.54  2127.36  2134.70
                             2151.55  2163.92  2451.46  3213.92  4373.90
                             4378.91  4480.98  4488.44  4496.70  4499.06
                             4523.02  4554.96  4639.98  5039.18

 Zero-point correction=                           0.144738 (Hartree/Particle)
 Thermal correction to Energy=                    0.152528
 Thermal correction to Enthalpy=                  0.153473
 Thermal correction to Gibbs Free Energy=         0.113641
 Sum of electronic and zero-point Energies=           -272.545576
 Sum of electronic and thermal Energies=              -272.537786
 Sum of electronic and thermal Enthalpies=            -272.536842
 Sum of electronic and thermal Free Energies=         -272.576674

                     E (Thermal)             CV                S
                      KCal/Mol        Cal/Mol-Kelvin    Cal/Mol-Kelvin
 Total                   95.713             29.686             83.833
 Electronic               0.000              0.000              0.000
 Translational            0.889              2.981             39.536
 Rotational               0.889              2.981             27.584
 Vibrational             93.936             23.724             16.713
 Vibration     1          0.620              1.897              2.612
 Vibration     2          0.629              1.867              2.330
 Vibration     3          0.656              1.782              1.815
 Vibration     4          0.674              1.730              1.600
 Vibration     5          0.686              1.692              1.473
 Vibration     6          0.688              1.688              1.460
 Vibration     7          0.731              1.564              1.142
 Vibration     8          0.831              1.308              0.727
 Vibration     9          0.897              1.157              0.561
 Vibration    10          0.899              1.153              0.557

 Optimization completed.
    -- Stationary point found.
 Normal termination of Gaussian 16 at Sun Jul  3 21:01:02 2022.
