 Gaussian 16, Revision A.03,
 Gaussian 16:  ES64L-G16RevA.03 25-Dec-2016

 -----------------------------
 # opt freq b3lyp/6-31g(2df,p)
 -----------------------------

 -------------------
 Title Card Required
 -------------------
 Symbolic Z-matrix:
 Charge =  0 Multiplicity = 1

 SCF Done:  E(RB3LYP) =  -423.143313942     A.U. after   14 cycles
 SCF Done:  E(RB3LYP) =  -423.162802100     A.U. after   12 cycles
 SCF Done:  E(RB3LYP) =  -423.163829487     A.U. after   12 cycles
 SCF Done:  E(RB3LYP) =  -423.155032584     A.U. after   14 cycles
 SCF Done:  E(RB3LYP) =  -423.164281154     A.U. after   11 cycles
 SCF Done:  E(RB3LYP) =  -423.164030509     A.U. after   11 cycles
 SCF Done:  E(RB3LYP) =  -423.164354675     A.U. after   10 cycles
 SCF Done:  E(RB3LYP) =  -423.164009170     A.U. after   10 cycles
 SCF Done:  E(RB3LYP) =  -423.164363055     A.U. after   11 cycles
 SCF Done:  E(RB3LYP) =  -423.164369512     A.U. after    8 cycles
 SCF Done:  E(RB3LYP) =  -423.164369842     A.U. after    7 cycles
 SCF Done:  E(RB3LYP) =  -423.164370031     A.U. after    7 cycles
 SCF Done:  E(RB3LYP) =  -423.164370130     A.U. after    7 cycles
 Optimization completed.
    -- Stationary point found.
 Normal termination of Gaussian 16 at Thu Aug  4 02:13:06 2022.

 ----------------------------------------------------------------------
 #N Geom=AllCheck Guess=TCheck SCRF=Check GenChk RB3LYP/6-31G(2df,p) Fr
 eq
 ----------------------------------------------------------------------

 Structure from the checkpoint file:  "CtCC1CCOCpOpC1.chk"
 -------------------
 Title Card Required
 -------------------
 Charge =  0 Multiplicity = 1

                         Standard orientation:
 ---------------------------------------------------------------------
 Center     Atomic      Atomic             Coordinates (Angstroms)
 Number     Number       Type             X           Y           Z
 ---------------------------------------------------------------------
      1          6           0        2.698421   -1.075050   -0.863756
      2          6           0        1.941776   -0.594233   -0.062114
      3          6           0        1.019342   -0.005657    0.909442
      4          6           0        0.719587    1.478699    0.585654
      5          6           0       -0.181960    1.584716   -0.644210
      6          8           0       -1.384819    0.846676   -0.475024
      7          6           0       -1.162576   -0.542661   -0.290392
      8          8           0       -2.402148   -1.172369   -0.235324
      9          6           0       -0.320113   -0.783309    0.966924
     10          1           0        3.370323   -1.503261   -1.565867
     11          1           0        1.494671   -0.061581    1.896359
     12          1           0        1.650033    2.030572    0.421100
     13          1           0        0.208338    1.926513    1.445342
     14          1           0        0.358223    1.228824   -1.535748
     15          1           0       -0.482858    2.620462   -0.823095
     16          1           0       -0.653674   -0.958948   -1.172993
     17          1           0       -2.897657   -0.766984    0.486510
     18          1           0       -0.144414   -1.855273    1.088698
     19          1           0       -0.894112   -0.429810    1.833191
 ---------------------------------------------------------------------

 SCF Done:  E(RB3LYP) =  -423.164370130     A.U. after    1 cycles

 The electronic state is 1-A.
 Alpha  occ. eigenvalues --  -19.14111 -19.13839 -10.27398 -10.22967 -10.21991
 Alpha  occ. eigenvalues --  -10.19207 -10.18914 -10.18401 -10.17526  -1.06298
 Alpha  occ. eigenvalues --   -1.00012  -0.82896  -0.75525  -0.73632  -0.65973
 Alpha  occ. eigenvalues --   -0.64081  -0.59652  -0.52940  -0.51699  -0.49146
 Alpha  occ. eigenvalues --   -0.47045  -0.46388  -0.44336  -0.43793  -0.39832
 Alpha  occ. eigenvalues --   -0.37859  -0.37066  -0.35677  -0.34247  -0.31680
 Alpha  occ. eigenvalues --   -0.28849  -0.27531  -0.26793  -0.24570
 Alpha virt. eigenvalues --    0.04621   0.05060   0.08963   0.09474   0.11154
 Alpha virt. eigenvalues --    0.12473   0.14050   0.14507   0.15940   0.16788
 Alpha virt. eigenvalues --    0.17201   0.18006   0.18747   0.20011   0.20919

 Mulliken charges:
               1
     1  C   -0.494762
     2  C    0.347292
     3  C   -0.181389
     4  C   -0.212295
     5  C   -0.073643
     6  O   -0.259826
     7  C    0.212299
     8  O   -0.409258
     9  C   -0.245130
    10  H    0.199688
    11  H    0.106884
    12  H    0.108869
    13  H    0.103069
    14  H    0.106249
    15  H    0.109857
    16  H    0.093729
    17  H    0.281092
    18  H    0.116851
    19  H    0.090423
 Sum of Mulliken charges =   0.00000

 Dipole moment (field-independent basis, Debye):
    X=              1.2051    Y=              0.8667    Z=              1.4419  Tot=              2.0694
 Quadrupole moment (field-independent basis, Debye-Ang):
   XX=            -54.6098   YY=            -53.3730   ZZ=            -50.3771
   XY=             -1.4070   XZ=             -5.9219   YZ=              0.3059

  Exact polarizability:  84.145  -4.266  73.998 -10.991   4.622  71.051
 Approx polarizability: 118.313  -9.749 105.560 -22.576  12.694 112.714

                      1                      2                      3
                      A                      A                      A
 Frequencies --    101.7280               118.1680               195.9706
 Red. masses --      4.6227                 3.9993                 3.2374
 Frc consts  --      0.0282                 0.0329                 0.0733
 IR Inten    --      0.3033                 0.7201                 1.0593

                      4                      5                      6
                      A                      A                      A
 Frequencies --    244.9703               278.9916               324.9806
 Red. masses --      1.7834                 1.4748                 2.7376
 Frc consts  --      0.0631                 0.0676                 0.1703
 IR Inten    --     25.3080                57.4505                 2.0357

                      7                      8                      9
                      A                      A                      A
 Frequencies --    373.8311               407.7659               427.8314
 Red. masses --      3.3932                 4.5841                 3.2628
 Frc consts  --      0.2794                 0.4491                 0.3519
 IR Inten    --     10.5595                15.7369                 2.4097

                     10                     11                     12
                      A                      A                      A
 Frequencies --    517.9829               547.1416               574.2749
 Red. masses --      2.4164                 3.9328                 4.2251
 Frc consts  --      0.3820                 0.6937                 0.8210
 IR Inten    --      8.4056                 5.5173                 2.5470

                     13                     14                     15
                      A                      A                      A
 Frequencies --    630.3182               638.0104               689.5859
 Red. masses --      1.2472                 1.2164                 2.5746
 Frc consts  --      0.2919                 0.2917                 0.7213
 IR Inten    --     44.3325                41.5148                 1.9839

                     16                     17                     18
                      A                      A                      A
 Frequencies --    796.6927               838.8385               890.4370
 Red. masses --      3.7493                 2.1349                 2.6056
 Frc consts  --      1.4021                 0.8851                 1.2172
 IR Inten    --      2.5067                 7.9927                 1.9582

                     19                     20                     21
                      A                      A                      A
 Frequencies --    918.5649               958.8841              1017.4189
 Red. masses --      2.5595                 2.4836                 1.7612
 Frc consts  --      1.2724                 1.3455                 1.0742
 IR Inten    --     11.7033                 5.9620                15.2863

                     22                     23                     24
                      A                      A                      A
 Frequencies --   1056.1264              1080.6894              1093.6942
 Red. masses --      2.3573                 2.0182                 3.5318
 Frc consts  --      1.5492                 1.3887                 2.4891
 IR Inten    --     58.7600                 3.5730               174.3670

                     25                     26                     27
                      A                      A                      A
 Frequencies --   1117.9456              1145.6613              1194.8916
 Red. masses --      2.2734                 2.8738                 1.3978
 Frc consts  --      1.6741                 2.2224                 1.1759
 IR Inten    --      4.2395               100.7307                48.0130

                     28                     29                     30
                      A                      A                      A
 Frequencies --   1222.4476              1256.0042              1294.2421
 Red. masses --      1.2823                 1.4302                 1.2431
 Frc consts  --      1.1290                 1.3293                 1.2268
 IR Inten    --      4.8785                11.3646                 9.1526

                     31                     32                     33
                      A                      A                      A
 Frequencies --   1332.3277              1341.9826              1362.9744
 Red. masses --      1.3297                 1.6078                 1.3039
 Frc consts  --      1.3907                 1.7060                 1.4272
 IR Inten    --      7.0076                 6.5407                 2.5684

                     34                     35                     36
                      A                      A                      A
 Frequencies --   1376.0906              1388.2774              1419.8948
 Red. masses --      1.3814                 1.3544                 1.3650
 Frc consts  --      1.5412                 1.5380                 1.6214
 IR Inten    --      8.7518                20.5702                21.2050

                     37                     38                     39
                      A                      A                      A
 Frequencies --   1437.4305              1466.5573              1479.3518
 Red. masses --      1.2556                 1.0970                 1.0931
 Frc consts  --      1.5286                 1.3901                 1.4095
 IR Inten    --     55.9510                 1.4040                 6.6177

                     40                     41                     42
                      A                      A                      A
 Frequencies --   1501.2910              2230.4317              2987.6782
 Red. masses --      1.0960                 5.9322                 1.0698
 Frc consts  --      1.4555                17.3877                 5.6265
 IR Inten    --      4.3527                 1.1617                30.8158

                     43                     44                     45
                      A                      A                      A
 Frequencies --   3002.2142              3022.0534              3031.5201
 Red. masses --      1.0830                 1.0777                 1.0678
 Frc consts  --      5.7512                 5.7988                 5.7816
 IR Inten    --     29.7900                12.4271                25.2453

                     46                     47                     48
                      A                      A                      A
 Frequencies --   3043.8163              3090.3117              3094.3887
 Red. masses --      1.0643                 1.0932                 1.1040
 Frc consts  --      5.8094                 6.1510                 6.2283
 IR Inten    --     40.9999                39.5078                25.1757

                     49                     50                     51
                      A                      A                      A
 Frequencies --   3102.5212              3503.3400              3790.8491
 Red. masses --      1.0988                 1.1616                 1.0650
 Frc consts  --      6.2317                 8.3999                 9.0176
 IR Inten    --     19.9915                67.1580                22.8593

 - Thermochemistry -
 -------------------
 Temperature   298.150 Kelvin.  Pressure   1.00000 Atm.
 Atom     1 has atomic number  6 and mass  12.00000

 Molecular mass:   126.06808 amu.
 Principal axes and moments of inertia in atomic units:
                           1         2         3
     Eigenvalues --   731.609311360.680621647.35766
           X            0.99985   0.00734  -0.01549
           Y           -0.00738   0.99997  -0.00257
           Z            0.01547   0.00269   0.99988
 This molecule is an asymmetric top.
 Rotational symmetry number  1.
 Warning -- assumption of classical behavior for rotation
           may cause significant error
 Rotational temperatures (Kelvin)      0.11839     0.06365     0.05258
 Rotational constants (GHZ):           2.46681     1.32635     1.09554
 Zero-point vibrational energy     418450.1 (Joules/Mol)
                                  100.01197 (Kcal/Mol)
 Warning -- explicit consideration of  12 degrees of freedom as
           vibrations may cause significant error
 Vibrational temperatures:    146.36   170.02   281.96   352.46   401.41
          (Kelvin)            467.57   537.86   586.68   615.55   745.26
                              787.21   826.25   906.89   917.95   992.16
                             1146.26  1206.90  1281.14  1321.61  1379.62
                             1463.84  1519.53  1554.87  1573.58  1608.47
                             1648.35  1719.18  1758.83  1807.11  1862.13
                             1916.92  1930.81  1961.02  1979.89  1997.42
                             2042.91  2068.14  2110.05  2128.46  2160.02
                             3209.09  4298.60  4319.52  4348.06  4361.68
                             4379.37  4446.27  4452.14  4463.84  5040.52
                             5454.19

 Zero-point correction=                           0.159379 (Hartree/Particle)
 Thermal correction to Energy=                    0.168028
 Thermal correction to Enthalpy=                  0.168972
 Thermal correction to Gibbs Free Energy=         0.126337
 Sum of electronic and zero-point Energies=           -423.004991
 Sum of electronic and thermal Energies=              -422.996342
 Sum of electronic and thermal Enthalpies=            -422.995398
 Sum of electronic and thermal Free Energies=         -423.038033

                     E (Thermal)             CV                S
                      KCal/Mol        Cal/Mol-Kelvin    Cal/Mol-Kelvin
 Total                  105.439             33.591             89.733
 Electronic               0.000              0.000              0.000
 Translational            0.889              2.981             40.409
 Rotational               0.889              2.981             28.885
 Vibrational            103.662             27.630             20.439
 Vibration     1          0.604              1.948              3.421
 Vibration     2          0.608              1.934              3.130
 Vibration     3          0.636              1.845              2.171
 Vibration     4          0.660              1.771              1.766
 Vibration     5          0.679              1.712              1.540
 Vibration     6          0.709              1.626              1.285
 Vibration     7          0.745              1.526              1.064
 Vibration     8          0.772              1.453              0.935
 Vibration     9          0.789              1.410              0.866
 Vibration    10          0.873              1.210              0.615
 Vibration    11          0.902              1.146              0.550
 Vibration    12          0.931              1.087              0.496

 Optimization completed.
    -- Stationary point found.
 Normal termination of Gaussian 16 at Thu Aug  4 02:45:24 2022.
