 Gaussian 16, Revision A.03,
 Gaussian 16:  ES64L-G16RevA.03 25-Dec-2016

 -----------------------------
 # opt freq b3lyp/6-31g(2df,p)
 -----------------------------

 -------------------
 Title Card Required
 -------------------
 Symbolic Z-matrix:
 Charge =  0 Multiplicity = 1

 SCF Done:  E(RB3LYP) =  -383.357827512     A.U. after   14 cycles
 SCF Done:  E(RB3LYP) =  -383.379349576     A.U. after   13 cycles
 SCF Done:  E(RB3LYP) =  -383.380270794     A.U. after   12 cycles
 SCF Done:  E(RB3LYP) =  -383.373171631     A.U. after   14 cycles
 SCF Done:  E(RB3LYP) =  -383.381551458     A.U. after   12 cycles
 SCF Done:  E(RB3LYP) =  -383.380799241     A.U. after   14 cycles
 SCF Done:  E(RB3LYP) =  -383.382966889     A.U. after   12 cycles
 SCF Done:  E(RB3LYP) =  -383.384291483     A.U. after   12 cycles
 SCF Done:  E(RB3LYP) =  -383.384561998     A.U. after   12 cycles
 SCF Done:  E(RB3LYP) =  -383.384885323     A.U. after   11 cycles
 SCF Done:  E(RB3LYP) =  -383.384967452     A.U. after   10 cycles
 SCF Done:  E(RB3LYP) =  -383.384981075     A.U. after    9 cycles
 SCF Done:  E(RB3LYP) =  -383.384984455     A.U. after    9 cycles
 SCF Done:  E(RB3LYP) =  -383.384985361     A.U. after    8 cycles
 SCF Done:  E(RB3LYP) =  -383.384985851     A.U. after    7 cycles
 SCF Done:  E(RB3LYP) =  -383.384985968     A.U. after    7 cycles
 Optimization completed.
    -- Stationary point found.
 Normal termination of Gaussian 16 at Mon Jul  4 00:01:33 2022.

 ----------------------------------------------------------------------
 #N Geom=AllCheck Guess=TCheck SCRF=Check GenChk RB3LYP/6-31G(2df,p) Fr
 eq
 ----------------------------------------------------------------------

 Structure from the checkpoint file:  "CtCCNCCpNpCdC.chk"
 -------------------
 Title Card Required
 -------------------
 Charge =  0 Multiplicity = 1

                         Standard orientation:
 ---------------------------------------------------------------------
 Center     Atomic      Atomic             Coordinates (Angstroms)
 Number     Number       Type             X           Y           Z
 ---------------------------------------------------------------------
      1          6           0       -4.404041    0.564937   -0.039404
      2          6           0       -3.387230   -0.067393    0.058885
      3          6           0       -2.144086   -0.817215    0.205138
      4          7           0       -0.985372   -0.024126   -0.211941
      5          6           0        0.283305   -0.676388    0.086288
      6          6           0        1.475843    0.143128   -0.453455
      7          7           0        1.558148    1.511103    0.058831
      8          6           0        2.759095   -0.612502   -0.206405
      9          6           0        3.881772   -0.095949    0.280506
     10          1           0       -5.306991    1.115340   -0.135526
     11          1           0       -2.184689   -1.719781   -0.419702
     12          1           0       -2.065870   -1.175719    1.249775
     13          1           0       -1.024462    0.870429    0.266065
     14          1           0        0.279090   -1.660816   -0.400054
     15          1           0        0.432294   -0.862002    1.168833
     16          1           0        1.325647    0.227610   -1.539534
     17          1           0        1.527062    1.516215    1.074914
     18          1           0        0.781546    2.067714   -0.280149
     19          1           0        2.718080   -1.671792   -0.457324
     20          1           0        3.955609    0.958643    0.521312
     21          1           0        4.765297   -0.706386    0.433847
 ---------------------------------------------------------------------

 SCF Done:  E(RB3LYP) =  -383.384985968     A.U. after    1 cycles

 The electronic state is 1-A.
 Alpha  occ. eigenvalues --  -14.32237 -14.31342 -10.23450 -10.21538 -10.20794
 Alpha  occ. eigenvalues --  -10.18421 -10.18065 -10.17568 -10.16889  -0.92044
 Alpha  occ. eigenvalues --   -0.88218  -0.77267  -0.76111  -0.71201  -0.67064
 Alpha  occ. eigenvalues --   -0.60955  -0.54669  -0.53562  -0.50891  -0.49652
 Alpha  occ. eigenvalues --   -0.46897  -0.45274  -0.43982  -0.43083  -0.41711
 Alpha  occ. eigenvalues --   -0.38127  -0.37754  -0.36523  -0.33678  -0.27419
 Alpha  occ. eigenvalues --   -0.26943  -0.25621  -0.24327  -0.22980
 Alpha virt. eigenvalues --    0.02275   0.04018   0.05595   0.07670   0.10299
 Alpha virt. eigenvalues --    0.11059   0.12607   0.13325   0.14754   0.14945
 Alpha virt. eigenvalues --    0.17124   0.17660   0.18729   0.19072   0.19972

 Mulliken charges:
               1
     1  C   -0.420288
     2  C    0.272129
     3  C   -0.275961
     4  N   -0.305494
     5  C   -0.133469
     6  C   -0.020297
     7  N   -0.514439
     8  C    0.029424
     9  C   -0.332587
    10  H    0.197750
    11  H    0.135920
    12  H    0.110227
    13  H    0.208844
    14  H    0.101122
    15  H    0.076921
    16  H    0.103048
    17  H    0.223804
    18  H    0.234463
    19  H    0.083928
    20  H    0.119238
    21  H    0.105718
 Sum of Mulliken charges =  -0.00000

 Dipole moment (field-independent basis, Debye):
    X=             -0.7167    Y=             -0.3469    Z=              1.1347  Tot=              1.3862
 Quadrupole moment (field-independent basis, Debye-Ang):
   XX=            -56.9639   YY=            -52.2628   ZZ=            -56.0618
   XY=             -4.4104   XZ=              0.6487   YZ=              1.8908

  Exact polarizability: 127.539  -8.668  78.411   7.526   1.710  60.821
 Approx polarizability: 160.044 -14.273 120.799  14.438   3.420  96.290

                      1                      2                      3
                      A                      A                      A
 Frequencies --     44.7314                77.3225                81.3982
 Red. masses --      3.7749                 2.8518                 3.2325
 Frc consts  --      0.0045                 0.0100                 0.0126
 IR Inten    --      0.1644                 1.0741                 1.6801

                      4                      5                      6
                      A                      A                      A
 Frequencies --    118.8910               148.4598               213.7900
 Red. masses --      2.8863                 2.5846                 2.6967
 Frc consts  --      0.0240                 0.0336                 0.0726
 IR Inten    --      1.8087                 2.1016                 0.8154

                      7                      8                      9
                      A                      A                      A
 Frequencies --    277.5641               307.1610               331.2695
 Red. masses --      2.0390                 3.6758                 1.5742
 Frc consts  --      0.0926                 0.2043                 0.1018
 IR Inten    --      8.7247                 0.0926                26.4541

                     10                     11                     12
                      A                      A                      A
 Frequencies --    343.5042               374.5092               453.2393
 Red. masses --      3.3062                 2.6456                 1.9258
 Frc consts  --      0.2298                 0.2186                 0.2331
 IR Inten    --      1.5732                11.9795                 2.9696

                     13                     14                     15
                      A                      A                      A
 Frequencies --    554.5660               585.3469               611.8530
 Red. masses --      5.0688                 2.2214                 1.1962
 Frc consts  --      0.9185                 0.4484                 0.2638
 IR Inten    --      2.5295                 9.4800                43.7605

                     16                     17                     18
                      A                      A                      A
 Frequencies --    662.6285               677.7946               795.7716
 Red. masses --      1.2344                 1.7834                 1.3017
 Frc consts  --      0.3193                 0.4827                 0.4857
 IR Inten    --     35.3229                12.9547                98.5140

                     19                     20                     21
                      A                      A                      A
 Frequencies --    831.5836               854.2812               938.8304
 Red. masses --      1.3158                 2.8263                 1.8196
 Frc consts  --      0.5361                 1.2152                 0.9449
 IR Inten    --    144.2545                 2.1256                 6.4001

                     22                     23                     24
                      A                      A                      A
 Frequencies --    963.7692               973.9965              1005.8784
 Red. masses --      1.4570                 2.5090                 1.8048
 Frc consts  --      0.7974                 1.4024                 1.0759
 IR Inten    --     22.7509                 4.6135                13.9215

                     25                     26                     27
                      A                      A                      A
 Frequencies --   1020.9050              1048.9942              1050.9288
 Red. masses --      1.5878                 2.1822                 1.2555
 Frc consts  --      0.9750                 1.4148                 0.8170
 IR Inten    --      6.0437                 5.9152                 7.2504

                     28                     29                     30
                      A                      A                      A
 Frequencies --   1110.5993              1143.1188              1152.6069
 Red. masses --      2.2749                 2.3378                 1.8413
 Frc consts  --      1.6532                 1.7999                 1.4413
 IR Inten    --     49.4393                27.8243                13.5538

                     31                     32                     33
                      A                      A                      A
 Frequencies --   1197.3723              1248.9516              1267.4145
 Red. masses --      1.2940                 1.6881                 1.2922
 Frc consts  --      1.0931                 1.5514                 1.2230
 IR Inten    --      9.3788                14.7466                 6.4704

                     34                     35                     36
                      A                      A                      A
 Frequencies --   1304.5826              1334.8488              1352.2187
 Red. masses --      1.2410                 1.2456                 1.2850
 Frc consts  --      1.2444                 1.3077                 1.3844
 IR Inten    --      6.4943                 1.4868                24.4998

                     37                     38                     39
                      A                      A                      A
 Frequencies --   1404.6754              1413.8326              1443.0868
 Red. masses --      1.3816                 1.3494                 1.2404
 Frc consts  --      1.6062                 1.5892                 1.5220
 IR Inten    --      3.4358                 9.5550                 9.1963

                     40                     41                     42
                      A                      A                      A
 Frequencies --   1483.5984              1493.7122              1508.0842
 Red. masses --      1.1981                 1.0885                 1.0883
 Frc consts  --      1.5537                 1.4309                 1.4583
 IR Inten    --     50.7503                 3.4152                 4.3364

                     43                     44                     45
                      A                      A                      A
 Frequencies --   1643.0344              1717.3174              2243.4828
 Red. masses --      1.1141                 4.7741                 5.9129
 Frc consts  --      1.7720                 8.2955                17.5347
 IR Inten    --     19.3376                 5.6308                 0.1345

                     46                     47                     48
                      A                      A                      A
 Frequencies --   2904.2336              2913.4513              3007.2765
 Red. masses --      1.0716                 1.0733                 1.0816
 Frc consts  --      5.3252                 5.3679                 5.7633
 IR Inten    --     49.2866                72.2387                19.6245

                     49                     50                     51
                      A                      A                      A
 Frequencies --   3022.7426              3035.2317              3133.7604
 Red. masses --      1.0835                 1.0873                 1.0799
 Frc consts  --      5.8327                 5.9017                 6.2484
 IR Inten    --     14.2191                36.3050                16.3946

                     52                     53                     54
                      A                      A                      A
 Frequencies --   3156.5717              3240.1169              3489.5334
 Red. masses --      1.0689                 1.1147                 1.0495
 Frc consts  --      6.2752                 6.8947                 7.5293
 IR Inten    --     10.0493                 7.9760                 0.4775

                     55                     56                     57
                      A                      A                      A
 Frequencies --   3506.6775              3516.9619              3586.4004
 Red. masses --      1.1630                 1.0731                 1.0922
 Frc consts  --      8.4261                 7.8204                 8.2770
 IR Inten    --     66.5268                 0.7304                 0.7830

 - Thermochemistry -
 -------------------
 Temperature   298.150 Kelvin.  Pressure   1.00000 Atm.
 Atom     1 has atomic number  6 and mass  12.00000

 Molecular mass:   124.10005 amu.
 Principal axes and moments of inertia in atomic units:
                           1         2         3
     Eigenvalues --   314.195933124.034353345.99042
           X            1.00000  -0.00178   0.00174
           Y            0.00176   0.99995   0.01010
           Z           -0.00176  -0.01009   0.99995
 This molecule is an asymmetric top.
 Rotational symmetry number  1.
 Rotational temperatures (Kelvin)      0.27567     0.02773     0.02589
 Rotational constants (GHZ):           5.74400     0.57770     0.53937
 Zero-point vibrational energy     474465.7 (Joules/Mol)
                                  113.40001 (Kcal/Mol)
 Warning -- explicit consideration of  15 degrees of freedom as
           vibrations may cause significant error
 Vibrational temperatures:     64.36   111.25   117.11   171.06   213.60
          (Kelvin)            307.60   399.35   441.94   476.62   494.23
                              538.84   652.11   797.90   842.18   880.32
                              953.37   975.20  1144.94  1196.46  1229.12
                             1350.77  1386.65  1401.36  1447.23  1468.85
                             1509.27  1512.05  1597.90  1644.69  1658.34
                             1722.75  1796.96  1823.53  1877.00  1920.55
                             1945.54  2021.01  2034.19  2076.28  2134.57
                             2149.12  2169.80  2363.96  2470.84  3227.87
                             4178.54  4191.81  4326.80  4349.05  4367.02
                             4508.78  4541.60  4661.81  5020.66  5045.33
                             5060.12  5160.03

 Zero-point correction=                           0.180714 (Hartree/Particle)
 Thermal correction to Energy=                    0.191446
 Thermal correction to Enthalpy=                  0.192391
 Thermal correction to Gibbs Free Energy=         0.144107
 Sum of electronic and zero-point Energies=           -383.204272
 Sum of electronic and thermal Energies=              -383.193540
 Sum of electronic and thermal Enthalpies=            -383.192595
 Sum of electronic and thermal Free Energies=         -383.240879

                     E (Thermal)             CV                S
                      KCal/Mol        Cal/Mol-Kelvin    Cal/Mol-Kelvin
 Total                  120.134             38.742            101.622
 Electronic               0.000              0.000              0.000
 Translational            0.889              2.981             40.362
 Rotational               0.889              2.981             29.575
 Vibrational            118.357             32.780             31.686
 Vibration     1          0.595              1.980              5.038
 Vibration     2          0.599              1.964              3.958
 Vibration     3          0.600              1.962              3.857
 Vibration     4          0.609              1.934              3.118
 Vibration     5          0.618              1.904              2.692
 Vibration     6          0.644              1.820              2.011
 Vibration     7          0.679              1.715              1.549
 Vibration     8          0.697              1.660              1.378
 Vibration     9          0.714              1.613              1.254
 Vibration    10          0.722              1.588              1.196
 Vibration    11          0.746              1.524              1.061
 Vibration    12          0.812              1.354              0.786
 Vibration    13          0.910              1.130              0.535
 Vibration    14          0.942              1.063              0.476
 Vibration    15          0.971              1.007              0.430

                           ! Non-Optimized Parameters !
 Normal termination of Gaussian 16 at Mon Jul  4 00:29:01 2022.
