 Gaussian 16, Revision A.03,
 Gaussian 16:  ES64L-G16RevA.03 25-Dec-2016

 -----------------------------
 # opt freq b3lyp/6-31g(2df,p)
 -----------------------------

 -------------------
 Title Card Required
 -------------------
 Symbolic Z-matrix:
 Charge =  0 Multiplicity = 1

 SCF Done:  E(RB3LYP) =  -344.114974937     A.U. after   16 cycles
 SCF Done:  E(RB3LYP) =  -344.156813207     A.U. after   14 cycles
 SCF Done:  E(RB3LYP) =  -344.161054706     A.U. after   14 cycles
 SCF Done:  E(RB3LYP) =  -344.142320494     A.U. after   16 cycles
 SCF Done:  E(RB3LYP) =  -344.160054656     A.U. after   14 cycles
 SCF Done:  E(RB3LYP) =  -344.161885393     A.U. after   11 cycles
 SCF Done:  E(RB3LYP) =  -344.161876881     A.U. after   13 cycles
 SCF Done:  E(RB3LYP) =  -344.162560855     A.U. after   12 cycles
 SCF Done:  E(RB3LYP) =  -344.162164346     A.U. after   15 cycles
 SCF Done:  E(RB3LYP) =  -344.162658320     A.U. after   12 cycles
 SCF Done:  E(RB3LYP) =  -344.162665274     A.U. after   11 cycles
 SCF Done:  E(RB3LYP) =  -344.162713114     A.U. after   12 cycles
 SCF Done:  E(RB3LYP) =  -344.162710896     A.U. after   10 cycles
 SCF Done:  E(RB3LYP) =  -344.162713221     A.U. after   10 cycles
 SCF Done:  E(RB3LYP) =  -344.162713932     A.U. after    8 cycles
 Optimization completed.
    -- Stationary point found.
 Normal termination of Gaussian 16 at Sun Jul  3 12:51:43 2022.

 ----------------------------------------------------------------------
 #N Geom=AllCheck Guess=TCheck SCRF=Check GenChk RB3LYP/6-31G(2df,p) Fr
 eq
 ----------------------------------------------------------------------

 Structure from the checkpoint file:  "CtCCtCCOCtC.chk"
 -------------------
 Title Card Required
 -------------------
 Charge =  0 Multiplicity = 1

                         Standard orientation:
 ---------------------------------------------------------------------
 Center     Atomic      Atomic             Coordinates (Angstroms)
 Number     Number       Type             X           Y           Z
 ---------------------------------------------------------------------
      1          6           0       -4.345855   -0.335683   -0.000266
      2          6           0       -3.161788   -0.101214   -0.000137
      3          6           0       -1.828175    0.165204    0.000020
      4          6           0       -0.641408    0.395814    0.000153
      5          6           0        0.768564    0.720452    0.000138
      6          8           0        1.544784   -0.510830    0.000713
      7          6           0        2.831370   -0.323920    0.000007
      8          6           0        4.022391   -0.172455   -0.000580
      9          1           0       -5.387137   -0.544790   -0.000380
     10          1           0        1.040471    1.303966    0.888377
     11          1           0        1.040631    1.303249   -0.888522
     12          1           0        5.077175   -0.064973   -0.001189
 ---------------------------------------------------------------------

 SCF Done:  E(RB3LYP) =  -344.162713932     A.U. after    1 cycles

 The electronic state is 1-A.
 Alpha  occ. eigenvalues --  -19.21270 -10.28895 -10.23046 -10.21975 -10.21616
 Alpha  occ. eigenvalues --  -10.21469 -10.20849 -10.16962  -1.10359  -0.82230
 Alpha  occ. eigenvalues --   -0.78750  -0.74147  -0.71942  -0.62552  -0.58080
 Alpha  occ. eigenvalues --   -0.53532  -0.51661  -0.50927  -0.50566  -0.41883
 Alpha  occ. eigenvalues --   -0.38929  -0.36035  -0.35349  -0.27275  -0.26281
 Alpha  occ. eigenvalues --   -0.26085  -0.24307
 Alpha virt. eigenvalues --   -0.04302  -0.02728   0.06085   0.08302   0.08422
 Alpha virt. eigenvalues --    0.10776   0.11759   0.13431   0.13756   0.19087
 Alpha virt. eigenvalues --    0.19485   0.21154   0.23670   0.27925   0.31611

 Mulliken charges:
               1
     1  C   -0.541944
     2  C    0.297983
     3  C   -0.205068
     4  C    0.357751
     5  C   -0.259177
     6  O   -0.241775
     7  C    0.263662
     8  C   -0.388154
     9  H    0.200915
    10  H    0.159716
    11  H    0.159724
    12  H    0.196366
 Sum of Mulliken charges =   0.00000

 Dipole moment (field-independent basis, Debye):
    X=             -1.1123    Y=              1.4627    Z=             -0.0009  Tot=              1.8376
 Quadrupole moment (field-independent basis, Debye-Ang):
   XX=            -32.0896   YY=            -44.9252   ZZ=            -45.5949
   XY=              4.2980   XZ=             -0.0024   YZ=              0.0007

  Exact polarizability: 163.810  12.884  41.423  -0.004   0.001  36.911
 Approx polarizability: 270.388  33.955  63.338  -0.005   0.000  53.681

                      1                      2                      3
                      A                      A                      A
 Frequencies --     37.3585                66.9796               145.8662
 Red. masses --      5.6515                 5.4591                 3.4469
 Frc consts  --      0.0046                 0.0144                 0.0432
 IR Inten    --      1.0318                 0.5337                 6.4676

                      4                      5                      6
                      A                      A                      A
 Frequencies --    173.6200               247.0151               338.3351
 Red. masses --      5.2134                 6.3359                 4.3364
 Frc consts  --      0.0926                 0.2278                 0.2925
 IR Inten    --      1.4910                 1.6018                 0.4329

                      7                      8                      9
                      A                      A                      A
 Frequencies --    407.2754               437.1366               525.3428
 Red. masses --      3.2677                 8.6821                 1.5511
 Frc consts  --      0.3194                 0.9775                 0.2522
 IR Inten    --     36.2589                 1.0626                25.7820

                     10                     11                     12
                      A                      A                      A
 Frequencies --    531.4504               539.1080               557.1604
 Red. masses --      9.9865                 4.9538                 7.4687
 Frc consts  --      1.6618                 0.8483                 1.3660
 IR Inten    --      1.9008                 6.4410                 2.3361

                     13                     14                     15
                      A                      A                      A
 Frequencies --    595.4083               624.6732               627.9867
 Red. masses --      1.3996                 1.2367                 1.2371
 Frc consts  --      0.2923                 0.2843                 0.2874
 IR Inten    --     34.1261                 1.4290                82.4768

                     16                     17                     18
                      A                      A                      A
 Frequencies --    769.1724               927.1922              1007.2552
 Red. masses --      5.0214                10.0460                 1.6373
 Frc consts  --      1.7503                 5.0884                 0.9787
 IR Inten    --     23.4402                77.7115                 0.8143

                     19                     20                     21
                      A                      A                      A
 Frequencies --   1137.9993              1192.7351              1235.1976
 Red. masses --     10.3368                 4.4597                 1.0584
 Frc consts  --      7.8872                 3.7380                 0.9514
 IR Inten    --    258.3227                21.2351                 2.2995

                     22                     23                     24
                      A                      A                      A
 Frequencies --   1392.6589              1483.4635              2187.2410
 Red. masses --      1.3567                 1.0875                 6.6256
 Frc consts  --      1.5503                 1.4100                18.6754
 IR Inten    --    150.2981                 1.4117                 5.8905

                     25                     26                     27
                      A                      A                      A
 Frequencies --   2294.1593              2369.7575              3021.9443
 Red. masses --      6.2350                10.7147                 1.0552
 Frc consts  --     19.3346                35.4519                 5.6776
 IR Inten    --    199.2765                 8.7547                13.2831

                     28                     29                     30
                      A                      A                      A
 Frequencies --   3061.3759              3502.9191              3512.8571
 Red. masses --      1.1067                 1.1559                 1.1595
 Frc consts  --      6.1109                 8.3570                 8.4300
 IR Inten    --      8.6814               120.7802               122.7418

 - Thermochemistry -
 -------------------
 Temperature   298.150 Kelvin.  Pressure   1.00000 Atm.
 Atom     1 has atomic number  6 and mass  12.00000

 Molecular mass:   104.02621 amu.
 Principal axes and moments of inertia in atomic units:
                           1         2         3
     Eigenvalues --    74.801162807.803702871.24136
           X            0.99998   0.00693  -0.00001
           Y           -0.00693   0.99998   0.00004
           Z            0.00001  -0.00004   1.00000
 This molecule is an asymmetric top.
 Rotational symmetry number  1.
 Rotational temperatures (Kelvin)      1.15792     0.03085     0.03017
 Rotational constants (GHZ):          24.12718     0.64276     0.62856
 Zero-point vibrational energy     209051.3 (Joules/Mol)
                                   49.96445 (Kcal/Mol)
 Warning -- explicit consideration of  13 degrees of freedom as
           vibrations may cause significant error
 Vibrational temperatures:     53.75    96.37   209.87   249.80   355.40
          (Kelvin)            486.79   585.98   628.94   755.85   764.64
                              775.66   801.63   856.66   898.77   903.53
                             1106.67  1334.02  1449.22  1637.33  1716.08
                             1777.17  2003.73  2134.37  3146.95  3300.78
                             3409.55  4347.90  4404.64  5039.92  5054.22

 Zero-point correction=                           0.079623 (Hartree/Particle)
 Thermal correction to Energy=                    0.088297
 Thermal correction to Enthalpy=                  0.089241
 Thermal correction to Gibbs Free Energy=         0.045819
 Sum of electronic and zero-point Energies=           -344.083091
 Sum of electronic and thermal Energies=              -344.074417
 Sum of electronic and thermal Enthalpies=            -344.073473
 Sum of electronic and thermal Free Energies=         -344.116895

                     E (Thermal)             CV                S
                      KCal/Mol        Cal/Mol-Kelvin    Cal/Mol-Kelvin
 Total                   55.407             29.941             91.390
 Electronic               0.000              0.000              0.000
 Translational            0.889              2.981             39.836
 Rotational               0.889              2.981             27.891
 Vibrational             53.630             23.979             23.663
 Vibration     1          0.594              1.982              5.394
 Vibration     2          0.598              1.970              4.240
 Vibration     3          0.617              1.907              2.725
 Vibration     4          0.627              1.875              2.396
 Vibration     5          0.661              1.768              1.752
 Vibration     6          0.719              1.599              1.220
 Vibration     7          0.772              1.454              0.936
 Vibration     8          0.797              1.389              0.836
 Vibration     9          0.880              1.194              0.598
 Vibration    10          0.886              1.180              0.584
 Vibration    11          0.894              1.164              0.567
 Vibration    12          0.913              1.124              0.530
 Vibration    13          0.953              1.042              0.458

 Optimization completed.
    -- Stationary point found.
 Normal termination of Gaussian 16 at Sun Jul  3 13:02:48 2022.
