 Gaussian 16, Revision A.03,
 Gaussian 16:  ES64L-G16RevA.03 25-Dec-2016

 -----------------------------
 # opt freq b3lyp/6-31g(2df,p)
 -----------------------------

 -------------------
 Title Card Required
 -------------------
 Symbolic Z-matrix:
 Charge =  0 Multiplicity = 1

 SCF Done:  E(RB3LYP) =  -403.257048830     A.U. after   13 cycles
 SCF Done:  E(RB3LYP) =  -403.279164029     A.U. after   12 cycles
 SCF Done:  E(RB3LYP) =  -403.281354024     A.U. after   12 cycles
 SCF Done:  E(RB3LYP) =  -403.272007804     A.U. after   14 cycles
 SCF Done:  E(RB3LYP) =  -403.280769116     A.U. after   12 cycles
 SCF Done:  E(RB3LYP) =  -403.281834333     A.U. after   10 cycles
 SCF Done:  E(RB3LYP) =  -403.281565590     A.U. after   12 cycles
 SCF Done:  E(RB3LYP) =  -403.282348153     A.U. after   10 cycles
 SCF Done:  E(RB3LYP) =  -403.282469415     A.U. after   10 cycles
 SCF Done:  E(RB3LYP) =  -403.282464337     A.U. after   10 cycles
 SCF Done:  E(RB3LYP) =  -403.282495866     A.U. after   10 cycles
 SCF Done:  E(RB3LYP) =  -403.282510683     A.U. after    9 cycles
 SCF Done:  E(RB3LYP) =  -403.282524466     A.U. after    9 cycles
 SCF Done:  E(RB3LYP) =  -403.282537927     A.U. after   10 cycles
 SCF Done:  E(RB3LYP) =  -403.282541068     A.U. after    8 cycles
 SCF Done:  E(RB3LYP) =  -403.282541614     A.U. after    8 cycles
 Optimization completed.
    -- Stationary point found.
 Normal termination of Gaussian 16 at Thu Aug  4 05:15:28 2022.

 ----------------------------------------------------------------------
 #N Geom=AllCheck Guess=TCheck SCRF=Check GenChk RB3LYP/6-31G(2df,p) Fr
 eq
 ----------------------------------------------------------------------

 Structure from the checkpoint file:  "CtCCpCpC1NCCO1.chk"
 -------------------
 Title Card Required
 -------------------
 Charge =  0 Multiplicity = 1

                         Standard orientation:
 ---------------------------------------------------------------------
 Center     Atomic      Atomic             Coordinates (Angstroms)
 Number     Number       Type             X           Y           Z
 ---------------------------------------------------------------------
      1          6           0        2.893829   -1.401944    0.037023
      2          6           0        2.019534   -0.590138    0.183499
      3          6           0        0.994449    0.439087    0.336050
      4          6           0        1.565376    1.837621    0.034608
      5          6           0       -0.229821    0.138747   -0.562920
      6          7           0       -1.327825    1.069990   -0.311007
      7          6           0       -2.264370    0.325851    0.545547
      8          6           0       -2.071944   -1.123979    0.086210
      9          8           0       -0.701360   -1.184609   -0.282117
     10          1           0        3.650428   -2.136743   -0.083634
     11          1           0        0.631663    0.422293    1.372497
     12          1           0        1.938379    1.888579   -0.993527
     13          1           0        2.398829    2.064052    0.703825
     14          1           0        0.784309    2.589969    0.163171
     15          1           0        0.081875    0.204876   -1.614261
     16          1           0       -1.786597    1.283101   -1.189837
     17          1           0       -3.282867    0.700939    0.426636
     18          1           0       -1.978286    0.440986    1.596929
     19          1           0       -2.718710   -1.354845   -0.775369
     20          1           0       -2.255689   -1.867733    0.867449
 ---------------------------------------------------------------------

 SCF Done:  E(RB3LYP) =  -403.282541614     A.U. after    1 cycles

 The electronic state is 1-A.
 Alpha  occ. eigenvalues --  -19.13563 -14.32769 -10.25778 -10.22871 -10.21554
 Alpha  occ. eigenvalues --  -10.20388 -10.17332 -10.16932 -10.15981  -1.04448
 Alpha  occ. eigenvalues --   -0.89653  -0.80865  -0.74282  -0.71198  -0.65014
 Alpha  occ. eigenvalues --   -0.61591  -0.59096  -0.54143  -0.50962  -0.48935
 Alpha  occ. eigenvalues --   -0.46102  -0.44880  -0.44008  -0.41921  -0.38776
 Alpha  occ. eigenvalues --   -0.38128  -0.37513  -0.36015  -0.35140  -0.32741
 Alpha  occ. eigenvalues --   -0.26597  -0.25417  -0.25172  -0.23894
 Alpha virt. eigenvalues --    0.05860   0.06494   0.07593   0.10428   0.12054
 Alpha virt. eigenvalues --    0.13518   0.13782   0.14308   0.14721   0.15066
 Alpha virt. eigenvalues --    0.17229   0.18156   0.19188   0.19968   0.20574

 Mulliken charges:
               1
     1  C   -0.475660
     2  C    0.345480
     3  C   -0.157991
     4  C   -0.396339
     5  C    0.121732
     6  N   -0.306508
     7  C   -0.195789
     8  C   -0.073755
     9  O   -0.259754
    10  H    0.190018
    11  H    0.101011
    12  H    0.119115
    13  H    0.123509
    14  H    0.130630
    15  H    0.082351
    16  H    0.226517
    17  H    0.109410
    18  H    0.117566
    19  H    0.087218
    20  H    0.111239
 Sum of Mulliken charges =  -0.00000

 Dipole moment (field-independent basis, Debye):
    X=             -1.9978    Y=              0.8064    Z=             -0.3327  Tot=              2.1800
 Quadrupole moment (field-independent basis, Debye-Ang):
   XX=            -47.9274   YY=            -56.2046   ZZ=            -51.9946
   XY=             -0.9957   XZ=              0.2019   YZ=             -1.4226

  Exact polarizability:  98.181  -8.409  80.974  -2.531  -0.426  63.869
 Approx polarizability: 129.460 -21.206 119.730  -5.389   0.545  98.196

                      1                      2                      3
                      A                      A                      A
 Frequencies --     58.5528                68.3849               129.5342
 Red. masses --      3.9417                 3.0914                 4.0549
 Frc consts  --      0.0080                 0.0085                 0.0401
 IR Inten    --      3.0123                 0.6769                 0.6543

                      4                      5                      6
                      A                      A                      A
 Frequencies --    207.6047               222.9544               241.3599
 Red. masses --      2.1681                 1.3336                 2.1598
 Frc consts  --      0.0551                 0.0391                 0.0741
 IR Inten    --      0.3974                 0.2217                 0.6521

                      7                      8                      9
                      A                      A                      A
 Frequencies --    267.9123               383.2095               423.5495
 Red. masses --      2.3806                 4.8028                 3.0355
 Frc consts  --      0.1007                 0.4155                 0.3208
 IR Inten    --      0.9438                 1.6034                10.8628

                     10                     11                     12
                      A                      A                      A
 Frequencies --    497.3745               557.7309               624.9781
 Red. masses --      5.1107                 4.3793                 1.2270
 Frc consts  --      0.7449                 0.8026                 0.2824
 IR Inten    --      5.0329                 8.1023                42.7911

                     13                     14                     15
                      A                      A                      A
 Frequencies --    634.3252               638.7056               746.7454
 Red. masses --      1.2364                 1.9230                 7.5908
 Frc consts  --      0.2931                 0.4622                 2.4939
 IR Inten    --     44.2128                 0.8949                 2.3590

                     16                     17                     18
                      A                      A                      A
 Frequencies --    807.6528               863.7178               897.7327
 Red. masses --      1.6582                 1.9740                 2.1561
 Frc consts  --      0.6373                 0.8676                 1.0238
 IR Inten    --     76.6370                31.3481                 0.5597

                     19                     20                     21
                      A                      A                      A
 Frequencies --    915.9714               936.4122               949.2434
 Red. masses --      1.8208                 2.6308                 2.5493
 Frc consts  --      0.9001                 1.3592                 1.3534
 IR Inten    --     12.4598                14.7889                21.1027

                     22                     23                     24
                      A                      A                      A
 Frequencies --    990.6580              1058.5189              1075.9148
 Red. masses --      2.6194                 2.0148                 5.1743
 Frc consts  --      1.5146                 1.3301                 3.5291
 IR Inten    --      3.1034                 1.4372                51.2673

                     25                     26                     27
                      A                      A                      A
 Frequencies --   1091.9820              1116.9419              1149.1781
 Red. masses --      2.5599                 2.0028                 2.9289
 Frc consts  --      1.7985                 1.4721                 2.2789
 IR Inten    --     16.7469                63.4882               121.6344

                     28                     29                     30
                      A                      A                      A
 Frequencies --   1175.5600              1214.5336              1239.9095
 Red. masses --      1.9744                 1.2048                 1.2254
 Frc consts  --      1.6076                 1.0471                 1.1100
 IR Inten    --      2.2847                 3.3568                 3.8913

                     31                     32                     33
                      A                      A                      A
 Frequencies --   1287.2246              1315.7887              1320.3591
 Red. masses --      1.3361                 1.4405                 1.2212
 Frc consts  --      1.3044                 1.4694                 1.2543
 IR Inten    --      1.2462                 9.8271                 0.2548

                     34                     35                     36
                      A                      A                      A
 Frequencies --   1357.4088              1380.7748              1392.0219
 Red. masses --      1.3315                 1.3018                 1.2630
 Frc consts  --      1.4455                 1.4624                 1.4419
 IR Inten    --      6.4693                 2.2491                 2.7590

                     37                     38                     39
                      A                      A                      A
 Frequencies --   1408.1681              1464.5380              1494.4288
 Red. masses --      1.3161                 1.1970                 1.0469
 Frc consts  --      1.5377                 1.5127                 1.3776
 IR Inten    --     28.6626                 2.8226                 3.9179

                     40                     41                     42
                      A                      A                      A
 Frequencies --   1500.1273              1501.2701              1523.2348
 Red. masses --      1.0856                 1.0604                 1.0940
 Frc consts  --      1.4394                 1.4082                 1.4956
 IR Inten    --      2.9272                 4.5241                 0.8381

                     43                     44                     45
                      A                      A                      A
 Frequencies --   2235.9747              2974.3933              3006.1135
 Red. masses --      5.9418                 1.0711                 1.0831
 Frc consts  --     17.5026                 5.5832                 5.7669
 IR Inten    --      2.6193                83.5911                18.4083

                     46                     47                     48
                      A                      A                      A
 Frequencies --   3023.8060              3044.2643              3045.0539
 Red. masses --      1.0844                 1.0512                 1.0507
 Frc consts  --      5.8421                 5.7400                 5.7402
 IR Inten    --     34.1600                22.3022                35.2497

                     49                     50                     51
                      A                      A                      A
 Frequencies --   3080.2054              3114.8386              3116.0864
 Red. masses --      1.0919                 1.1009                 1.1001
 Frc consts  --      6.1035                 6.2933                 6.2938
 IR Inten    --     40.7522                23.8241                25.3348

                     52                     53                     54
                      A                      A                      A
 Frequencies --   3137.2629              3506.8205              3530.8224
 Red. masses --      1.1029                 1.1616                 1.0749
 Frc consts  --      6.3955                 8.4162                 7.8956
 IR Inten    --     14.2600                64.4878                 1.0428

 - Thermochemistry -
 -------------------
 Temperature   298.150 Kelvin.  Pressure   1.00000 Atm.
 Atom     1 has atomic number  6 and mass  12.00000

 Molecular mass:   125.08406 amu.
 Principal axes and moments of inertia in atomic units:
                           1         2         3
     Eigenvalues --   628.981291482.457651943.86775
           X            0.99973   0.02272  -0.00539
           Y           -0.02275   0.99973  -0.00520
           Z            0.00527   0.00532   0.99997
 This molecule is an asymmetric top.
 Rotational symmetry number  1.
 Warning -- assumption of classical behavior for rotation
           may cause significant error
 Rotational temperatures (Kelvin)      0.13771     0.05843     0.04456
 Rotational constants (GHZ):           2.86931     1.21740     0.92843
 Zero-point vibrational energy     448287.6 (Joules/Mol)
                                  107.14331 (Kcal/Mol)
 Warning -- explicit consideration of  11 degrees of freedom as
           vibrations may cause significant error
 Vibrational temperatures:     84.24    98.39   186.37   298.70   320.78
          (Kelvin)            347.26   385.47   551.35   609.39   715.61
                              802.45   899.20   912.65   918.95  1074.40
                             1162.03  1242.70  1291.64  1317.88  1347.29
                             1365.75  1425.34  1522.97  1548.00  1571.12
                             1607.03  1653.41  1691.37  1747.44  1783.95
                             1852.03  1893.13  1899.70  1953.01  1986.63
                             2002.81  2026.04  2107.14  2150.15  2158.35
                             2159.99  2191.60  3217.07  4279.49  4325.13
                             4350.58  4380.02  4381.15  4431.73  4481.56
                             4483.35  4513.82  5045.53  5080.07

 Zero-point correction=                           0.170744 (Hartree/Particle)
 Thermal correction to Energy=                    0.180091
 Thermal correction to Enthalpy=                  0.181035
 Thermal correction to Gibbs Free Energy=         0.136090
 Sum of electronic and zero-point Energies=           -403.111798
 Sum of electronic and thermal Energies=              -403.102451
 Sum of electronic and thermal Enthalpies=            -403.101507
 Sum of electronic and thermal Free Energies=         -403.146451

                     E (Thermal)             CV                S
                      KCal/Mol        Cal/Mol-Kelvin    Cal/Mol-Kelvin
 Total                  113.009             34.632             94.594
 Electronic               0.000              0.000              0.000
 Translational            0.889              2.981             40.385
 Rotational               0.889              2.981             28.984
 Vibrational            111.231             28.670             25.225
 Vibration     1          0.596              1.974              4.505
 Vibration     2          0.598              1.969              4.199
 Vibration     3          0.612              1.924              2.953
 Vibration     4          0.641              1.829              2.065
 Vibration     5          0.649              1.806              1.935
 Vibration     6          0.658              1.777              1.793
 Vibration     7          0.673              1.732              1.610
 Vibration     8          0.752              1.506              1.026
 Vibration     9          0.786              1.419              0.880
 Vibration    10          0.853              1.256              0.665
 Vibration    11          0.913              1.123              0.528

 Optimization completed.
    -- Stationary point found.
 Normal termination of Gaussian 16 at Thu Aug  4 05:54:08 2022.
