 Gaussian 16, Revision A.03,
 Gaussian 16:  ES64L-G16RevA.03 25-Dec-2016

 -----------------------------
 # opt freq b3lyp/6-31g(2df,p)
 -----------------------------

 -------------------
 Title Card Required
 -------------------
 Symbolic Z-matrix:
 Charge =  0 Multiplicity = 1

 SCF Done:  E(RB3LYP) =  -363.865870711     A.U. after   14 cycles
 SCF Done:  E(RB3LYP) =  -363.887677608     A.U. after   13 cycles
 SCF Done:  E(RB3LYP) =  -363.888398147     A.U. after   13 cycles
 SCF Done:  E(RB3LYP) =  -363.879046150     A.U. after   14 cycles
 SCF Done:  E(RB3LYP) =  -363.888941356     A.U. after   12 cycles
 SCF Done:  E(RB3LYP) =  -363.887783182     A.U. after   12 cycles
 SCF Done:  E(RB3LYP) =  -363.888779828     A.U. after   12 cycles
 SCF Done:  E(RB3LYP) =  -363.889093739     A.U. after    9 cycles
 SCF Done:  E(RB3LYP) =  -363.889164972     A.U. after   11 cycles
 SCF Done:  E(RB3LYP) =  -363.889196874     A.U. after    9 cycles
 SCF Done:  E(RB3LYP) =  -363.889203468     A.U. after    9 cycles
 SCF Done:  E(RB3LYP) =  -363.889203982     A.U. after    7 cycles
 SCF Done:  E(RB3LYP) =  -363.889204082     A.U. after    7 cycles
 Optimization completed.
    -- Stationary point found.
 Normal termination of Gaussian 16 at Sun Jul  3 10:57:18 2022.

 ----------------------------------------------------------------------
 #N Geom=AllCheck Guess=TCheck SCRF=Check GenChk RB3LYP/6-31G(2df,p) Fr
 eq
 ----------------------------------------------------------------------

 Structure from the checkpoint file:  "CtCCpCpCN1CO1.chk"
 -------------------
 Title Card Required
 -------------------
 Charge =  0 Multiplicity = 1

                         Standard orientation:
 ---------------------------------------------------------------------
 Center     Atomic      Atomic             Coordinates (Angstroms)
 Number     Number       Type             X           Y           Z
 ---------------------------------------------------------------------
      1          6           0       -3.277766   -0.813810    0.298410
      2          6           0       -2.236877   -0.327977   -0.055635
      3          6           0       -0.962377    0.263390   -0.456488
      4          6           0       -0.827495    1.705836    0.071329
      5          6           0        0.194375   -0.651837    0.004018
      6          7           0        1.457845   -0.159378   -0.559062
      7          6           0        2.343439    0.438226    0.389649
      8          8           0        2.577226   -0.905863    0.081934
      9          1           0       -4.202182   -1.242749    0.596876
     10          1           0       -0.923904    0.296880   -1.553188
     11          1           0       -0.818224    1.719436    1.165773
     12          1           0       -1.669199    2.315747   -0.265328
     13          1           0        0.095109    2.163845   -0.295426
     14          1           0        0.035566   -1.657647   -0.392915
     15          1           0        0.223496   -0.720158    1.100449
     16          1           0        1.978586    0.642705    1.398772
     17          1           0        3.058240    1.161522   -0.004748
 ---------------------------------------------------------------------

 SCF Done:  E(RB3LYP) =  -363.889204082     A.U. after    1 cycles

 The electronic state is 1-A.
 Alpha  occ. eigenvalues --  -19.17860 -14.38897 -10.26855 -10.22278 -10.22100
 Alpha  occ. eigenvalues --  -10.18949 -10.18409 -10.17535  -1.11913  -0.85180
 Alpha  occ. eigenvalues --   -0.78609  -0.72673  -0.69465  -0.65253  -0.60767
 Alpha  occ. eigenvalues --   -0.53240  -0.50856  -0.50409  -0.47260  -0.45868
 Alpha  occ. eigenvalues --   -0.42159  -0.41320  -0.39206  -0.37199  -0.36437
 Alpha  occ. eigenvalues --   -0.33913  -0.31387  -0.27081  -0.26899  -0.25092
 Alpha virt. eigenvalues --    0.03658   0.05014   0.06058   0.07766   0.09893
 Alpha virt. eigenvalues --    0.11832   0.12619   0.13704   0.13990   0.15470
 Alpha virt. eigenvalues --    0.17138   0.17911   0.18194   0.19257   0.22946

 Mulliken charges:
               1
     1  C   -0.457180
     2  C    0.317654
     3  C   -0.172258
     4  C   -0.393930
     5  C   -0.112578
     6  N   -0.052292
     7  C   -0.090772
     8  O   -0.230780
     9  H    0.197609
    10  H    0.124335
    11  H    0.123869
    12  H    0.132637
    13  H    0.126376
    14  H    0.133379
    15  H    0.109602
    16  H    0.118899
    17  H    0.125428
 Sum of Mulliken charges =   0.00000

 Dipole moment (field-independent basis, Debye):
    X=             -0.7754    Y=              1.6053    Z=              1.1112  Tot=              2.1007
 Quadrupole moment (field-independent basis, Debye-Ang):
   XX=            -47.7877   YY=            -47.1426   ZZ=            -48.0488
   XY=              5.8856   XZ=              1.6051   YZ=             -0.1146

  Exact polarizability:  94.822  10.899  64.755  -2.803  -0.654  54.472
 Approx polarizability: 130.962  14.992  96.553  -6.771  -3.501  87.486

                      1                      2                      3
                      A                      A                      A
 Frequencies --     70.2532                90.2980               127.0188
 Red. masses --      3.1151                 3.6451                 4.5088
 Frc consts  --      0.0091                 0.0175                 0.0429
 IR Inten    --      2.3030                 2.8230                 0.9841

                      4                      5                      6
                      A                      A                      A
 Frequencies --    196.2601               240.7172               290.5117
 Red. masses --      3.0458                 1.2530                 2.5559
 Frc consts  --      0.0691                 0.0428                 0.1271
 IR Inten    --      0.7126                 0.7936                 1.9038

                      7                      8                      9
                      A                      A                      A
 Frequencies --    321.6436               390.9162               476.5794
 Red. masses --      3.0356                 5.5191                 2.1420
 Frc consts  --      0.1850                 0.4969                 0.2866
 IR Inten    --      4.0040                 2.4527                 5.8102

                     10                     11                     12
                      A                      A                      A
 Frequencies --    527.9248               545.3738               631.1558
 Red. masses --      3.5161                 4.4595                 1.2084
 Frc consts  --      0.5774                 0.7815                 0.2836
 IR Inten    --      2.1953                11.3306                43.5775

                     13                     14                     15
                      A                      A                      A
 Frequencies --    646.0971               767.1480               829.1528
 Red. masses --      1.2352                 9.5971                 3.0134
 Frc consts  --      0.3038                 3.3277                 1.2206
 IR Inten    --     42.1369                17.3297                 1.9604

                     16                     17                     18
                      A                      A                      A
 Frequencies --    848.5675               924.7552               939.3029
 Red. masses --      4.1651                 1.2404                 2.1474
 Frc consts  --      1.7671                 0.6250                 1.1163
 IR Inten    --     12.8695                 1.3748                 2.0440

                     19                     20                     21
                      A                      A                      A
 Frequencies --   1003.9352              1064.7420              1110.3579
 Red. masses --      1.6300                 2.1526                 3.5286
 Frc consts  --      0.9680                 1.4378                 2.5632
 IR Inten    --      9.3708                 8.6604                 6.3749

                     22                     23                     24
                      A                      A                      A
 Frequencies --   1115.2779              1146.2322              1181.8585
 Red. masses --      1.7291                 1.4542                 1.7918
 Frc consts  --      1.2672                 1.1257                 1.4746
 IR Inten    --      0.9575                 1.8559                 7.3030

                     25                     26                     27
                      A                      A                      A
 Frequencies --   1219.3083              1253.7646              1299.2419
 Red. masses --      1.2687                 1.3507                 1.4616
 Frc consts  --      1.1113                 1.2510                 1.4537
 IR Inten    --      0.8485                 5.0062                12.4170

                     28                     29                     30
                      A                      A                      A
 Frequencies --   1324.5605              1345.5596              1372.3525
 Red. masses --      2.4484                 1.4095                 1.4149
 Frc consts  --      2.5309                 1.5036                 1.5701
 IR Inten    --      9.0094                 8.8612                 1.8562

                     31                     32                     33
                      A                      A                      A
 Frequencies --   1407.2437              1493.0835              1496.0865
 Red. masses --      1.2282                 1.0787                 1.0495
 Frc consts  --      1.4330                 1.4169                 1.3840
 IR Inten    --      3.2889                 3.3885                 2.5537

                     34                     35                     36
                      A                      A                      A
 Frequencies --   1502.5163              1539.3226              2237.0338
 Red. masses --      1.0572                 1.1509                 5.9282
 Frc consts  --      1.4062                 1.6068                17.4792
 IR Inten    --      7.6741                 4.7169                 1.8085

                     37                     38                     39
                      A                      A                      A
 Frequencies --   3009.5028              3026.6236              3043.0831
 Red. masses --      1.0685                 1.0790                 1.0354
 Frc consts  --      5.7019                 5.8235                 5.6493
 IR Inten    --     12.5159                14.6361                14.8472

                     40                     41                     42
                      A                      A                      A
 Frequencies --   3057.8147              3099.9152              3116.8894
 Red. masses --      1.0489                 1.0969                 1.1019
 Frc consts  --      5.7783                 6.2103                 6.3069
 IR Inten    --     32.5360                14.0399                20.6793

                     43                     44                     45
                      A                      A                      A
 Frequencies --   3125.9635              3147.8627              3504.6897
 Red. masses --      1.1022                 1.1192                 1.1622
 Frc consts  --      6.3455                 6.5343                 8.4106
 IR Inten    --     22.1502                29.4158                69.7375

 - Thermochemistry -
 -------------------
 Temperature   298.150 Kelvin.  Pressure   1.00000 Atm.
 Atom     1 has atomic number  6 and mass  12.00000

 Molecular mass:   111.06841 amu.
 Principal axes and moments of inertia in atomic units:
                           1         2         3
     Eigenvalues --   368.007861656.422621898.68028
           X            0.99992   0.01203   0.00316
           Y           -0.01205   0.99991   0.00565
           Z           -0.00310  -0.00569   0.99998
 This molecule is an asymmetric top.
 Rotational symmetry number  1.
 Rotational temperatures (Kelvin)      0.23536     0.05229     0.04562
 Rotational constants (GHZ):           4.90408     1.08954     0.95052
 Zero-point vibrational energy     365510.0 (Joules/Mol)
                                   87.35898 (Kcal/Mol)
 Warning -- explicit consideration of  11 degrees of freedom as
           vibrations may cause significant error
 Vibrational temperatures:    101.08   129.92   182.75   282.37   346.34
          (Kelvin)            417.98   462.77   562.44   685.69   759.57
                              784.67   908.09   929.59  1103.75  1192.97
                             1220.90  1330.52  1351.45  1444.44  1531.93
                             1597.56  1604.64  1649.17  1700.43  1754.31
                             1803.89  1869.32  1905.75  1935.96  1974.51
                             2024.71  2148.21  2152.53  2161.79  2214.74
                             3218.59  4330.00  4354.64  4378.32  4399.51
                             4460.09  4484.51  4497.56  4529.07  5042.47

 Zero-point correction=                           0.139215 (Hartree/Particle)
 Thermal correction to Energy=                    0.147974
 Thermal correction to Enthalpy=                  0.148918
 Thermal correction to Gibbs Free Energy=         0.105594
 Sum of electronic and zero-point Energies=           -363.749989
 Sum of electronic and thermal Energies=              -363.741230
 Sum of electronic and thermal Enthalpies=            -363.740286
 Sum of electronic and thermal Free Energies=         -363.783610

                     E (Thermal)             CV                S
                      KCal/Mol        Cal/Mol-Kelvin    Cal/Mol-Kelvin
 Total                   92.855             31.568             91.182
 Electronic               0.000              0.000              0.000
 Translational            0.889              2.981             40.031
 Rotational               0.889              2.981             28.539
 Vibrational             91.077             25.606             22.612
 Vibration     1          0.598              1.968              4.146
 Vibration     2          0.602              1.956              3.654
 Vibration     3          0.611              1.926              2.991
 Vibration     4          0.636              1.845              2.168
 Vibration     5          0.658              1.778              1.798
 Vibration     6          0.686              1.691              1.471
 Vibration     7          0.707              1.632              1.302
 Vibration     8          0.759              1.490              0.997
 Vibration     9          0.833              1.302              0.719
 Vibration    10          0.883              1.188              0.592
 Vibration    11          0.901              1.150              0.554

 Optimization completed.
    -- Stationary point found.
 Normal termination of Gaussian 16 at Sun Jul  3 11:16:40 2022.
