 Gaussian 16, Revision A.03,
 Gaussian 16:  ES64L-G16RevA.03 25-Dec-2016

 -----------------------------
 # opt freq b3lyp/6-31g(2df,p)
 -----------------------------

 -------------------
 Title Card Required
 -------------------
 Symbolic Z-matrix:
 Charge =  0 Multiplicity = 1

 SCF Done:  E(RB3LYP) =  -379.660871962     A.U. after   16 cycles
 SCF Done:  E(RB3LYP) =  -379.711099757     A.U. after   14 cycles
 SCF Done:  E(RB3LYP) =  -379.716311203     A.U. after   15 cycles
 SCF Done:  E(RB3LYP) =  -379.701133017     A.U. after   16 cycles
 SCF Done:  E(RB3LYP) =  -379.715195855     A.U. after   14 cycles
 SCF Done:  E(RB3LYP) =  -379.716821937     A.U. after   11 cycles
 SCF Done:  E(RB3LYP) =  -379.716851576     A.U. after   15 cycles
 SCF Done:  E(RB3LYP) =  -379.717149935     A.U. after   13 cycles
 SCF Done:  E(RB3LYP) =  -379.717126832     A.U. after   12 cycles
 SCF Done:  E(RB3LYP) =  -379.717185125     A.U. after   12 cycles
 SCF Done:  E(RB3LYP) =  -379.717245499     A.U. after   11 cycles
 SCF Done:  E(RB3LYP) =  -379.717239404     A.U. after   12 cycles
 SCF Done:  E(RB3LYP) =  -379.717268440     A.U. after   11 cycles
 SCF Done:  E(RB3LYP) =  -379.717275305     A.U. after    9 cycles
 SCF Done:  E(RB3LYP) =  -379.717276399     A.U. after    9 cycles
 SCF Done:  E(RB3LYP) =  -379.717276974     A.U. after    8 cycles
 Optimization completed.
    -- Stationary point found.
 Normal termination of Gaussian 16 at Thu Aug  4 09:22:24 2022.

 ----------------------------------------------------------------------
 #N Geom=AllCheck Guess=TCheck SCRF=Check GenChk RB3LYP/6-31G(2df,p) Fr
 eq
 ----------------------------------------------------------------------

 Structure from the checkpoint file:  "CtCCpCppNpCtCCtN.chk"
 -------------------
 Title Card Required
 -------------------
 Charge =  0 Multiplicity = 1

                         Standard orientation:
 ---------------------------------------------------------------------
 Center     Atomic      Atomic             Coordinates (Angstroms)
 Number     Number       Type             X           Y           Z
 ---------------------------------------------------------------------
      1          6           0       -2.308149    1.992039    0.030952
      2          6           0       -1.715349    0.949518   -0.015864
      3          6           0       -1.029475   -0.352285   -0.040036
      4          6           0       -1.401120   -1.150144    1.241960
      5          7           0       -1.383848   -1.044199   -1.296634
      6          6           0        0.427512   -0.126788   -0.047813
      7          6           0        1.625167    0.021586   -0.023814
      8          6           0        2.979717    0.194499   -0.002154
      9          7           0        4.132182    0.337662    0.019557
     10          1           0       -2.819438    2.923028    0.060736
     11          1           0       -2.481838   -1.314130    1.258129
     12          1           0       -1.114204   -0.605841    2.145007
     13          1           0       -0.889311   -2.116705    1.234677
     14          1           0       -2.396009   -1.122560   -1.346756
     15          1           0       -1.007362   -1.988587   -1.271643
 ---------------------------------------------------------------------

 SCF Done:  E(RB3LYP) =  -379.717276974     A.U. after    1 cycles

 The electronic state is 1-A.
 Alpha  occ. eigenvalues --  -14.34588 -14.34136 -10.29532 -10.24229 -10.23556
 Alpha  occ. eigenvalues --  -10.22910 -10.20857 -10.20438 -10.19823  -0.93334
 Alpha  occ. eigenvalues --   -0.91516  -0.81469  -0.78290  -0.74698  -0.68946
 Alpha  occ. eigenvalues --   -0.64584  -0.57445  -0.52845  -0.49518  -0.46668
 Alpha  occ. eigenvalues --   -0.45768  -0.41404  -0.41124  -0.38781  -0.38590
 Alpha  occ. eigenvalues --   -0.37406  -0.30720  -0.29558  -0.28960  -0.28455
 Alpha  occ. eigenvalues --   -0.27064
 Alpha virt. eigenvalues --   -0.04785  -0.04114   0.03010   0.03903   0.07025
 Alpha virt. eigenvalues --    0.10810   0.11830   0.12911   0.13908   0.15064
 Alpha virt. eigenvalues --    0.15877   0.16900   0.18420   0.19209   0.22329

 Mulliken charges:
               1
     1  C   -0.473276
     2  C    0.399257
     3  C   -0.224393
     4  C   -0.402074
     5  N   -0.509748
     6  C    0.285286
     7  C   -0.046116
     8  C    0.208217
     9  N   -0.333424
    10  H    0.212861
    11  H    0.130840
    12  H    0.144889
    13  H    0.128093
    14  H    0.241165
    15  H    0.238424
 Sum of Mulliken charges =  -0.00000

 Dipole moment (field-independent basis, Debye):
    X=             -5.2888    Y=             -1.5177    Z=              0.9551  Tot=              5.5845
 Quadrupole moment (field-independent basis, Debye-Ang):
   XX=            -64.1621   YY=            -43.8411   ZZ=            -53.2800
   XY=             -2.0142   XZ=             -0.3467   YZ=              0.8845

  Exact polarizability: 130.277  -4.019  73.814   0.476   1.113  53.566
 Approx polarizability: 222.453  -4.055 113.248   2.589   3.576  76.745

                      1                      2                      3
                      A                      A                      A
 Frequencies --     69.3843                90.1662               169.5493
 Red. masses --      5.8071                 5.5995                 4.4185
 Frc consts  --      0.0165                 0.0268                 0.0748
 IR Inten    --      0.5362                 0.6241                 2.5359

                      4                      5                      6
                      A                      A                      A
 Frequencies --    180.3568               226.4834               236.5996
 Red. masses --      3.0146                 1.3874                 5.6873
 Frc consts  --      0.0578                 0.0419                 0.1876
 IR Inten    --      1.9684                41.2111                 6.7664

                      7                      8                      9
                      A                      A                      A
 Frequencies --    256.9749               291.7845               357.5106
 Red. masses --      1.2496                 2.0944                 3.0771
 Frc consts  --      0.0486                 0.1051                 0.2317
 IR Inten    --      3.4745                 7.2251                 4.1954

                     10                     11                     12
                      A                      A                      A
 Frequencies --    431.3143               487.2417               513.7472
 Red. masses --      5.1693                 6.4515                 7.8762
 Frc consts  --      0.5666                 0.9024                 1.2248
 IR Inten    --      3.6824                 2.3943                 5.5098

                     13                     14                     15
                      A                      A                      A
 Frequencies --    562.1568               583.9870               603.2366
 Red. masses --      7.2835                 9.6905                 8.1470
 Frc consts  --      1.3561                 1.9472                 1.7467
 IR Inten    --      2.9088                 2.5606                 3.9174

                     16                     17                     18
                      A                      A                      A
 Frequencies --    645.4991               649.9823               674.3910
 Red. masses --      3.1469                 1.4560                 1.2408
 Frc consts  --      0.7725                 0.3624                 0.3325
 IR Inten    --      6.5820                39.8698                39.0289

                     19                     20                     21
                      A                      A                      A
 Frequencies --    817.9497               877.3259               961.3867
 Red. masses --      2.6576                 1.7588                 1.5188
 Frc consts  --      1.0476                 0.7976                 0.8271
 IR Inten    --     57.9256                94.7939                15.7695

                     22                     23                     24
                      A                      A                      A
 Frequencies --   1037.0214              1065.4690              1127.5579
 Red. masses --      3.8612                 2.5170                 1.9770
 Frc consts  --      2.4465                 1.6835                 1.4809
 IR Inten    --     22.5837                12.1953                 9.4438

                     25                     26                     27
                      A                      A                      A
 Frequencies --   1222.1832              1345.6588              1399.0759
 Red. masses --      3.1310                 1.9879                 1.2003
 Frc consts  --      2.7556                 2.1209                 1.3843
 IR Inten    --     44.8545                55.8563                 1.3810

                     28                     29                     30
                      A                      A                      A
 Frequencies --   1477.8269              1491.4473              1640.2254
 Red. masses --      1.0492                 1.0637                 1.0888
 Frc consts  --      1.3501                 1.3941                 1.7259
 IR Inten    --      1.4826                 0.4262                23.7830

                     31                     32                     33
                      A                      A                      A
 Frequencies --   2245.4115              2267.4064              2404.9170
 Red. masses --      5.8852                12.3192                12.2002
 Frc consts  --     17.4825                37.3157                41.5737
 IR Inten    --      3.6283                 1.8679                79.6045

                     34                     35                     36
                      A                      A                      A
 Frequencies --   3042.2560              3126.0954              3131.7813
 Red. masses --      1.0329                 1.1036                 1.1033
 Frc consts  --      5.6325                 6.3544                 6.3757
 IR Inten    --     11.5944                16.4244                14.1225

                     37                     38                     39
                      A                      A                      A
 Frequencies --   3480.0646              3498.8631              3571.3403
 Red. masses --      1.0484                 1.1645                 1.0935
 Frc consts  --      7.4805                 8.3991                 8.2175
 IR Inten    --      0.8933                71.0630                 1.3931

 - Thermochemistry -
 -------------------
 Temperature   298.150 Kelvin.  Pressure   1.00000 Atm.
 Atom     1 has atomic number  6 and mass  12.00000

 Molecular mass:   118.05310 amu.
 Principal axes and moments of inertia in atomic units:
                           1         2         3
     Eigenvalues --   596.205172204.361212420.07561
           X            0.99997   0.00569  -0.00491
           Y           -0.00581   0.99970  -0.02364
           Z            0.00478   0.02367   0.99971
 This molecule is an asymmetric top.
 Rotational symmetry number  1.
 Warning -- assumption of classical behavior for rotation
           may cause significant error
 Rotational temperatures (Kelvin)      0.14528     0.03929     0.03579
 Rotational constants (GHZ):           3.02705     0.81871     0.74574
 Zero-point vibrational energy     288668.6 (Joules/Mol)
                                   68.99346 (Kcal/Mol)
 Warning -- explicit consideration of  15 degrees of freedom as
           vibrations may cause significant error
 Vibrational temperatures:     99.83   129.73   243.94   259.49   325.86
          (Kelvin)            340.41   369.73   419.81   514.38   620.57
                              701.03   739.17   808.82   840.23   867.92
                              928.73   935.18   970.30  1176.85  1262.28
                             1383.22  1492.04  1532.97  1622.30  1758.45
                             1936.10  2012.96  2126.26  2145.86  2359.92
                             3230.65  3262.29  3460.14  4377.13  4497.75
                             4505.93  5007.04  5034.08  5138.36

 Zero-point correction=                           0.109948 (Hartree/Particle)
 Thermal correction to Energy=                    0.119753
 Thermal correction to Enthalpy=                  0.120697
 Thermal correction to Gibbs Free Energy=         0.075163
 Sum of electronic and zero-point Energies=           -379.607329
 Sum of electronic and thermal Energies=              -379.597524
 Sum of electronic and thermal Enthalpies=            -379.596580
 Sum of electronic and thermal Free Energies=         -379.642114

                     E (Thermal)             CV                S
                      KCal/Mol        Cal/Mol-Kelvin    Cal/Mol-Kelvin
 Total                   75.146             35.187             95.835
 Electronic               0.000              0.000              0.000
 Translational            0.889              2.981             40.213
 Rotational               0.889              2.981             29.543
 Vibrational             73.369             29.225             26.079
 Vibration     1          0.598              1.969              4.171
 Vibration     2          0.602              1.956              3.656
 Vibration     3          0.625              1.880              2.440
 Vibration     4          0.629              1.866              2.325
 Vibration     5          0.650              1.801              1.907
 Vibration     6          0.655              1.785              1.828
 Vibration     7          0.667              1.751              1.682
 Vibration     8          0.687              1.689              1.464
 Vibration     9          0.733              1.560              1.133
 Vibration    10          0.792              1.402              0.854
 Vibration    11          0.843              1.278              0.691
 Vibration    12          0.869              1.220              0.625
 Vibration    13          0.918              1.113              0.520
 Vibration    14          0.941              1.066              0.478
 Vibration    15          0.962              1.025              0.444

 Optimization completed.
    -- Stationary point found.
 Normal termination of Gaussian 16 at Thu Aug  4 09:44:14 2022.
