 Gaussian 16, Revision A.03,
 Gaussian 16:  ES64L-G16RevA.03 25-Dec-2016

 -----------------------------
 # opt freq b3lyp/6-31g(2df,p)
 -----------------------------

 -------------------
 Title Card Required
 -------------------
 Symbolic Z-matrix:
 Charge =  0 Multiplicity = 1

 SCF Done:  E(RB3LYP) =  -384.748625218     A.U. after   15 cycles
 SCF Done:  E(RB3LYP) =  -384.768126885     A.U. after   12 cycles
 SCF Done:  E(RB3LYP) =  -384.768227372     A.U. after   12 cycles
 SCF Done:  E(RB3LYP) =  -384.767417972     A.U. after   12 cycles
 SCF Done:  E(RB3LYP) =  -384.769314683     A.U. after   11 cycles
 SCF Done:  E(RB3LYP) =  -384.768740699     A.U. after   12 cycles
 SCF Done:  E(RB3LYP) =  -384.769330793     A.U. after   11 cycles
 SCF Done:  E(RB3LYP) =  -384.769408580     A.U. after    8 cycles
 SCF Done:  E(RB3LYP) =  -384.769420774     A.U. after   11 cycles
 SCF Done:  E(RB3LYP) =  -384.769301911     A.U. after   11 cycles
 SCF Done:  E(RB3LYP) =  -384.769453735     A.U. after   10 cycles
 SCF Done:  E(RB3LYP) =  -384.769419636     A.U. after   10 cycles
 SCF Done:  E(RB3LYP) =  -384.769457306     A.U. after   10 cycles
 SCF Done:  E(RB3LYP) =  -384.769458866     A.U. after    8 cycles
 Optimization completed.
    -- Stationary point found.
 Normal termination of Gaussian 16 at Thu Aug  4 10:21:06 2022.

 ----------------------------------------------------------------------
 #N Geom=AllCheck Guess=TCheck SCRF=Check GenChk RB3LYP/6-31G(2df,p) Fr
 eq
 ----------------------------------------------------------------------

 Structure from the checkpoint file:  "CtCCCCCpdOpCtC.chk"
 -------------------
 Title Card Required
 -------------------
 Charge =  0 Multiplicity = 1

                         Standard orientation:
 ---------------------------------------------------------------------
 Center     Atomic      Atomic             Coordinates (Angstroms)
 Number     Number       Type             X           Y           Z
 ---------------------------------------------------------------------
      1          6           0       -4.386194    0.340572   -0.000313
      2          6           0       -3.317705   -0.209658    0.000034
      3          6           0       -2.007574   -0.848974    0.000042
      4          6           0       -0.847068    0.165742    0.000206
      5          6           0        0.514542   -0.526373    0.000077
      6          6           0        1.683724    0.444193    0.000040
      7          8           0        1.550669    1.648258   -0.000026
      8          6           0        3.000788   -0.175335    0.000031
      9          6           0        4.080781   -0.706968   -0.000144
     10          1           0       -5.334106    0.818705    0.000145
     11          1           0       -1.922832   -1.505357   -0.876555
     12          1           0       -1.922935   -1.505541    0.876512
     13          1           0       -0.929932    0.818442    0.873949
     14          1           0       -0.929935    0.818751   -0.873307
     15          1           0        0.631440   -1.186201   -0.871484
     16          1           0        0.631557   -1.186323    0.871524
     17          1           0        5.043620   -1.157730   -0.000409
 ---------------------------------------------------------------------

 SCF Done:  E(RB3LYP) =  -384.769458866     A.U. after    1 cycles

 The electronic state is 1-A.
 Alpha  occ. eigenvalues --  -19.14521 -10.29703 -10.21315 -10.21074 -10.20562
 Alpha  occ. eigenvalues --  -10.20363 -10.19525 -10.18022 -10.16931  -1.05538
 Alpha  occ. eigenvalues --   -0.82155  -0.78603  -0.75734  -0.70955  -0.65474
 Alpha  occ. eigenvalues --   -0.59788  -0.53957  -0.52684  -0.49592  -0.48985
 Alpha  occ. eigenvalues --   -0.46441  -0.43826  -0.43584  -0.39582  -0.38389
 Alpha  occ. eigenvalues --   -0.36602  -0.34904  -0.30106  -0.29997  -0.26882
 Alpha  occ. eigenvalues --   -0.26310  -0.26302
 Alpha virt. eigenvalues --   -0.05953   0.02914   0.05576   0.05862   0.08794
 Alpha virt. eigenvalues --    0.09101   0.10609   0.12495   0.13361   0.13555
 Alpha virt. eigenvalues --    0.14488   0.19208   0.19548   0.20809   0.23360

 Mulliken charges:
               1
     1  C   -0.427664
     2  C    0.290212
     3  C   -0.368250
     4  C   -0.176268
     5  C   -0.309069
     6  C    0.222923
     7  O   -0.283648
     8  C    0.247340
     9  C   -0.389780
    10  H    0.195174
    11  H    0.129341
    12  H    0.129334
    13  H    0.129140
    14  H    0.129156
    15  H    0.133362
    16  H    0.133356
    17  H    0.215341
 Sum of Mulliken charges =  -0.00000

 Dipole moment (field-independent basis, Debye):
    X=              0.9311    Y=             -2.8405    Z=              0.0004  Tot=              2.9892
 Quadrupole moment (field-independent basis, Debye-Ang):
   XX=            -44.0116   YY=            -55.2505   ZZ=            -51.8682
   XY=             -8.3576   XZ=             -0.0041   YZ=              0.0008

  Exact polarizability: 125.940 -19.688  70.788   0.001  -0.001  50.933
 Approx polarizability: 168.914 -43.846 123.908   0.008  -0.005  78.889

                      1                      2                      3
                      A                      A                      A
 Frequencies --     36.5670                76.3385                77.5908
 Red. masses --      3.4041                 2.5252                 4.7521
 Frc consts  --      0.0027                 0.0087                 0.0169
 IR Inten    --      0.0432                 0.9971                 1.0372

                      4                      5                      6
                      A                      A                      A
 Frequencies --    112.4535               142.3602               240.3702
 Red. masses --      2.2180                 4.7100                 5.4033
 Frc consts  --      0.0165                 0.0562                 0.1839
 IR Inten    --      0.2882                 0.7333                 6.5005

                      7                      8                      9
                      A                      A                      A
 Frequencies --    243.8522               305.1239               347.7733
 Red. masses --      4.3367                 4.9566                 3.2076
 Frc consts  --      0.1519                 0.2719                 0.2286
 IR Inten    --      1.3236                 1.5610                 3.2105

                     10                     11                     12
                      A                      A                      A
 Frequencies --    436.2239               551.1808               568.7863
 Red. masses --      6.9971                 4.8084                 2.1904
 Frc consts  --      0.7845                 0.8607                 0.4175
 IR Inten    --      4.3724                 3.9336                 1.2629

                     13                     14                     15
                      A                      A                      A
 Frequencies --    608.4206               618.9406               638.7772
 Red. masses --      8.0852                 1.1981                 1.2194
 Frc consts  --      1.7634                 0.2704                 0.2932
 IR Inten    --      9.1809                43.9358                44.9607

                     16                     17                     18
                      A                      A                      A
 Frequencies --    646.3758               704.7394               739.9912
 Red. masses --      1.2368                 1.2622                 1.1994
 Frc consts  --      0.3045                 0.3694                 0.3870
 IR Inten    --     40.5887                28.1732                 6.4492

                     19                     20                     21
                      A                      A                      A
 Frequencies --    825.3791               852.6319               965.8656
 Red. masses --      6.1586                 1.5531                 3.8666
 Frc consts  --      2.4720                 0.6653                 2.1253
 IR Inten    --      6.5764                 4.5376                 0.1065

                     22                     23                     24
                      A                      A                      A
 Frequencies --   1026.8954              1051.9726              1072.6666
 Red. masses --      4.4336                 2.9913                 1.9192
 Frc consts  --      2.7546                 1.9504                 1.3011
 IR Inten    --     38.0209                13.9446                 0.6300

                     25                     26                     27
                      A                      A                      A
 Frequencies --   1111.7973              1161.6150              1269.6018
 Red. masses --      2.8782                 1.1931                 1.4166
 Frc consts  --      2.0962                 0.9486                 1.3453
 IR Inten    --    137.6743                 0.1765                 9.5207

                     28                     29                     30
                      A                      A                      A
 Frequencies --   1286.9041              1316.2691              1357.4844
 Red. masses --      1.2043                 1.0631                 1.5703
 Frc consts  --      1.1751                 1.0852                 1.7049
 IR Inten    --      0.2661                 0.1022                34.9530

                     31                     32                     33
                      A                      A                      A
 Frequencies --   1393.1135              1447.0763              1473.3362
 Red. masses --      1.6507                 1.0938                 1.0826
 Frc consts  --      1.8876                 1.3495                 1.3845
 IR Inten    --     14.6117                10.8138                 0.6896

                     34                     35                     36
                      A                      A                      A
 Frequencies --   1495.7580              1771.0098              2211.1313
 Red. masses --      1.0906                11.8205                 5.9091
 Frc consts  --      1.4376                21.8437                17.0215
 IR Inten    --      6.2617               143.3713                62.5916

                     37                     38                     39
                      A                      A                      A
 Frequencies --   2240.4398              3010.5235              3013.6966
 Red. masses --      5.9283                 1.0586                 1.0598
 Frc consts  --     17.5327                 5.6529                 5.6713
 IR Inten    --      2.7198                 8.1628                24.2722

                     40                     41                     42
                      A                      A                      A
 Frequencies --   3038.8372              3041.1808              3066.7370
 Red. masses --      1.0999                 1.0992                 1.0598
 Frc consts  --      5.9841                 5.9898                 5.8726
 IR Inten    --     14.2327                 1.1113                12.4055

                     43                     44                     45
                      A                      A                      A
 Frequencies --   3109.3080              3494.1767              3507.5491
 Red. masses --      1.1045                 1.1619                 1.1623
 Frc consts  --      6.2915                 8.3585                 8.4252
 IR Inten    --     18.7865                57.8167                68.6983

 - Thermochemistry -
 -------------------
 Temperature   298.150 Kelvin.  Pressure   1.00000 Atm.
 Atom     1 has atomic number  6 and mass  12.00000

 Molecular mass:   120.05751 amu.
 Principal axes and moments of inertia in atomic units:
                           1         2         3
     Eigenvalues --   291.431423114.986043373.43533
           X            0.99996  -0.00912  -0.00000
           Y            0.00912   0.99996   0.00001
           Z            0.00000  -0.00001   1.00000
 This molecule is an asymmetric top.
 Rotational symmetry number  1.
 Rotational temperatures (Kelvin)      0.29720     0.02781     0.02568
 Rotational constants (GHZ):           6.19268     0.57937     0.53499
 Zero-point vibrational energy     345175.4 (Joules/Mol)
                                   82.49890 (Kcal/Mol)
 Warning -- explicit consideration of  14 degrees of freedom as
           vibrations may cause significant error
 Vibrational temperatures:     52.61   109.83   111.64   161.80   204.82
          (Kelvin)            345.84   350.85   439.01   500.37   627.63
                              793.03   818.36   875.38   890.52   919.06
                              929.99  1013.96  1064.68  1187.54  1226.75
                             1389.67  1477.47  1513.55  1543.33  1599.63
                             1671.30  1826.67  1851.57  1893.82  1953.12
                             2004.38  2082.02  2119.80  2152.06  2548.09
                             3181.32  3223.49  4331.47  4336.04  4372.21
                             4375.58  4412.35  4473.60  5027.34  5046.58

 Zero-point correction=                           0.131470 (Hartree/Particle)
 Thermal correction to Energy=                    0.141681
 Thermal correction to Enthalpy=                  0.142625
 Thermal correction to Gibbs Free Energy=         0.094962
 Sum of electronic and zero-point Energies=           -384.637988
 Sum of electronic and thermal Energies=              -384.627778
 Sum of electronic and thermal Enthalpies=            -384.626834
 Sum of electronic and thermal Free Energies=         -384.674497

                     E (Thermal)             CV                S
                      KCal/Mol        Cal/Mol-Kelvin    Cal/Mol-Kelvin
 Total                   88.906             35.660            100.315
 Electronic               0.000              0.000              0.000
 Translational            0.889              2.981             40.263
 Rotational               0.889              2.981             29.506
 Vibrational             87.129             29.699             30.546
 Vibration     1          0.594              1.982              5.437
 Vibration     2          0.599              1.965              3.983
 Vibration     3          0.599              1.964              3.951
 Vibration     4          0.607              1.939              3.226
 Vibration     5          0.616              1.911              2.772
 Vibration     6          0.657              1.779              1.800
 Vibration     7          0.659              1.773              1.775
 Vibration     8          0.696              1.664              1.389
 Vibration     9          0.725              1.580              1.176
 Vibration    10          0.797              1.391              0.839
 Vibration    11          0.906              1.137              0.542
 Vibration    12          0.925              1.099              0.507
 Vibration    13          0.967              1.014              0.435
 Vibration    14          0.979              0.992              0.418

 Optimization completed.
    -- Stationary point found.
 Normal termination of Gaussian 16 at Thu Aug  4 10:38:59 2022.
