 Gaussian 16, Revision A.03,
 Gaussian 16:  ES64L-G16RevA.03 25-Dec-2016

 -----------------------------
 # opt freq b3lyp/6-31g(2df,p)
 -----------------------------

 -------------------
 Title Card Required
 -------------------
 Symbolic Z-matrix:
 Charge =  0 Multiplicity = 1

 SCF Done:  E(RB3LYP) =  -310.749351536     A.U. after   14 cycles
 SCF Done:  E(RB3LYP) =  -310.774850593     A.U. after   13 cycles
 SCF Done:  E(RB3LYP) =  -310.776427919     A.U. after   12 cycles
 SCF Done:  E(RB3LYP) =  -310.771919361     A.U. after   14 cycles
 SCF Done:  E(RB3LYP) =  -310.776487501     A.U. after   12 cycles
 SCF Done:  E(RB3LYP) =  -310.775836371     A.U. after   13 cycles
 SCF Done:  E(RB3LYP) =  -310.777167035     A.U. after   11 cycles
 SCF Done:  E(RB3LYP) =  -310.777502283     A.U. after   11 cycles
 SCF Done:  E(RB3LYP) =  -310.777237998     A.U. after   13 cycles
 SCF Done:  E(RB3LYP) =  -310.777878895     A.U. after   11 cycles
 SCF Done:  E(RB3LYP) =  -310.777908928     A.U. after   10 cycles
 SCF Done:  E(RB3LYP) =  -310.777916519     A.U. after    9 cycles
 SCF Done:  E(RB3LYP) =  -310.777918732     A.U. after    9 cycles
 SCF Done:  E(RB3LYP) =  -310.777919026     A.U. after    7 cycles
 SCF Done:  E(RB3LYP) =  -310.777919074     A.U. after    7 cycles
 Optimization completed.
    -- Stationary point found.
 Normal termination of Gaussian 16 at Thu Aug  4 01:36:32 2022.

 ----------------------------------------------------------------------
 #N Geom=AllCheck Guess=TCheck SCRF=Check GenChk RB3LYP/6-31G(2df,p) Fr
 eq
 ----------------------------------------------------------------------

 Structure from the checkpoint file:  "CtCCpdCpC1CCC1.chk"
 -------------------
 Title Card Required
 -------------------
 Charge =  0 Multiplicity = 1

                         Standard orientation:
 ---------------------------------------------------------------------
 Center     Atomic      Atomic             Coordinates (Angstroms)
 Number     Number       Type             X           Y           Z
 ---------------------------------------------------------------------
      1          6           0        2.871553   -1.137964   -0.086291
      2          6           0        1.978472   -0.329573   -0.057511
      3          6           0        0.873518    0.575290   -0.046568
      4          6           0        1.036549    1.859730    0.295894
      5          6           0       -0.448802   -0.027074   -0.451091
      6          6           0       -1.054074   -1.173222    0.418491
      7          6           0       -2.459329   -0.589735    0.113674
      8          6           0       -1.778963    0.752139   -0.270824
      9          1           0        3.672629   -1.834575   -0.104979
     10          1           0        2.007524    2.250059    0.576169
     11          1           0        0.203503    2.552796    0.296369
     12          1           0       -0.365373   -0.382828   -1.485304
     13          1           0       -0.784569   -1.048145    1.471213
     14          1           0       -0.842160   -2.201645    0.120036
     15          1           0       -3.187267   -0.571004    0.927439
     16          1           0       -2.918663   -1.073402   -0.753138
     17          1           0       -1.732285    1.427974    0.588101
     18          1           0       -2.166880    1.303217   -1.130549
 ---------------------------------------------------------------------

 SCF Done:  E(RB3LYP) =  -310.777919074     A.U. after    1 cycles

 The electronic state is 1-A.
 Alpha  occ. eigenvalues --  -10.20886 -10.19337 -10.18216 -10.18163 -10.18159
 Alpha  occ. eigenvalues --  -10.18134 -10.18012 -10.17531  -0.85263  -0.79603
 Alpha  occ. eigenvalues --   -0.72633  -0.66529  -0.65525  -0.60051  -0.54792
 Alpha  occ. eigenvalues --   -0.51677  -0.48945  -0.47868  -0.45153  -0.41027
 Alpha  occ. eigenvalues --   -0.38719  -0.37766  -0.35033  -0.33218  -0.32182
 Alpha  occ. eigenvalues --   -0.30711  -0.29682  -0.26733  -0.23447
 Alpha virt. eigenvalues --   -0.01675   0.05414   0.08807   0.10534   0.11414
 Alpha virt. eigenvalues --    0.12684   0.12917   0.14541   0.15374   0.17172
 Alpha virt. eigenvalues --    0.18557   0.19420   0.19943   0.21128   0.22468

 Mulliken charges:
               1
     1  C   -0.453139
     2  C    0.285740
     3  C    0.142444
     4  C   -0.387232
     5  C   -0.049791
     6  C   -0.214306
     7  C   -0.217962
     8  C   -0.238337
     9  H    0.196248
    10  H    0.116155
    11  H    0.115349
    12  H    0.090553
    13  H    0.106477
    14  H    0.102770
    15  H    0.098652
    16  H    0.103522
    17  H    0.104609
    18  H    0.098247
 Sum of Mulliken charges =   0.00000

 Dipole moment (field-independent basis, Debye):
    X=             -0.5541    Y=             -0.0850    Z=             -0.0774  Tot=              0.5659
 Quadrupole moment (field-independent basis, Debye-Ang):
   XX=            -46.1908   YY=            -45.9480   ZZ=            -49.1369
   XY=             -2.2403   XZ=              0.4354   YZ=              0.9374

  Exact polarizability:  96.700 -11.138  93.106   1.047   4.521  55.403
 Approx polarizability: 129.493 -28.548 155.732   0.375  11.414  86.040

                      1                      2                      3
                      A                      A                      A
 Frequencies --     55.3242               127.0843               143.5195
 Red. masses --      2.8573                 3.6089                 2.1841
 Frc consts  --      0.0052                 0.0343                 0.0265
 IR Inten    --      0.0219                 0.2846                 0.0528

                      4                      5                      6
                      A                      A                      A
 Frequencies --    233.0418               273.5251               342.7032
 Red. masses --      2.9336                 2.8599                 3.0387
 Frc consts  --      0.0939                 0.1261                 0.2103
 IR Inten    --      1.5794                 0.8934                 1.6322

                      7                      8                      9
                      A                      A                      A
 Frequencies --    439.8082               492.4221               600.6327
 Red. masses --      3.1430                 3.5584                 1.3678
 Frc consts  --      0.3582                 0.5084                 0.2907
 IR Inten    --      0.0798                 2.4907                39.3106

                     10                     11                     12
                      A                      A                      A
 Frequencies --    624.4616               636.0986               647.4057
 Red. masses --      2.5004                 1.3154                 2.4047
 Frc consts  --      0.5745                 0.3136                 0.5938
 IR Inten    --      2.2092                44.1508                 1.0485

                     13                     14                     15
                      A                      A                      A
 Frequencies --    738.4202               759.3167               791.8478
 Red. masses --      1.5292                 1.2321                 1.2144
 Frc consts  --      0.4913                 0.4186                 0.4487
 IR Inten    --      0.2464                 1.2161                 0.7202

                     16                     17                     18
                      A                      A                      A
 Frequencies --    878.3086               904.9616               933.7362
 Red. masses --      2.5968                 2.0691                 2.2775
 Frc consts  --      1.1803                 0.9984                 1.1699
 IR Inten    --      2.4534                 0.5673                 2.0620

                     19                     20                     21
                      A                      A                      A
 Frequencies --    935.3086               958.6989               967.0711
 Red. masses --      1.4199                 1.4424                 2.1005
 Frc consts  --      0.7318                 0.7811                 1.1574
 IR Inten    --     30.5132                 0.6949                 0.3831

                     22                     23                     24
                      A                      A                      A
 Frequencies --   1041.3762              1057.2154              1128.7732
 Red. masses --      2.1142                 2.3375                 2.1498
 Frc consts  --      1.3508                 1.5393                 1.6138
 IR Inten    --      0.6185                 1.7881                 0.3457

                     25                     26                     27
                      A                      A                      A
 Frequencies --   1197.2964              1234.2286              1245.0525
 Red. masses --      1.3441                 1.5036                 1.3729
 Frc consts  --      1.1352                 1.3495                 1.2539
 IR Inten    --      0.6102                 4.9148                 6.0154

                     28                     29                     30
                      A                      A                      A
 Frequencies --   1257.6478              1261.1748              1279.1130
 Red. masses --      1.3352                 1.2975                 1.5188
 Frc consts  --      1.2443                 1.2159                 1.4641
 IR Inten    --      0.2179                 2.5976                 1.8639

                     31                     32                     33
                      A                      A                      A
 Frequencies --   1286.3617              1369.6315              1441.6988
 Red. masses --      1.4577                 1.7956                 1.2024
 Frc consts  --      1.4212                 1.9846                 1.4725
 IR Inten    --      3.9912                 2.2054                 3.3521

                     34                     35                     36
                      A                      A                      A
 Frequencies --   1478.5160              1487.2319              1509.7575
 Red. masses --      1.0898                 1.0836                 1.1382
 Frc consts  --      1.4037                 1.4122                 1.5285
 IR Inten    --      0.3102                 2.2530                 0.8245

                     37                     38                     39
                      A                      A                      A
 Frequencies --   1674.5785              2217.5350              3029.6290
 Red. masses --      5.1309                 6.0877                 1.0830
 Frc consts  --      8.4772                17.6377                 5.8568
 IR Inten    --     15.3444                 0.1212                11.1508

                     40                     41                     42
                      A                      A                      A
 Frequencies --   3055.7061              3058.8148              3062.6873
 Red. masses --      1.0571                 1.0578                 1.0629
 Frc consts  --      5.8154                 5.8314                 5.8740
 IR Inten    --     40.0758                40.5998                12.6549

                     43                     44                     45
                      A                      A                      A
 Frequencies --   3102.9140              3113.1985              3125.1482
 Red. masses --      1.1056                 1.1074                 1.1077
 Frc consts  --      6.2720                 6.3234                 6.3743
 IR Inten    --     13.9980                21.8879                54.4378

                     46                     47                     48
                      A                      A                      A
 Frequencies --   3162.9356              3250.3845              3503.5495
 Red. masses --      1.0597                 1.1158                 1.1584
 Frc consts  --      6.2459                 6.9454                 8.3774
 IR Inten    --      2.2699                 6.0704                72.8785

 - Thermochemistry -
 -------------------
 Temperature   298.150 Kelvin.  Pressure   1.00000 Atm.
 Atom     1 has atomic number  6 and mass  12.00000

 Molecular mass:   106.07825 amu.
 Principal axes and moments of inertia in atomic units:
                           1         2         3
     Eigenvalues --   467.700291265.537251628.21420
           X            0.99999   0.00329   0.00234
           Y           -0.00331   0.99997   0.00642
           Z           -0.00232  -0.00643   0.99998
 This molecule is an asymmetric top.
 Rotational symmetry number  1.
 Warning -- assumption of classical behavior for rotation
           may cause significant error
 Rotational temperatures (Kelvin)      0.18519     0.06844     0.05320
 Rotational constants (GHZ):           3.85876     1.42607     1.10842
 Zero-point vibrational energy     401442.0 (Joules/Mol)
                                   95.94693 (Kcal/Mol)
 Warning -- explicit consideration of   9 degrees of freedom as
           vibrations may cause significant error
 Vibrational temperatures:     79.60   182.85   206.49   335.30   393.54
          (Kelvin)            493.07   632.79   708.49   864.18   898.46
                              915.20   931.47  1062.42  1092.49  1139.29
                             1263.69  1302.04  1343.44  1345.70  1379.35
                             1391.40  1498.31  1521.10  1624.05  1722.64
                             1775.78  1791.35  1809.47  1814.55  1840.36
                             1850.79  1970.59  2074.28  2127.25  2139.80
                             2172.20  2409.34  3190.54  4358.96  4396.48
                             4400.95  4406.52  4464.40  4479.20  4496.39
                             4550.76  4676.58  5040.83

 Zero-point correction=                           0.152901 (Hartree/Particle)
 Thermal correction to Energy=                    0.161089
 Thermal correction to Enthalpy=                  0.162034
 Thermal correction to Gibbs Free Energy=         0.120048
 Sum of electronic and zero-point Energies=           -310.625018
 Sum of electronic and thermal Energies=              -310.616830
 Sum of electronic and thermal Enthalpies=            -310.615886
 Sum of electronic and thermal Free Energies=         -310.657871

                     E (Thermal)             CV                S
                      KCal/Mol        Cal/Mol-Kelvin    Cal/Mol-Kelvin
 Total                  101.085             30.955             88.365
 Electronic               0.000              0.000              0.000
 Translational            0.889              2.981             39.894
 Rotational               0.889              2.981             28.357
 Vibrational             99.308             24.994             20.114
 Vibration     1          0.596              1.975              4.617
 Vibration     2          0.611              1.926              2.990
 Vibration     3          0.616              1.910              2.756
 Vibration     4          0.654              1.790              1.855
 Vibration     5          0.676              1.722              1.574
 Vibration     6          0.722              1.590              1.200
 Vibration     7          0.800              1.383              0.827
 Vibration     8          0.848              1.267              0.677
 Vibration     9          0.959              1.030              0.449

 Optimization completed.
    -- Stationary point found.
 Normal termination of Gaussian 16 at Thu Aug  4 01:58:58 2022.
