 Gaussian 16, Revision A.03,
 Gaussian 16:  ES64L-G16RevA.03 25-Dec-2016

 -----------------------------
 # opt freq b3lyp/6-31g(2df,p)
 -----------------------------

 -------------------
 Title Card Required
 -------------------
 Symbolic Z-matrix:
 Charge =  0 Multiplicity = 1

 SCF Done:  E(RB3LYP) =  -404.440360561     A.U. after   14 cycles
 SCF Done:  E(RB3LYP) =  -404.464322558     A.U. after   13 cycles
 SCF Done:  E(RB3LYP) =  -404.459627633     A.U. after   12 cycles
 SCF Done:  E(RB3LYP) =  -404.470785083     A.U. after   12 cycles
 SCF Done:  E(RB3LYP) =  -404.469250241     A.U. after   12 cycles
 SCF Done:  E(RB3LYP) =  -404.473275695     A.U. after   11 cycles
 SCF Done:  E(RB3LYP) =  -404.472422778     A.U. after   12 cycles
 SCF Done:  E(RB3LYP) =  -404.473694545     A.U. after   12 cycles
 SCF Done:  E(RB3LYP) =  -404.473666552     A.U. after   12 cycles
 SCF Done:  E(RB3LYP) =  -404.474555684     A.U. after   11 cycles
 SCF Done:  E(RB3LYP) =  -404.474702713     A.U. after   11 cycles
 SCF Done:  E(RB3LYP) =  -404.474816253     A.U. after   11 cycles
 SCF Done:  E(RB3LYP) =  -404.474939308     A.U. after   10 cycles
 SCF Done:  E(RB3LYP) =  -404.474948526     A.U. after    9 cycles
 SCF Done:  E(RB3LYP) =  -404.474952154     A.U. after    8 cycles
 SCF Done:  E(RB3LYP) =  -404.474952737     A.U. after    8 cycles
 SCF Done:  E(RB3LYP) =  -404.474952998     A.U. after    7 cycles
 SCF Done:  E(RB3LYP) =  -404.474953189     A.U. after    7 cycles
 SCF Done:  E(RB3LYP) =  -404.474953244     A.U. after    6 cycles
 Optimization completed.
    -- Stationary point found.
 Normal termination of Gaussian 16 at Sun Jul  3 18:22:58 2022.

 ----------------------------------------------------------------------
 #N Geom=AllCheck Guess=TCheck SCRF=Check GenChk RB3LYP/6-31G(2df,p) Fr
 eq
 ----------------------------------------------------------------------

 Structure from the checkpoint file:  "CtCCNpCCpCCO.chk"
 -------------------
 Title Card Required
 -------------------
 Charge =  0 Multiplicity = 1

                         Standard orientation:
 ---------------------------------------------------------------------
 Center     Atomic      Atomic             Coordinates (Angstroms)
 Number     Number       Type             X           Y           Z
 ---------------------------------------------------------------------
      1          6           0       -3.277453   -1.224113   -0.693552
      2          6           0       -2.281780   -1.033441   -0.048086
      3          6           0       -1.077338   -0.861882    0.768373
      4          7           0       -0.053141   -0.002928    0.164603
      5          6           0       -0.272116    1.421529    0.433529
      6          6           0       -1.457465    2.035318   -0.310678
      7          6           0        1.312242   -0.415167    0.485788
      8          6           0        2.296397   -0.093909   -0.646285
      9          8           0        3.610230   -0.529430   -0.336672
     10          1           0       -4.152877   -1.380255   -1.273834
     11          1           0       -0.643029   -1.855025    0.924311
     12          1           0       -1.373431   -0.499936    1.771638
     13          1           0        0.636215    1.953149    0.134789
     14          1           0       -0.388091    1.595246    1.522446
     15          1           0       -1.359042    1.873715   -1.387734
     16          1           0       -1.491365    3.112958   -0.119603
     17          1           0       -2.409997    1.606109    0.006125
     18          1           0        1.338895   -1.498125    0.636196
     19          1           0        1.678263    0.040684    1.428025
     20          1           0        2.276989    0.978127   -0.893611
     21          1           0        1.993331   -0.636885   -1.545940
     22          1           0        3.929361   -0.003829    0.403815
 ---------------------------------------------------------------------

 SCF Done:  E(RB3LYP) =  -404.474953244     A.U. after    1 cycles

 The electronic state is 1-A.
 Alpha  occ. eigenvalues --  -19.13524 -14.32673 -10.23299 -10.22390 -10.20881
 Alpha  occ. eigenvalues --  -10.20807 -10.18019 -10.17104 -10.16972  -1.01615
 Alpha  occ. eigenvalues --   -0.92695  -0.77289  -0.75599  -0.71890  -0.67249
 Alpha  occ. eigenvalues --   -0.62459  -0.58412  -0.52941  -0.50762  -0.49144
 Alpha  occ. eigenvalues --   -0.47308  -0.46189  -0.44372  -0.43030  -0.40545
 Alpha  occ. eigenvalues --   -0.40137  -0.37660  -0.36308  -0.35461  -0.34532
 Alpha  occ. eigenvalues --   -0.32225  -0.27429  -0.26538  -0.26224  -0.21924
 Alpha virt. eigenvalues --    0.04192   0.05783   0.07269   0.09394   0.11676
 Alpha virt. eigenvalues --    0.12148   0.12960   0.13092   0.14879   0.15952
 Alpha virt. eigenvalues --    0.16584   0.17214   0.18845   0.19128   0.20497

 Mulliken charges:
               1
     1  C   -0.440508
     2  C    0.328798
     3  C   -0.331613
     4  N   -0.054691
     5  C   -0.123488
     6  C   -0.388534
     7  C   -0.167468
     8  C   -0.064752
     9  O   -0.413219
    10  H    0.196353
    11  H    0.134065
    12  H    0.111999
    13  H    0.098985
    14  H    0.076181
    15  H    0.125417
    16  H    0.106903
    17  H    0.134029
    18  H    0.109686
    19  H    0.067005
    20  H    0.089950
    21  H    0.122573
    22  H    0.282328
 Sum of Mulliken charges =  -0.00000

 Dipole moment (field-independent basis, Debye):
    X=             -0.2530    Y=              1.1267    Z=              1.4541  Tot=              1.8569
 Quadrupole moment (field-independent basis, Debye-Ang):
   XX=            -57.0296   YY=            -55.2561   ZZ=            -54.7734
   XY=              4.5135   XZ=              5.7058   YZ=             -0.2160

  Exact polarizability: 105.520   3.522  77.748  10.881   2.055  73.122
 Approx polarizability: 140.069   5.648 107.571  20.908   5.522 113.780

                      1                      2                      3
                      A                      A                      A
 Frequencies --     32.3572                61.2256                79.0604
 Red. masses --      3.3328                 2.4472                 2.0145
 Frc consts  --      0.0021                 0.0054                 0.0074
 IR Inten    --      0.6022                 0.0633                 3.4267

                      4                      5                      6
                      A                      A                      A
 Frequencies --    109.8881               137.8748               218.6627
 Red. masses --      2.9975                 2.7497                 2.5418
 Frc consts  --      0.0213                 0.0308                 0.0716
 IR Inten    --      0.6072                 0.1541                 0.5760

                      7                      8                      9
                      A                      A                      A
 Frequencies --    253.2301               273.9533               300.2033
 Red. masses --      1.3389                 2.2276                 1.2694
 Frc consts  --      0.0506                 0.0985                 0.0674
 IR Inten    --      0.2295                18.5276                88.7596

                     10                     11                     12
                      A                      A                      A
 Frequencies --    326.5264               351.8568               391.9085
 Red. masses --      3.4751                 3.4371                 2.8443
 Frc consts  --      0.2183                 0.2507                 0.2574
 IR Inten    --      5.3161                 9.3446                 0.3188

                     13                     14                     15
                      A                      A                      A
 Frequencies --    409.2881               455.6215               607.8881
 Red. masses --      2.6252                 3.8642                 1.2794
 Frc consts  --      0.2591                 0.4726                 0.2785
 IR Inten    --      6.1236                 0.7662                39.8967

                     16                     17                     18
                      A                      A                      A
 Frequencies --    611.0508               657.6149               788.9626
 Red. masses --      3.4253                 1.2404                 1.2773
 Frc consts  --      0.7535                 0.3160                 0.4684
 IR Inten    --      6.5681                39.8391                 4.0161

                     19                     20                     21
                      A                      A                      A
 Frequencies --    806.8392               819.1861               946.2313
 Red. masses --      1.1565                 2.3087                 3.6124
 Frc consts  --      0.4436                 0.9128                 1.9056
 IR Inten    --      3.6551                10.3023                 5.7236

                     22                     23                     24
                      A                      A                      A
 Frequencies --    974.0136               998.7804              1033.7789
 Red. masses --      2.1805                 2.4828                 2.3569
 Frc consts  --      1.2188                 1.4592                 1.4840
 IR Inten    --      7.4675                12.4397                63.6825

                     25                     26                     27
                      A                      A                      A
 Frequencies --   1073.7954              1082.2869              1088.7106
 Red. masses --      2.8417                 3.4900                 1.9463
 Frc consts  --      1.9305                 2.4086                 1.3592
 IR Inten    --     80.5709                21.9168                18.7237

                     28                     29                     30
                      A                      A                      A
 Frequencies --   1123.2589              1156.9203              1199.1469
 Red. masses --      1.9850                 1.7234                 1.6406
 Frc consts  --      1.4756                 1.3591                 1.3900
 IR Inten    --     22.2485                18.6119                17.9332

                     31                     32                     33
                      A                      A                      A
 Frequencies --   1250.9305              1287.2790              1324.7952
 Red. masses --      1.8991                 1.2079                 1.1499
 Frc consts  --      1.7509                 1.1793                 1.1891
 IR Inten    --     17.3373                 8.4026                18.0288

                     34                     35                     36
                      A                      A                      A
 Frequencies --   1341.8252              1354.0245              1380.3709
 Red. masses --      1.2746                 1.2339                 1.2777
 Frc consts  --      1.3521                 1.3328                 1.4344
 IR Inten    --     36.1092                 6.4604                23.7179

                     37                     38                     39
                      A                      A                      A
 Frequencies --   1397.5704              1408.5667              1421.9092
 Red. masses --      1.2309                 1.2524                 1.3476
 Frc consts  --      1.4166                 1.4640                 1.6053
 IR Inten    --     56.6952                 0.6041                 7.3832

                     40                     41                     42
                      A                      A                      A
 Frequencies --   1434.3018              1464.1479              1487.9599
 Red. masses --      1.3869                 1.0773                 1.0577
 Frc consts  --      1.6810                 1.3607                 1.3797
 IR Inten    --     16.1530                 2.0918                 1.8578

                     43                     44                     45
                      A                      A                      A
 Frequencies --   1491.7621              1493.7769              1510.2510
 Red. masses --      1.0421                 1.0811                 1.0877
 Frc consts  --      1.3664                 1.4213                 1.4617
 IR Inten    --      4.0217                 6.4765                 3.1976

                     46                     47                     48
                      A                      A                      A
 Frequencies --   1514.4053              2236.6166              2893.9520
 Red. masses --      1.0918                 5.9064                 1.0722
 Frc consts  --      1.4752                17.4082                 5.2909
 IR Inten    --      4.0278                 0.0625                32.9224

                     49                     50                     51
                      A                      A                      A
 Frequencies --   2902.7913              2917.3955              2990.8319
 Red. masses --      1.0731                 1.0722                 1.0700
 Frc consts  --      5.3274                 5.3769                 5.6392
 IR Inten    --    103.8071                76.0667                48.0674

                     52                     53                     54
                      A                      A                      A
 Frequencies --   3044.1675              3056.9160              3070.5022
 Red. masses --      1.0377                 1.0857                 1.0854
 Frc consts  --      5.6656                 5.9778                 6.0291
 IR Inten    --     22.3773                 3.9387                23.0291

                     55                     56                     57
                      A                      A                      A
 Frequencies --   3078.6073              3096.6401              3113.1881
 Red. masses --      1.0845                 1.0955                 1.1001
 Frc consts  --      6.0559                 6.1896                 6.2821
 IR Inten    --     22.2015                36.7104                28.7459

                     58                     59                     60
                      A                      A                      A
 Frequencies --   3135.7034              3505.2299              3814.9244
 Red. masses --      1.1006                 1.1625                 1.0661
 Frc consts  --      6.3761                 8.4151                 9.1416
 IR Inten    --     22.6157                62.3856                16.9704

 - Thermochemistry -
 -------------------
 Temperature   298.150 Kelvin.  Pressure   1.00000 Atm.
 Atom     1 has atomic number  6 and mass  12.00000

 Molecular mass:   127.09971 amu.
 Principal axes and moments of inertia in atomic units:
                           1         2         3
     Eigenvalues --   691.971622235.208742626.70004
           X            0.99994  -0.00865   0.00656
           Y            0.00876   0.99982  -0.01680
           Z           -0.00642   0.01686   0.99984
 This molecule is an asymmetric top.
 Rotational symmetry number  1.
 Warning -- assumption of classical behavior for rotation
           may cause significant error
 Rotational temperatures (Kelvin)      0.12517     0.03875     0.03297
 Rotational constants (GHZ):           2.60811     0.80742     0.68708
 Zero-point vibrational energy     501184.3 (Joules/Mol)
                                  119.78591 (Kcal/Mol)
 Warning -- explicit consideration of  16 degrees of freedom as
           vibrations may cause significant error
 Vibrational temperatures:     46.55    88.09   113.75   158.10   198.37
          (Kelvin)            314.61   364.34   394.16   431.93   469.80
                              506.24   563.87   588.87   655.54   874.62
                              879.17   946.16  1135.14  1160.86  1178.63
                             1361.42  1401.39  1437.02  1487.38  1544.95
                             1557.17  1566.41  1616.12  1664.55  1725.30
                             1799.81  1852.11  1906.08  1930.59  1948.14
                             1986.05  2010.79  2026.61  2045.81  2063.64
                             2106.58  2140.84  2146.31  2149.21  2172.91
                             2178.89  3217.99  4163.75  4176.47  4197.48
                             4303.14  4379.88  4398.22  4417.77  4429.43
                             4455.37  4479.18  4511.58  5043.24  5488.83

 Zero-point correction=                           0.190891 (Hartree/Particle)
 Thermal correction to Energy=                    0.202163
 Thermal correction to Enthalpy=                  0.203107
 Thermal correction to Gibbs Free Energy=         0.153213
 Sum of electronic and zero-point Energies=           -404.284062
 Sum of electronic and thermal Energies=              -404.272790
 Sum of electronic and thermal Enthalpies=            -404.271846
 Sum of electronic and thermal Free Energies=         -404.321740

                     E (Thermal)             CV                S
                      KCal/Mol        Cal/Mol-Kelvin    Cal/Mol-Kelvin
 Total                  126.859             39.902            105.010
 Electronic               0.000              0.000              0.000
 Translational            0.889              2.981             40.433
 Rotational               0.889              2.981             29.786
 Vibrational            125.082             33.940             34.791
 Vibration     1          0.594              1.983              5.679
 Vibration     2          0.597              1.973              4.417
 Vibration     3          0.600              1.963              3.914
 Vibration     4          0.606              1.941              3.271
 Vibration     5          0.614              1.915              2.833
 Vibration     6          0.646              1.813              1.970
 Vibration     7          0.664              1.757              1.708
 Vibration     8          0.676              1.721              1.571
 Vibration     9          0.693              1.673              1.416
 Vibration    10          0.710              1.622              1.277
 Vibration    11          0.728              1.571              1.158
 Vibration    12          0.759              1.487              0.993
 Vibration    13          0.774              1.450              0.929
 Vibration    14          0.814              1.348              0.779
 Vibration    15          0.967              1.015              0.436
 Vibration    16          0.970              1.008              0.431

 Optimization completed.
    -- Stationary point found.
 Normal termination of Gaussian 16 at Sun Jul  3 18:54:52 2022.
