 Gaussian 16, Revision A.03,
 Gaussian 16:  ES64L-G16RevA.03 25-Dec-2016

 -----------------------------
 # opt freq b3lyp/6-31g(2df,p)
 -----------------------------

 -------------------
 Title Card Required
 -------------------
 Symbolic Z-matrix:
 Charge =  0 Multiplicity = 1

 SCF Done:  E(RB3LYP) =  -400.757800267     A.U. after   15 cycles
 SCF Done:  E(RB3LYP) =  -400.794756376     A.U. after   13 cycles
 SCF Done:  E(RB3LYP) =  -400.798206928     A.U. after   15 cycles
 SCF Done:  E(RB3LYP) =  -400.785476880     A.U. after   16 cycles
 SCF Done:  E(RB3LYP) =  -400.796600249     A.U. after   14 cycles
 SCF Done:  E(RB3LYP) =  -400.798843366     A.U. after   13 cycles
 SCF Done:  E(RB3LYP) =  -400.799853652     A.U. after   14 cycles
 SCF Done:  E(RB3LYP) =  -400.801602847     A.U. after   15 cycles
 SCF Done:  E(RB3LYP) =  -400.800621982     A.U. after   16 cycles
 SCF Done:  E(RB3LYP) =  -400.803242836     A.U. after   14 cycles
 SCF Done:  E(RB3LYP) =  -400.803577834     A.U. after   13 cycles
 SCF Done:  E(RB3LYP) =  -400.803348989     A.U. after   13 cycles
 SCF Done:  E(RB3LYP) =  -400.803810523     A.U. after   13 cycles
 SCF Done:  E(RB3LYP) =  -400.804023617     A.U. after   12 cycles
 SCF Done:  E(RB3LYP) =  -400.804050424     A.U. after   12 cycles
 SCF Done:  E(RB3LYP) =  -400.804068835     A.U. after   12 cycles
 SCF Done:  E(RB3LYP) =  -400.804077294     A.U. after   10 cycles
 SCF Done:  E(RB3LYP) =  -400.804077978     A.U. after    9 cycles
 SCF Done:  E(RB3LYP) =  -400.804078450     A.U. after    8 cycles
 Optimization completed.
    -- Stationary point found.
 Normal termination of Gaussian 16 at Thu Aug  4 10:54:50 2022.

 ----------------------------------------------------------------------
 #N Geom=AllCheck Guess=TCheck SCRF=Check GenChk RB3LYP/6-31G(2df,p) Fr
 eq
 ----------------------------------------------------------------------

 Structure from the checkpoint file:  "CtCCtCCCpOpCdN.chk"
 -------------------
 Title Card Required
 -------------------
 Charge =  0 Multiplicity = 1

                         Standard orientation:
 ---------------------------------------------------------------------
 Center     Atomic      Atomic             Coordinates (Angstroms)
 Number     Number       Type             X           Y           Z
 ---------------------------------------------------------------------
      1          6           0        4.644946   -0.375629   -0.152062
      2          6           0        3.482504   -0.068030   -0.042468
      3          6           0        2.173030    0.280131    0.081796
      4          6           0        1.008580    0.589624    0.190455
      5          6           0       -0.390504    0.958088    0.318712
      6          6           0       -1.354467   -0.031490   -0.383410
      7          8           0       -1.228200   -1.352102    0.095144
      8          6           0       -2.788309    0.474169   -0.288750
      9          7           0       -3.791486   -0.204900    0.076311
     10          1           0        5.666537   -0.647897   -0.249248
     11          1           0       -0.553264    1.961169   -0.097303
     12          1           0       -0.666074    1.025816    1.381808
     13          1           0       -1.077556   -0.076414   -1.445011
     14          1           0       -1.237481   -1.331640    1.059239
     15          1           0       -2.938611    1.521598   -0.574267
     16          1           0       -3.482232   -1.162704    0.283823
 ---------------------------------------------------------------------

 SCF Done:  E(RB3LYP) =  -400.804078450     A.U. after    1 cycles

 The electronic state is 1-A.
 Alpha  occ. eigenvalues --  -19.16450 -14.32372 -10.26331 -10.23506 -10.23468
 Alpha  occ. eigenvalues --  -10.20669 -10.20643 -10.20298 -10.19667  -1.05023
 Alpha  occ. eigenvalues --   -0.90688  -0.82151  -0.78663  -0.73625  -0.68415
 Alpha  occ. eigenvalues --   -0.61175  -0.60135  -0.53276  -0.51752  -0.49882
 Alpha  occ. eigenvalues --   -0.48510  -0.46421  -0.43239  -0.41739  -0.36683
 Alpha  occ. eigenvalues --   -0.34553  -0.34459  -0.32154  -0.30836  -0.27066
 Alpha  occ. eigenvalues --   -0.25100  -0.24870
 Alpha virt. eigenvalues --   -0.02208  -0.01929  -0.00766   0.06008   0.09432
 Alpha virt. eigenvalues --    0.11163   0.11483   0.13281   0.14766   0.15636
 Alpha virt. eigenvalues --    0.16378   0.17771   0.20997   0.22042   0.24555

 Mulliken charges:
               1
     1  C   -0.553268
     2  C    0.294160
     3  C   -0.213627
     4  C    0.378151
     5  C   -0.442034
     6  C    0.077370
     7  O   -0.413329
     8  C    0.036868
     9  N   -0.394277
    10  H    0.193438
    11  H    0.148188
    12  H    0.138841
    13  H    0.127009
    14  H    0.289217
    15  H    0.107429
    16  H    0.225864
 Sum of Mulliken charges =  -0.00000

 Dipole moment (field-independent basis, Debye):
    X=              1.4142    Y=              0.8586    Z=              0.6706  Tot=              1.7852
 Quadrupole moment (field-independent basis, Debye-Ang):
   XX=            -58.2517   YY=            -50.9111   ZZ=            -49.4277
   XY=             -2.6861   XZ=             -1.3608   YZ=             -2.3214

  Exact polarizability: 156.190 -12.954  61.683  -7.599  -2.165  49.881
 Approx polarizability: 252.185 -32.228  97.960 -19.017  -2.795  77.632

                      1                      2                      3
                      A                      A                      A
 Frequencies --     44.6482                61.2599               121.3205
 Red. masses --      5.3011                 6.1591                 2.9486
 Frc consts  --      0.0062                 0.0136                 0.0256
 IR Inten    --      0.8311                 0.6480                 5.0303

                      4                      5                      6
                      A                      A                      A
 Frequencies --    161.7272               204.4341               261.7931
 Red. masses --      3.7852                 3.6350                 2.3870
 Frc consts  --      0.0583                 0.0895                 0.0964
 IR Inten    --      6.6950                 9.5103                66.9894

                      7                      8                      9
                      A                      A                      A
 Frequencies --    300.1027               333.9079               353.8016
 Red. masses --      1.4729                 4.0066                 4.4058
 Frc consts  --      0.0782                 0.2632                 0.3249
 IR Inten    --     61.4055                23.6215                 0.6456

                     10                     11                     12
                      A                      A                      A
 Frequencies --    383.5811               476.3589               534.6987
 Red. masses --      4.1629                 2.8871                 4.7723
 Frc consts  --      0.3609                 0.3860                 0.8039
 IR Inten    --      2.0886                 9.3353                 4.7936

                     13                     14                     15
                      A                      A                      A
 Frequencies --    542.4966               596.0505               598.7709
 Red. masses --      4.6164                 1.4264                 1.3906
 Frc consts  --      0.8005                 0.2986                 0.2937
 IR Inten    --      7.0373                33.0057                36.5677

                     16                     17                     18
                      A                      A                      A
 Frequencies --    685.5729               727.1339               784.2642
 Red. masses --      3.1299                 3.7979                 2.7487
 Frc consts  --      0.8667                 1.1831                 0.9961
 IR Inten    --     12.0078                 1.0330                10.4782

                     19                     20                     21
                      A                      A                      A
 Frequencies --    866.9892               958.6542              1014.4476
 Red. masses --      2.1521                 3.0834                 2.4203
 Frc consts  --      0.9531                 1.6695                 1.4675
 IR Inten    --      5.6351                10.0097                19.5027

                     22                     23                     24
                      A                      A                      A
 Frequencies --   1123.1253              1168.3397              1181.8453
 Red. masses --      3.6171                 1.0844                 3.2007
 Frc consts  --      2.6883                 0.8721                 2.6340
 IR Inten    --     46.5508                42.6968                 1.8814

                     25                     26                     27
                      A                      A                      A
 Frequencies --   1185.1936              1234.9662              1267.8002
 Red. masses --      1.1687                 1.1916                 1.3007
 Frc consts  --      0.9672                 1.0708                 1.2318
 IR Inten    --     11.5137               140.6589                 7.6391

                     28                     29                     30
                      A                      A                      A
 Frequencies --   1331.9404              1350.1809              1408.3564
 Red. masses --      1.4393                 1.5749                 1.2000
 Frc consts  --      1.5044                 1.6915                 1.4023
 IR Inten    --      5.9369                14.4564                37.9885

                     31                     32                     33
                      A                      A                      A
 Frequencies --   1425.4951              1461.9096              1733.5647
 Red. masses --      1.2516                 1.0996                 9.1351
 Frc consts  --      1.4985                 1.3846                16.1750
 IR Inten    --     44.4556                 3.9582                49.7148

                     34                     35                     36
                      A                      A                      A
 Frequencies --   2184.0446              2367.0303              2998.8260
 Red. masses --      6.6588                10.6724                 1.0639
 Frc consts  --     18.7142                35.2307                 5.6373
 IR Inten    --      0.7787                10.3835                17.9944

                     37                     38                     39
                      A                      A                      A
 Frequencies --   3031.6182              3044.9266              3070.1931
 Red. masses --      1.0832                 1.0949                 1.0882
 Frc consts  --      5.8656                 5.9808                 6.0433
 IR Inten    --      7.3699                 9.3897                39.9603

                     40                     41                     42
                      A                      A                      A
 Frequencies --   3389.4715              3505.3605              3795.2894
 Red. masses --      1.0713                 1.1551                 1.0660
 Frc consts  --      7.2515                 8.3628                 9.0471
 IR Inten    --      0.9183               115.8715                21.5563

 - Thermochemistry -
 -------------------
 Temperature   298.150 Kelvin.  Pressure   1.00000 Atm.
 Atom     1 has atomic number  6 and mass  12.00000

 Molecular mass:   121.05276 amu.
 Principal axes and moments of inertia in atomic units:
                           1         2         3
     Eigenvalues --   256.751223153.788643334.52779
           X            0.99999  -0.00514  -0.00144
           Y            0.00510   0.99975  -0.02169
           Z            0.00156   0.02168   0.99976
 This molecule is an asymmetric top.
 Rotational symmetry number  1.
 Rotational temperatures (Kelvin)      0.33735     0.02746     0.02597
 Rotational constants (GHZ):           7.02914     0.57225     0.54123
 Zero-point vibrational energy     318634.3 (Joules/Mol)
                                   76.15542 (Kcal/Mol)
 Warning -- explicit consideration of  15 degrees of freedom as
           vibrations may cause significant error
 Vibrational temperatures:     64.24    88.14   174.55   232.69   294.14
          (Kelvin)            376.66   431.78   480.42   509.04   551.89
                              685.37   769.31   780.53   857.58   861.50
                              986.39  1046.18  1128.38  1247.40  1379.29
                             1459.56  1615.93  1680.98  1700.41  1705.23
                             1776.84  1824.08  1916.37  1942.61  2026.31
                             2050.97  2103.36  2494.21  3142.35  3405.63
                             4314.64  4361.82  4380.97  4417.32  4876.69
                             5043.43  5460.57

 Zero-point correction=                           0.121361 (Hartree/Particle)
 Thermal correction to Energy=                    0.131223
 Thermal correction to Enthalpy=                  0.132168
 Thermal correction to Gibbs Free Energy=         0.085790
 Sum of electronic and zero-point Energies=           -400.682717
 Sum of electronic and thermal Energies=              -400.672855
 Sum of electronic and thermal Enthalpies=            -400.671911
 Sum of electronic and thermal Free Energies=         -400.718288

                     E (Thermal)             CV                S
                      KCal/Mol        Cal/Mol-Kelvin    Cal/Mol-Kelvin
 Total                   82.344             34.869             97.609
 Electronic               0.000              0.000              0.000
 Translational            0.889              2.981             40.288
 Rotational               0.889              2.981             29.381
 Vibrational             80.567             28.907             27.941
 Vibration     1          0.595              1.980              5.041
 Vibration     2          0.597              1.973              4.416
 Vibration     3          0.609              1.931              3.079
 Vibration     4          0.622              1.889              2.529
 Vibration     5          0.640              1.834              2.093
 Vibration     6          0.669              1.743              1.650
 Vibration     7          0.693              1.673              1.416
 Vibration     8          0.715              1.608              1.241
 Vibration     9          0.730              1.567              1.149
 Vibration    10          0.753              1.505              1.025
 Vibration    11          0.833              1.302              0.720
 Vibration    12          0.890              1.173              0.577
 Vibration    13          0.898              1.156              0.560
 Vibration    14          0.954              1.040              0.456
 Vibration    15          0.957              1.034              0.452

 Optimization completed.
    -- Stationary point found.
 Normal termination of Gaussian 16 at Thu Aug  4 11:13:01 2022.
