 Gaussian 16, Revision A.03,
 Gaussian 16:  ES64L-G16RevA.03 25-Dec-2016

 -----------------------------
 # opt freq b3lyp/6-31g(2df,p)
 -----------------------------

 -------------------
 Title Card Required
 -------------------
 Symbolic Z-matrix:
 Charge =  0 Multiplicity = 1

 SCF Done:  E(RB3LYP) =  -420.598016509     A.U. after   15 cycles
 SCF Done:  E(RB3LYP) =  -420.640125397     A.U. after   13 cycles
 SCF Done:  E(RB3LYP) =  -420.646396121     A.U. after   13 cycles
 SCF Done:  E(RB3LYP) =  -420.628439453     A.U. after   17 cycles
 SCF Done:  E(RB3LYP) =  -420.643609198     A.U. after   14 cycles
 SCF Done:  E(RB3LYP) =  -420.646954495     A.U. after   12 cycles
 SCF Done:  E(RB3LYP) =  -420.646925107     A.U. after   12 cycles
 SCF Done:  E(RB3LYP) =  -420.647526803     A.U. after   11 cycles
 SCF Done:  E(RB3LYP) =  -420.647418514     A.U. after   12 cycles
 SCF Done:  E(RB3LYP) =  -420.647590690     A.U. after   11 cycles
 SCF Done:  E(RB3LYP) =  -420.647593372     A.U. after    9 cycles
 SCF Done:  E(RB3LYP) =  -420.647593774     A.U. after    8 cycles
 Optimization completed.
    -- Stationary point found.
 Normal termination of Gaussian 16 at Sun Jul  3 23:13:49 2022.

 ----------------------------------------------------------------------
 #N Geom=AllCheck Guess=TCheck SCRF=Check GenChk RB3LYP/6-31G(2df,p) Fr
 eq
 ----------------------------------------------------------------------

 Structure from the checkpoint file:  "CtCCtCCOCdCO.chk"
 -------------------
 Title Card Required
 -------------------
 Charge =  0 Multiplicity = 1

                         Standard orientation:
 ---------------------------------------------------------------------
 Center     Atomic      Atomic             Coordinates (Angstroms)
 Number     Number       Type             X           Y           Z
 ---------------------------------------------------------------------
      1          6           0        5.035434   -0.636085    0.000022
      2          6           0        3.884895   -0.270439   -0.000046
      3          6           0        2.589137    0.143937   -0.000016
      4          6           0        1.435387    0.505129    0.000009
      5          6           0        0.065346    0.989025    0.000008
      6          8           0       -0.831417   -0.109742    0.000004
      7          6           0       -2.157380    0.253359    0.000002
      8          6           0       -3.119022   -0.668053    0.000000
      9          8           0       -4.463642   -0.428140   -0.000002
     10          1           0        6.046367   -0.960814    0.000089
     11          1           0       -0.102268    1.623086   -0.886351
     12          1           0       -0.102270    1.623081    0.886371
     13          1           0       -2.372442    1.320910    0.000001
     14          1           0       -2.893036   -1.727612    0.000002
     15          1           0       -4.618659    0.523173   -0.000003
 ---------------------------------------------------------------------

 SCF Done:  E(RB3LYP) =  -420.647593774     A.U. after    1 cycles

 The electronic state is 1-A.
 Alpha  occ. eigenvalues --  -19.16888 -19.16879 -10.27260 -10.22850 -10.22590
 Alpha  occ. eigenvalues --  -10.20819 -10.20746 -10.20453 -10.19906  -1.06490
 Alpha  occ. eigenvalues --   -1.05155  -0.81038  -0.77959  -0.73961  -0.69859
 Alpha  occ. eigenvalues --   -0.61615  -0.61264  -0.53955  -0.52675  -0.51924
 Alpha  occ. eigenvalues --   -0.48738  -0.47160  -0.43205  -0.39164  -0.37139
 Alpha  occ. eigenvalues --   -0.35284  -0.35216  -0.34658  -0.33220  -0.25770
 Alpha  occ. eigenvalues --   -0.25061  -0.20029
 Alpha virt. eigenvalues --   -0.02890  -0.01804   0.04538   0.06553   0.09035
 Alpha virt. eigenvalues --    0.11364   0.11850   0.14066   0.14351   0.15831
 Alpha virt. eigenvalues --    0.19903   0.20182   0.21779   0.24744   0.28085

 Mulliken charges:
               1
     1  C   -0.550408
     2  C    0.290548
     3  C   -0.152225
     4  C    0.309394
     5  C   -0.248500
     6  O   -0.223310
     7  C   -0.031840
     8  C    0.026367
     9  O   -0.386064
    10  H    0.195502
    11  H    0.132613
    12  H    0.132612
    13  H    0.081646
    14  H    0.127099
    15  H    0.296569
 Sum of Mulliken charges =  -0.00000

 Dipole moment (field-independent basis, Debye):
    X=              0.0283    Y=              2.3138    Z=              0.0001  Tot=              2.3140
 Quadrupole moment (field-independent basis, Debye-Ang):
   XX=            -42.4457   YY=            -47.2071   ZZ=            -52.8139
   XY=             -9.5346   XZ=              0.0005   YZ=             -0.0001

  Exact polarizability: 165.005 -13.403  62.879   0.001  -0.000  40.794
 Approx polarizability: 255.588 -33.652 101.245   0.002  -0.000  60.497

 ******    1 imaginary frequencies (negative Signs) ******

                      1                      2                      3
                      A                      A                      A
 Frequencies --   -109.6351                43.0448                54.9320
 Red. masses --      2.1835                 3.5091                 6.0077
 Frc consts  --      0.0155                 0.0038                 0.0107
 IR Inten    --      0.3330                 7.7095                 0.8356

                      4                      5                      6
                      A                      A                      A
 Frequencies --    144.4329               161.6953               245.5546
 Red. masses --      3.7642                 5.5310                 5.9333
 Frc consts  --      0.0463                 0.0852                 0.2108
 IR Inten    --      4.1578                 2.9736                 1.6300

                      7                      8                      9
                      A                      A                      A
 Frequencies --    293.0460               347.9480               376.7016
 Red. masses --      2.7685                 4.0823                 6.4902
 Frc consts  --      0.1401                 0.2912                 0.5426
 IR Inten    --     11.1082                 2.7076                 7.1673

                     10                     11                     12
                      A                      A                      A
 Frequencies --    390.1084               430.1103               538.5279
 Red. masses --      1.6517                 4.9559                 3.7111
 Frc consts  --      0.1481                 0.5402                 0.6341
 IR Inten    --     74.9326                12.4704                13.8411

                     13                     14                     15
                      A                      A                      A
 Frequencies --    540.6618               591.3438               594.1752
 Red. masses --      7.4679                 1.5478                 3.3747
 Frc consts  --      1.2862                 0.3189                 0.7020
 IR Inten    --      5.6941                28.7129                 1.1148

                     16                     17                     18
                      A                      A                      A
 Frequencies --    617.6157               775.3702               780.3365
 Red. masses --      1.5415                 4.8963                 1.8085
 Frc consts  --      0.3464                 1.7344                 0.6488
 IR Inten    --     35.9592                13.4096                 4.1925

                     19                     20                     21
                      A                      A                      A
 Frequencies --    934.0114              1022.0591              1044.1556
 Red. masses --      1.1285                 1.6296                 8.0421
 Frc consts  --      0.5800                 1.0030                 5.1660
 IR Inten    --     45.5325                 1.9444                34.9379

                     22                     23                     24
                      A                      A                      A
 Frequencies --   1121.1830              1178.4391              1199.1126
 Red. masses --      2.3987                 4.8689                 5.0557
 Frc consts  --      1.7766                 3.9837                 4.2830
 IR Inten    --     99.6104               281.4456               415.3695

                     25                     26                     27
                      A                      A                      A
 Frequencies --   1245.1019              1283.8896              1328.7615
 Red. masses --      1.0613                 1.6896                 1.1727
 Frc consts  --      0.9694                 1.6409                 1.2199
 IR Inten    --      1.4962                38.1829                 1.6347

                     28                     29                     30
                      A                      A                      A
 Frequencies --   1382.8429              1423.8005              1495.2990
 Red. masses --      1.3275                 1.4083                 1.0768
 Frc consts  --      1.4957                 1.6820                 1.4185
 IR Inten    --    220.5419                15.1484                 1.7404

                     31                     32                     33
                      A                      A                      A
 Frequencies --   1757.0091              2186.0947              2371.0550
 Red. masses --      5.6059                 6.6336                10.7281
 Frc consts  --     10.1964                18.6782                35.5351
 IR Inten    --      7.3608                 5.0104                 1.0089

                     34                     35                     36
                      A                      A                      A
 Frequencies --   2958.9171              2982.0513              3131.2912
 Red. masses --      1.0539                 1.1037                 1.0900
 Frc consts  --      5.4366                 5.7828                 6.2968
 IR Inten    --     44.5627                28.7222                37.4454

                     37                     38                     39
                      A                      A                      A
 Frequencies --   3213.4018              3504.6897              3805.0803
 Red. masses --      1.0916                 1.1555                 1.0655
 Frc consts  --      6.6412                 8.3620                 9.0889
 IR Inten    --      6.6680               113.0664                32.9034

 - Thermochemistry -
 -------------------
 Temperature   298.150 Kelvin.  Pressure   1.00000 Atm.
 Atom     1 has atomic number  6 and mass  12.00000

 Molecular mass:   122.03678 amu.
 Principal axes and moments of inertia in atomic units:
                           1         2         3
     Eigenvalues --   152.883114167.036634308.60969
           X            0.99998  -0.00597   0.00000
           Y            0.00597   0.99998  -0.00000
           Z           -0.00000   0.00000   1.00000
 This molecule is an asymmetric top.
 Rotational symmetry number  1.
 Rotational temperatures (Kelvin)      0.56654     0.02079     0.02010
 Rotational constants (GHZ):          11.80471     0.43310     0.41887
    1 imaginary frequencies ignored.
 Zero-point vibrational energy     284076.3 (Joules/Mol)
                                   67.89587 (Kcal/Mol)
 Warning -- explicit consideration of  15 degrees of freedom as
           vibrations may cause significant error
 Vibrational temperatures:     61.93    79.03   207.81   232.64   353.30
          (Kelvin)            421.63   500.62   541.99   561.28   618.83
                              774.82   777.89   850.81   854.89   888.61
                             1115.58  1122.73  1343.83  1470.52  1502.31
                             1613.13  1695.51  1725.26  1791.42  1847.23
                             1911.79  1989.60  2048.53  2151.40  2527.94
                             3145.30  3411.42  4257.22  4290.51  4505.23
                             4623.37  5042.47  5474.66

 Zero-point correction=                           0.108199 (Hartree/Particle)
 Thermal correction to Energy=                    0.117470
 Thermal correction to Enthalpy=                  0.118414
 Thermal correction to Gibbs Free Energy=         0.073024
 Sum of electronic and zero-point Energies=           -420.539395
 Sum of electronic and thermal Energies=              -420.530124
 Sum of electronic and thermal Enthalpies=            -420.529180
 Sum of electronic and thermal Free Energies=         -420.574570

                     E (Thermal)             CV                S
                      KCal/Mol        Cal/Mol-Kelvin    Cal/Mol-Kelvin
 Total                   73.713             32.577             95.531
 Electronic               0.000              0.000              0.000
 Translational            0.889              2.981             40.312
 Rotational               0.889              2.981             29.397
 Vibrational             71.936             26.616             25.823
 Vibration     1          0.595              1.980              5.114
 Vibration     2          0.596              1.976              4.631
 Vibration     3          0.616              1.909              2.744
 Vibration     4          0.622              1.889              2.530
 Vibration     5          0.660              1.770              1.762
 Vibration     6          0.688              1.687              1.456
 Vibration     7          0.726              1.579              1.175
 Vibration     8          0.747              1.520              1.052
 Vibration     9          0.758              1.491              1.000
 Vibration    10          0.791              1.405              0.858
 Vibration    11          0.894              1.165              0.568
 Vibration    12          0.896              1.160              0.564
 Vibration    13          0.949              1.050              0.465
 Vibration    14          0.952              1.044              0.460
 Vibration    15          0.977              0.995              0.420

 Optimization completed.
    -- Stationary point found.
 Normal termination of Gaussian 16 at Sun Jul  3 23:27:46 2022.
