 Gaussian 16, Revision A.03,
 Gaussian 16:  ES64L-G16RevA.03 25-Dec-2016

 -----------------------------
 # opt freq b3lyp/6-31g(2df,p)
 -----------------------------

 -------------------
 Title Card Required
 -------------------
 Symbolic Z-matrix:
 Charge =  0 Multiplicity = 1

 SCF Done:  E(RB3LYP) =  -387.221184541     A.U. after   13 cycles
 SCF Done:  E(RB3LYP) =  -387.241269292     A.U. after   12 cycles
 SCF Done:  E(RB3LYP) =  -387.241712724     A.U. after   12 cycles
 SCF Done:  E(RB3LYP) =  -387.236859850     A.U. after   14 cycles
 SCF Done:  E(RB3LYP) =  -387.241606160     A.U. after   12 cycles
 SCF Done:  E(RB3LYP) =  -387.242259029     A.U. after    9 cycles
 SCF Done:  E(RB3LYP) =  -387.242499940     A.U. after   11 cycles
 SCF Done:  E(RB3LYP) =  -387.242358345     A.U. after   11 cycles
 SCF Done:  E(RB3LYP) =  -387.242674843     A.U. after   10 cycles
 SCF Done:  E(RB3LYP) =  -387.242677111     A.U. after    8 cycles
 SCF Done:  E(RB3LYP) =  -387.242678840     A.U. after    8 cycles
 SCF Done:  E(RB3LYP) =  -387.242678960     A.U. after    7 cycles
 SCF Done:  E(RB3LYP) =  -387.242679050     A.U. after    7 cycles
 SCF Done:  E(RB3LYP) =  -387.242679073     A.U. after    6 cycles
 Optimization completed.
    -- Stationary point found.
 Normal termination of Gaussian 16 at Thu Aug  4 11:34:55 2022.

 ----------------------------------------------------------------------
 #N Geom=AllCheck Guess=TCheck SCRF=Check GenChk RB3LYP/6-31G(2df,p) Fr
 eq
 ----------------------------------------------------------------------

 Structure from the checkpoint file:  "CtCC1CCCCCO1.chk"
 -------------------
 Title Card Required
 -------------------
 Charge =  0 Multiplicity = 1

                         Standard orientation:
 ---------------------------------------------------------------------
 Center     Atomic      Atomic             Coordinates (Angstroms)
 Number     Number       Type             X           Y           Z
 ---------------------------------------------------------------------
      1          6           0        3.527842   -0.104188   -0.317688
      2          6           0        2.368618   -0.092331   -0.003021
      3          6           0        0.959631   -0.028538    0.386930
      4          6           0        0.367305    1.358394    0.068728
      5          6           0       -1.133703    1.501602    0.365131
      6          6           0       -2.028840    0.661663   -0.563788
      7          6           0       -2.191819   -0.822115   -0.181389
      8          6           0       -0.929433   -1.490225    0.385345
      9          8           0        0.271262   -1.094021   -0.260477
     10          1           0        4.552775   -0.129899   -0.594286
     11          1           0        0.899299   -0.185053    1.478285
     12          1           0        0.548953    1.571739   -0.991024
     13          1           0        0.937292    2.098739    0.642526
     14          1           0       -1.393059    2.559038    0.239854
     15          1           0       -1.340357    1.266430    1.418439
     16          1           0       -1.618358    0.725839   -1.578020
     17          1           0       -3.026678    1.111714   -0.613250
     18          1           0       -2.533137   -1.372719   -1.065028
     19          1           0       -2.983089   -0.932560    0.571762
     20          1           0       -1.003513   -2.577398    0.269001
     21          1           0       -0.847835   -1.289264    1.464069
 ---------------------------------------------------------------------

 SCF Done:  E(RB3LYP) =  -387.242679073     A.U. after    1 cycles

 The electronic state is 1-A.
 Alpha  occ. eigenvalues --  -19.13813 -10.25314 -10.22603 -10.18400 -10.18345
 Alpha  occ. eigenvalues --  -10.18006 -10.17955 -10.17749 -10.17215  -1.03165
 Alpha  occ. eigenvalues --   -0.80387  -0.79362  -0.73567  -0.68384  -0.67253
 Alpha  occ. eigenvalues --   -0.59204  -0.56176  -0.53364  -0.49346  -0.49137
 Alpha  occ. eigenvalues --   -0.46728  -0.45036  -0.42262  -0.40566  -0.39869
 Alpha  occ. eigenvalues --   -0.37928  -0.35777  -0.33536  -0.32654  -0.32077
 Alpha  occ. eigenvalues --   -0.30588  -0.27405  -0.26558  -0.24757
 Alpha virt. eigenvalues --    0.03856   0.05825   0.08548   0.10756   0.11854
 Alpha virt. eigenvalues --    0.12943   0.13605   0.14624   0.15054   0.16089
 Alpha virt. eigenvalues --    0.16866   0.17694   0.18059   0.19398   0.20202

 Mulliken charges:
               1
     1  C   -0.418428
     2  C    0.309237
     3  C   -0.073580
     4  C   -0.184721
     5  C   -0.220961
     6  C   -0.176388
     7  C   -0.202843
     8  C   -0.060452
     9  O   -0.255847
    10  H    0.194472
    11  H    0.092979
    12  H    0.112307
    13  H    0.103249
    14  H    0.097882
    15  H    0.091987
    16  H    0.105923
    17  H    0.093270
    18  H    0.103445
    19  H    0.094944
    20  H    0.104150
    21  H    0.089374
 Sum of Mulliken charges =  -0.00000

 Dipole moment (field-independent basis, Debye):
    X=             -1.0329    Y=              0.7527    Z=              0.8821  Tot=              1.5529
 Quadrupole moment (field-independent basis, Debye-Ang):
   XX=            -50.4090   YY=            -54.9531   ZZ=            -54.6420
   XY=              1.5154   XZ=             -0.9034   YZ=             -0.9704

  Exact polarizability: 111.655   1.853  76.565  -4.544  -0.250  66.905
 Approx polarizability: 150.400   2.411 104.892 -12.264   1.066 106.897

                      1                      2                      3
                      A                      A                      A
 Frequencies --     78.6285               112.2167               141.8449
 Red. masses --      2.9064                 2.0381                 3.8154
 Frc consts  --      0.0106                 0.0151                 0.0452
 IR Inten    --      0.5319                 0.4921                 0.8591

                      4                      5                      6
                      A                      A                      A
 Frequencies --    216.1798               301.0492               304.3040
 Red. masses --      2.9514                 3.4129                 2.2220
 Frc consts  --      0.0813                 0.1822                 0.1212
 IR Inten    --      2.8131                 1.4067                 0.3491

                      7                      8                      9
                      A                      A                      A
 Frequencies --    335.2786               402.6574               484.4504
 Red. masses --      3.5450                 3.2603                 1.7416
 Frc consts  --      0.2348                 0.3114                 0.2408
 IR Inten    --      0.1450                 0.1550                 2.2051

                     10                     11                     12
                      A                      A                      A
 Frequencies --    507.6268               527.2126               592.3444
 Red. masses --      4.9754                 4.1049                 3.0406
 Frc consts  --      0.7554                 0.6722                 0.6286
 IR Inten    --      0.6115                 3.2576                 5.4735

                     13                     14                     15
                      A                      A                      A
 Frequencies --    619.4966               667.7218               755.3474
 Red. masses --      1.2162                 1.2578                 1.3703
 Frc consts  --      0.2750                 0.3304                 0.4607
 IR Inten    --     42.1234                33.9703                 2.0269

                     16                     17                     18
                      A                      A                      A
 Frequencies --    773.4646               845.3602               871.1091
 Red. masses --      2.2906                 2.4944                 2.1520
 Frc consts  --      0.8074                 1.0503                 0.9621
 IR Inten    --      3.9104                 3.2511                 4.5507

                     19                     20                     21
                      A                      A                      A
 Frequencies --    906.9037               964.1106              1005.7600
 Red. masses --      2.2194                 2.1530                 2.4497
 Frc consts  --      1.0755                 1.1791                 1.4600
 IR Inten    --      5.0926                14.9659                17.7126

                     22                     23                     24
                      A                      A                      A
 Frequencies --   1029.4342              1039.8213              1050.8350
 Red. masses --      1.7940                 3.0248                 2.0875
 Frc consts  --      1.1202                 1.9269                 1.3581
 IR Inten    --     10.4363                 9.0846                 9.7031

                     25                     26                     27
                      A                      A                      A
 Frequencies --   1108.0249              1132.3912              1144.6742
 Red. masses --      2.4566                 2.1043                 5.5784
 Frc consts  --      1.7770                 1.5898                 4.3065
 IR Inten    --     18.2924                 3.9966               167.1619

                     28                     29                     30
                      A                      A                      A
 Frequencies --   1199.2717              1224.4177              1272.6341
 Red. masses --      1.4707                 1.1722                 1.2768
 Frc consts  --      1.2462                 1.0354                 1.2184
 IR Inten    --      8.5485                 0.7012                 3.2292

                     31                     32                     33
                      A                      A                      A
 Frequencies --   1298.0665              1308.4816              1321.5356
 Red. masses --      1.2539                 1.1023                 1.2841
 Frc consts  --      1.2448                 1.1119                 1.3213
 IR Inten    --      7.4054                 7.5366                11.2959

                     34                     35                     36
                      A                      A                      A
 Frequencies --   1363.0223              1374.1328              1384.8812
 Red. masses --      1.2118                 1.3086                 1.4421
 Frc consts  --      1.3265                 1.4558                 1.6295
 IR Inten    --      5.9942                15.9580                17.3978

                     37                     38                     39
                      A                      A                      A
 Frequencies --   1387.1515              1396.2054              1426.6995
 Red. masses --      1.3179                 1.4460                 1.2696
 Frc consts  --      1.4940                 1.6608                 1.5226
 IR Inten    --      4.2046                 4.4334                 6.1843

                     40                     41                     42
                      A                      A                      A
 Frequencies --   1473.8084              1483.3265              1488.3409
 Red. masses --      1.0905                 1.0773                 1.0906
 Frc consts  --      1.3956                 1.3966                 1.4234
 IR Inten    --      1.2672                 0.7783                 2.0657

                     43                     44                     45
                      A                      A                      A
 Frequencies --   1497.7070              1505.8908              2241.8601
 Red. masses --      1.0856                 1.0912                 5.9074
 Frc consts  --      1.4347                 1.4579                17.4929
 IR Inten    --      7.4166                 3.1822                 0.9652

                     46                     47                     48
                      A                      A                      A
 Frequencies --   2943.3070              2985.5992              3014.4007
 Red. masses --      1.0804                 1.0669                 1.0646
 Frc consts  --      5.5144                 5.6034                 5.6997
 IR Inten    --     22.4510                31.9373                25.0012

                     49                     50                     51
                      A                      A                      A
 Frequencies --   3020.6967              3030.9914              3032.3420
 Red. masses --      1.0630                 1.0645                 1.0618
 Frc consts  --      5.7146                 5.7616                 5.7525
 IR Inten    --     28.7702                 3.8069                28.4271

                     52                     53                     54
                      A                      A                      A
 Frequencies --   3050.8151              3059.4827              3065.7653
 Red. masses --      1.0948                 1.0956                 1.0965
 Frc consts  --      6.0034                 6.0423                 6.0718
 IR Inten    --     22.1460                65.5679                39.1204

                     55                     56                     57
                      A                      A                      A
 Frequencies --   3074.9803              3079.9866              3504.9871
 Red. masses --      1.1036                 1.1028                 1.1630
 Frc consts  --      6.1481                 6.1639                 8.4181
 IR Inten    --     12.6720                74.4973                64.4026

 - Thermochemistry -
 -------------------
 Temperature   298.150 Kelvin.  Pressure   1.00000 Atm.
 Atom     1 has atomic number  6 and mass  12.00000

 Molecular mass:   124.08882 amu.
 Principal axes and moments of inertia in atomic units:
                           1         2         3
     Eigenvalues --   574.989081581.782971982.83036
           X            0.99997   0.00716   0.00059
           Y           -0.00715   0.99989  -0.01275
           Z           -0.00068   0.01275   0.99992
 This molecule is an asymmetric top.
 Rotational symmetry number  1.
 Warning -- assumption of classical behavior for rotation
           may cause significant error
 Rotational temperatures (Kelvin)      0.15064     0.05476     0.04368
 Rotational constants (GHZ):           3.13874     1.14095     0.91018
 Zero-point vibrational energy     481072.5 (Joules/Mol)
                                  114.97908 (Kcal/Mol)
 Warning -- explicit consideration of  13 degrees of freedom as
           vibrations may cause significant error
 Vibrational temperatures:    113.13   161.45   204.08   311.03   433.14
          (Kelvin)            437.83   482.39   579.33   697.02   730.36
                              758.54   852.25   891.32   960.70  1086.78
                             1112.84  1216.28  1253.33  1304.83  1387.14
                             1447.06  1481.13  1496.07  1511.92  1594.20
                             1629.26  1646.93  1725.48  1761.66  1831.04
                             1867.63  1882.61  1901.39  1961.09  1977.07
                             1992.54  1995.80  2008.83  2052.70  2120.48
                             2134.18  2141.39  2154.87  2166.64  3225.54
                             4234.76  4295.61  4337.05  4346.11  4360.92
                             4362.86  4389.44  4401.91  4410.95  4424.21
                             4431.41  5042.89

 Zero-point correction=                           0.183231 (Hartree/Particle)
 Thermal correction to Energy=                    0.192110
 Thermal correction to Enthalpy=                  0.193054
 Thermal correction to Gibbs Free Energy=         0.149661
 Sum of electronic and zero-point Energies=           -387.059448
 Sum of electronic and thermal Energies=              -387.050569
 Sum of electronic and thermal Enthalpies=            -387.049625
 Sum of electronic and thermal Free Energies=         -387.093018

                     E (Thermal)             CV                S
                      KCal/Mol        Cal/Mol-Kelvin    Cal/Mol-Kelvin
 Total                  120.551             34.280             91.327
 Electronic               0.000              0.000              0.000
 Translational            0.889              2.981             40.361
 Rotational               0.889              2.981             28.979
 Vibrational            118.773             28.319             21.986
 Vibration     1          0.600              1.964              3.925
 Vibration     2          0.607              1.939              3.230
 Vibration     3          0.615              1.911              2.779
 Vibration     4          0.645              1.816              1.991
 Vibration     5          0.693              1.672              1.411
 Vibration     6          0.695              1.666              1.393
 Vibration     7          0.716              1.605              1.235
 Vibration     8          0.768              1.464              0.953
 Vibration     9          0.841              1.285              0.698
 Vibration    10          0.863              1.233              0.639
 Vibration    11          0.882              1.190              0.593
 Vibration    12          0.950              1.048              0.463
 Vibration    13          0.979              0.991              0.417

 Optimization completed.
    -- Stationary point found.
 Normal termination of Gaussian 16 at Thu Aug  4 12:07:46 2022.
