 Gaussian 16, Revision A.03,
 Gaussian 16:  ES64L-G16RevA.03 25-Dec-2016

 -----------------------------
 # opt freq b3lyp/6-31g(2df,p)
 -----------------------------

 -------------------
 Title Card Required
 -------------------
 Symbolic Z-matrix:
 Charge =  0 Multiplicity = 1

 SCF Done:  E(RB3LYP) =  -324.598385194     A.U. after   14 cycles
 SCF Done:  E(RB3LYP) =  -324.621350348     A.U. after   13 cycles
 SCF Done:  E(RB3LYP) =  -324.622961712     A.U. after   12 cycles
 SCF Done:  E(RB3LYP) =  -324.613907017     A.U. after   14 cycles
 SCF Done:  E(RB3LYP) =  -324.622500793     A.U. after   12 cycles
 SCF Done:  E(RB3LYP) =  -324.623430765     A.U. after   10 cycles
 SCF Done:  E(RB3LYP) =  -324.623031959     A.U. after   12 cycles
 SCF Done:  E(RB3LYP) =  -324.624217450     A.U. after   11 cycles
 SCF Done:  E(RB3LYP) =  -324.624609435     A.U. after   12 cycles
 SCF Done:  E(RB3LYP) =  -324.624430339     A.U. after   12 cycles
 SCF Done:  E(RB3LYP) =  -324.624877044     A.U. after   11 cycles
 SCF Done:  E(RB3LYP) =  -324.624943371     A.U. after   10 cycles
 SCF Done:  E(RB3LYP) =  -324.624989228     A.U. after   10 cycles
 SCF Done:  E(RB3LYP) =  -324.625007826     A.U. after   10 cycles
 SCF Done:  E(RB3LYP) =  -324.625020490     A.U. after   10 cycles
 SCF Done:  E(RB3LYP) =  -324.625021691     A.U. after    8 cycles
 Optimization completed.
    -- Stationary point found.
 Normal termination of Gaussian 16 at Sun Jul  3 11:20:17 2022.

 ----------------------------------------------------------------------
 #N Geom=AllCheck Guess=TCheck SCRF=Check GenChk RB3LYP/6-31G(2df,p) Fr
 eq
 ----------------------------------------------------------------------

 Structure from the checkpoint file:  "CtCCC1pNpCO1.chk"
 -------------------
 Title Card Required
 -------------------
 Charge =  0 Multiplicity = 1

                         Standard orientation:
 ---------------------------------------------------------------------
 Center     Atomic      Atomic             Coordinates (Angstroms)
 Number     Number       Type             X           Y           Z
 ---------------------------------------------------------------------
      1          6           0        2.812863    0.003063    0.387410
      2          6           0        1.775476   -0.321053   -0.126323
      3          6           0        0.497060   -0.664962   -0.739094
      4          6           0       -0.667182    0.129948   -0.134538
      5          7           0       -0.555660    1.555461   -0.090100
      6          6           0       -2.015378   -0.448132   -0.145032
      7          8           0       -1.213759   -0.466360    1.038387
      8          1           0        3.735648    0.263049    0.844174
      9          1           0        0.297166   -1.735301   -0.620594
     10          1           0        0.543880   -0.462803   -1.817611
     11          1           0       -0.713998    1.954408   -1.010091
     12          1           0        0.381681    1.821726    0.200484
     13          1           0       -2.192291   -1.417411   -0.610834
     14          1           0       -2.869433    0.225801   -0.116457
 ---------------------------------------------------------------------

 SCF Done:  E(RB3LYP) =  -324.625021691     A.U. after    1 cycles

 The electronic state is 1-A.
 Alpha  occ. eigenvalues --  -19.14680 -14.32012 -10.27197 -10.23312 -10.21701
 Alpha  occ. eigenvalues --  -10.18885 -10.17833  -1.07645  -0.88687  -0.78953
 Alpha  occ. eigenvalues --   -0.71642  -0.66572  -0.59243  -0.53760  -0.50840
 Alpha  occ. eigenvalues --   -0.49953  -0.46955  -0.45176  -0.44124  -0.40783
 Alpha  occ. eigenvalues --   -0.38631  -0.30450  -0.28303  -0.27228  -0.26506
 Alpha  occ. eigenvalues --   -0.25534
 Alpha virt. eigenvalues --    0.04176   0.05059   0.08813   0.10118   0.11841
 Alpha virt. eigenvalues --    0.12585   0.13756   0.15175   0.16772   0.16855
 Alpha virt. eigenvalues --    0.18360   0.22621   0.23859   0.29326   0.33025

 Mulliken charges:
               1
     1  C   -0.438924
     2  C    0.291328
     3  C   -0.398204
     4  C    0.382396
     5  N   -0.555036
     6  C   -0.212345
     7  O   -0.243505
     8  H    0.201514
     9  H    0.140704
    10  H    0.128090
    11  H    0.233569
    12  H    0.241431
    13  H    0.109297
    14  H    0.119686
 Sum of Mulliken charges =  -0.00000

 Dipole moment (field-independent basis, Debye):
    X=              0.4274    Y=              0.2441    Z=             -2.6568  Tot=              2.7020
 Quadrupole moment (field-independent basis, Debye-Ang):
   XX=            -36.9906   YY=            -40.0002   ZZ=            -41.8247
   XY=              2.8166   XZ=              5.0973   YZ=             -0.1671

  Exact polarizability:  78.852   6.543  51.610   8.843   2.315  45.935
 Approx polarizability: 110.296  13.841  74.594  18.598   3.678  75.629

                      1                      2                      3
                      A                      A                      A
 Frequencies --     74.4879               140.2876               185.6437
 Red. masses --      3.8774                 4.1221                 1.0813
 Frc consts  --      0.0127                 0.0478                 0.0220
 IR Inten    --      1.1343                 0.7878                33.4436

                      4                      5                      6
                      A                      A                      A
 Frequencies --    333.9785               335.5005               372.9456
 Red. masses --      2.8734                 4.7959                 2.1127
 Frc consts  --      0.1888                 0.3181                 0.1731
 IR Inten    --      0.4233                 5.3336                 6.4568

                      7                      8                      9
                      A                      A                      A
 Frequencies --    392.3061               481.9169               553.9498
 Red. masses --      3.8171                 3.2837                 4.4743
 Frc consts  --      0.3461                 0.4493                 0.8089
 IR Inten    --      2.7403                 0.9746                 5.1368

                     10                     11                     12
                      A                      A                      A
 Frequencies --    622.6658               654.0824               753.0882
 Red. masses --      1.2106                 1.2354                 3.9912
 Frc consts  --      0.2765                 0.3114                 1.3337
 IR Inten    --     42.5167                37.2419                21.5876

                     13                     14                     15
                      A                      A                      A
 Frequencies --    811.8560               876.5382               897.7675
 Red. masses --      2.4741                 1.7006                 1.9886
 Frc consts  --      0.9608                 0.7698                 0.9443
 IR Inten    --    121.2630                82.7663                10.4662

                     16                     17                     18
                      A                      A                      A
 Frequencies --    955.7276               980.4003               997.0839
 Red. masses --      2.3484                 2.3265                 3.0159
 Frc consts  --      1.2638                 1.3175                 1.7666
 IR Inten    --     12.0586                10.2110                32.9206

                     19                     20                     21
                      A                      A                      A
 Frequencies --   1124.2501              1168.2596              1202.5642
 Red. masses --      1.2564                 1.3376                 1.2307
 Frc consts  --      0.9356                 1.0756                 1.0486
 IR Inten    --      2.5479                 1.4529                11.0576

                     22                     23                     24
                      A                      A                      A
 Frequencies --   1228.2412              1285.4783              1317.3767
 Red. masses --      2.6091                 1.4253                 1.6689
 Frc consts  --      2.3191                 1.3877                 1.7065
 IR Inten    --     19.1339                15.1595                20.5560

                     25                     26                     27
                      A                      A                      A
 Frequencies --   1427.4618              1456.6289              1524.3546
 Red. masses --      2.2006                 1.0878                 1.4775
 Frc consts  --      2.6419                 1.3599                 2.0228
 IR Inten    --     29.2532                 4.3519                15.9121

                     28                     29                     30
                      A                      A                      A
 Frequencies --   1655.8250              2236.5522              3019.5318
 Red. masses --      1.1118                 5.9241                 1.0634
 Frc consts  --      1.7960                17.4594                 5.7128
 IR Inten    --     18.9958                 1.1790                15.2170

                     31                     32                     33
                      A                      A                      A
 Frequencies --   3071.7812              3080.8500              3171.8530
 Red. masses --      1.0965                 1.0514                 1.1188
 Frc consts  --      6.0959                 5.8795                 6.6319
 IR Inten    --      7.5709                26.8801                19.6212

                     34                     35                     36
                      A                      A                      A
 Frequencies --   3491.1138              3505.1398              3572.4747
 Red. masses --      1.0489                 1.1621                 1.0922
 Frc consts  --      7.5322                 8.4124                 8.2124
 IR Inten    --      1.0991                68.2624                 7.3820

 - Thermochemistry -
 -------------------
 Temperature   298.150 Kelvin.  Pressure   1.00000 Atm.
 Atom     1 has atomic number  6 and mass  12.00000

 Molecular mass:    97.05276 amu.
 Principal axes and moments of inertia in atomic units:
                           1         2         3
     Eigenvalues --   325.54428 993.036351089.95679
           X            0.99973   0.00926   0.02117
           Y           -0.01033   0.99865   0.05083
           Z           -0.02067  -0.05104   0.99848
 This molecule is an asymmetric top.
 Rotational symmetry number  1.
 Rotational temperatures (Kelvin)      0.26606     0.08722     0.07947
 Rotational constants (GHZ):           5.54377     1.81740     1.65579
 Zero-point vibrational energy     292845.6 (Joules/Mol)
                                   69.99178 (Kcal/Mol)
 Warning -- explicit consideration of   9 degrees of freedom as
           vibrations may cause significant error
 Vibrational temperatures:    107.17   201.84   267.10   480.52   482.71
          (Kelvin)            536.59   564.44   693.37   797.01   895.88
                              941.08  1083.53  1168.08  1261.14  1291.69
                             1375.08  1410.58  1434.58  1617.55  1680.86
                             1730.22  1767.17  1849.52  1895.41  2053.80
                             2095.76  2193.21  2382.36  3217.90  4344.43
                             4419.61  4432.66  4563.59  5022.93  5043.11
                             5139.99

 Zero-point correction=                           0.111539 (Hartree/Particle)
 Thermal correction to Energy=                    0.119034
 Thermal correction to Enthalpy=                  0.119978
 Thermal correction to Gibbs Free Energy=         0.080080
 Sum of electronic and zero-point Energies=           -324.513483
 Sum of electronic and thermal Energies=              -324.505988
 Sum of electronic and thermal Enthalpies=            -324.505044
 Sum of electronic and thermal Free Energies=         -324.544942

                     E (Thermal)             CV                S
                      KCal/Mol        Cal/Mol-Kelvin    Cal/Mol-Kelvin
 Total                   74.695             27.330             83.972
 Electronic               0.000              0.000              0.000
 Translational            0.889              2.981             39.629
 Rotational               0.889              2.981             27.357
 Vibrational             72.917             21.369             16.986
 Vibration     1          0.599              1.966              4.031
 Vibration     2          0.615              1.913              2.800
 Vibration     3          0.632              1.859              2.271
 Vibration     4          0.716              1.608              1.241
 Vibration     5          0.717              1.605              1.233
 Vibration     6          0.744              1.528              1.068
 Vibration     7          0.760              1.487              0.991
 Vibration     8          0.838              1.290              0.705
 Vibration     9          0.909              1.131              0.536

 Optimization completed.
    -- Stationary point found.
 Normal termination of Gaussian 16 at Sun Jul  3 11:35:05 2022.
