 Gaussian 16, Revision A.03,
 Gaussian 16:  ES64L-G16RevA.03 25-Dec-2016

 -----------------------------
 # opt freq b3lyp/6-31g(2df,p)
 -----------------------------

 -------------------
 Title Card Required
 -------------------
 Symbolic Z-matrix:
 Charge =  0 Multiplicity = 1

 SCF Done:  E(RB3LYP) =  -423.096444845     A.U. after   14 cycles
 SCF Done:  E(RB3LYP) =  -423.123121459     A.U. after   12 cycles
 SCF Done:  E(RB3LYP) =  -423.121522002     A.U. after   13 cycles
 SCF Done:  E(RB3LYP) =  -423.122967474     A.U. after   12 cycles
 SCF Done:  E(RB3LYP) =  -423.124772745     A.U. after    9 cycles
 SCF Done:  E(RB3LYP) =  -423.125501099     A.U. after   11 cycles
 SCF Done:  E(RB3LYP) =  -423.125480766     A.U. after   12 cycles
 SCF Done:  E(RB3LYP) =  -423.126312849     A.U. after   11 cycles
 SCF Done:  E(RB3LYP) =  -423.127283695     A.U. after   12 cycles
 SCF Done:  E(RB3LYP) =  -423.128202899     A.U. after   11 cycles
 SCF Done:  E(RB3LYP) =  -423.129325725     A.U. after   12 cycles
 SCF Done:  E(RB3LYP) =  -423.130114003     A.U. after   12 cycles
 SCF Done:  E(RB3LYP) =  -423.130871660     A.U. after   12 cycles
 SCF Done:  E(RB3LYP) =  -423.131054820     A.U. after   10 cycles
 SCF Done:  E(RB3LYP) =  -423.131107935     A.U. after   11 cycles
 SCF Done:  E(RB3LYP) =  -423.131118728     A.U. after    9 cycles
 SCF Done:  E(RB3LYP) =  -423.131124049     A.U. after    9 cycles
 SCF Done:  E(RB3LYP) =  -423.131125356     A.U. after    8 cycles
 SCF Done:  E(RB3LYP) =  -423.131125751     A.U. after    7 cycles
 Optimization completed.
    -- Stationary point found.
 Normal termination of Gaussian 16 at Thu Aug  4 07:28:16 2022.

 ----------------------------------------------------------------------
 #N Geom=AllCheck Guess=TCheck SCRF=Check GenChk RB3LYP/6-31G(2df,p) Fr
 eq
 ----------------------------------------------------------------------

 Structure from the checkpoint file:  "CtCCCCC1pOpCO1.chk"
 -------------------
 Title Card Required
 -------------------
 Charge =  0 Multiplicity = 1

                         Standard orientation:
 ---------------------------------------------------------------------
 Center     Atomic      Atomic             Coordinates (Angstroms)
 Number     Number       Type             X           Y           Z
 ---------------------------------------------------------------------
      1          6           0       -4.244592   -0.646571   -0.008010
      2          6           0       -3.256015    0.036902   -0.022229
      3          6           0       -2.038754    0.838775   -0.034646
      4          6           0       -0.759653   -0.012666    0.093855
      5          6           0        0.503827    0.850639    0.109952
      6          6           0        1.812609    0.084859    0.058941
      7          8           0        2.938246    0.891730    0.111963
      8          6           0        2.008945   -1.280418    0.541730
      9          8           0        1.872696   -0.994465   -0.865584
     10          1           0       -5.124080   -1.241131    0.001665
     11          1           0       -2.077069    1.571540    0.782548
     12          1           0       -1.996375    1.423837   -0.963004
     13          1           0       -0.705540   -0.720847   -0.737722
     14          1           0       -0.825666   -0.604035    1.013231
     15          1           0        0.523467    1.494383    0.997451
     16          1           0        0.490642    1.526449   -0.759536
     17          1           0        2.867207    1.556334   -0.583360
     18          1           0        1.191641   -1.845435    0.984241
     19          1           0        3.010027   -1.568329    0.855898
 ---------------------------------------------------------------------

 SCF Done:  E(RB3LYP) =  -423.131125751     A.U. after    1 cycles

 The electronic state is 1-A.
 Alpha  occ. eigenvalues --  -19.15554 -19.14928 -10.28815 -10.23268 -10.21237
 Alpha  occ. eigenvalues --  -10.19876 -10.19436 -10.18054 -10.16952  -1.09313
 Alpha  occ. eigenvalues --   -1.01951  -0.81762  -0.75947  -0.70591  -0.67343
 Alpha  occ. eigenvalues --   -0.63216  -0.58945  -0.53588  -0.51967  -0.48918
 Alpha  occ. eigenvalues --   -0.48500  -0.45657  -0.44868  -0.41519  -0.41301
 Alpha  occ. eigenvalues --   -0.39545  -0.38178  -0.35869  -0.34749  -0.30731
 Alpha  occ. eigenvalues --   -0.29283  -0.27207  -0.26328  -0.26311
 Alpha virt. eigenvalues --    0.05237   0.05817   0.06865   0.09736   0.10309
 Alpha virt. eigenvalues --    0.11308   0.12972   0.13119   0.13969   0.14778
 Alpha virt. eigenvalues --    0.16079   0.18384   0.19506   0.20828   0.21955

 Mulliken charges:
               1
     1  C   -0.428178
     2  C    0.289771
     3  C   -0.363635
     4  C   -0.185569
     5  C   -0.278700
     6  C    0.453189
     7  O   -0.438951
     8  C   -0.228190
     9  O   -0.269952
    10  H    0.194406
    11  H    0.129417
    12  H    0.130792
    13  H    0.135350
    14  H    0.113624
    15  H    0.117430
    16  H    0.097312
    17  H    0.285208
    18  H    0.120425
    19  H    0.126250
 Sum of Mulliken charges =  -0.00000

 Dipole moment (field-independent basis, Debye):
    X=             -0.4488    Y=              1.2789    Z=              0.6061  Tot=              1.4847
 Quadrupole moment (field-independent basis, Debye-Ang):
   XX=            -57.5274   YY=            -49.3960   ZZ=            -54.0494
   XY=              3.3504   XZ=              0.0552   YZ=             -4.5107

  Exact polarizability:  99.209   9.944  75.119   0.957  -4.655  57.535
 Approx polarizability: 125.154  21.940 114.909   0.898  -5.247  93.597

                      1                      2                      3
                      A                      A                      A
 Frequencies --     50.0976                79.4076                92.5480
 Red. masses --      3.4531                 3.1069                 3.1700
 Frc consts  --      0.0051                 0.0115                 0.0160
 IR Inten    --      0.1877                 0.3977                 0.3424

                      4                      5                      6
                      A                      A                      A
 Frequencies --    131.7103               208.2339               273.1294
 Red. masses --      2.3616                 4.1764                 1.6589
 Frc consts  --      0.0241                 0.1067                 0.0729
 IR Inten    --      0.4845                 1.5773                41.7675

                      7                      8                      9
                      A                      A                      A
 Frequencies --    294.4596               348.2028               352.1380
 Red. masses --      1.9456                 3.0291                 2.6372
 Frc consts  --      0.0994                 0.2164                 0.1927
 IR Inten    --     51.4130                 2.2102                21.5679

                     10                     11                     12
                      A                      A                      A
 Frequencies --    402.5675               474.7829               524.4983
 Red. masses --      5.3389                 2.9393                 5.8212
 Frc consts  --      0.5098                 0.3904                 0.9435
 IR Inten    --      2.8796                13.5004                23.6205

                     13                     14                     15
                      A                      A                      A
 Frequencies --    556.0101               617.5076               637.8737
 Red. masses --      4.0767                 1.1981                 1.2165
 Frc consts  --      0.7426                 0.2692                 0.2916
 IR Inten    --      1.3264                44.2629                43.1119

                     16                     17                     18
                      A                      A                      A
 Frequencies --    723.7361               748.2242               814.9843
 Red. masses --      5.1664                 1.1613                 2.0200
 Frc consts  --      1.5944                 0.3831                 0.7905
 IR Inten    --      9.5516                 0.8348                24.6613

                     19                     20                     21
                      A                      A                      A
 Frequencies --    878.5008               924.0823               960.9021
 Red. masses --      2.0664                 1.6703                 2.9404
 Frc consts  --      0.9396                 0.8404                 1.5996
 IR Inten    --     20.0179                 6.7653                24.2988

                     22                     23                     24
                      A                      A                      A
 Frequencies --    988.2316              1038.0948              1063.5033
 Red. masses --      4.2742                 3.6985                 3.0977
 Frc consts  --      2.4594                 2.3483                 2.0643
 IR Inten    --     30.7343                 2.4127                 0.2582

                     25                     26                     27
                      A                      A                      A
 Frequencies --   1096.3627              1121.3586              1165.4750
 Red. masses --      1.6491                 1.3066                 1.3228
 Frc consts  --      1.1679                 0.9680                 1.0586
 IR Inten    --      4.6933                 2.7414                 7.7653

                     28                     29                     30
                      A                      A                      A
 Frequencies --   1183.7410              1216.3171              1254.0115
 Red. masses --      1.2408                 1.9734                 1.4849
 Frc consts  --      1.0244                 1.7201                 1.3758
 IR Inten    --      1.1525                69.6106               118.3410

                     31                     32                     33
                      A                      A                      A
 Frequencies --   1277.8214              1302.7232              1325.7936
 Red. masses --      1.5918                 1.2278                 1.0947
 Frc consts  --      1.5314                 1.2277                 1.1337
 IR Inten    --     18.0739                11.8246                 3.1958

                     34                     35                     36
                      A                      A                      A
 Frequencies --   1363.0807              1402.1010              1453.3215
 Red. masses --      1.5472                 1.7993                 1.4868
 Frc consts  --      1.6937                 2.0840                 1.8503
 IR Inten    --     24.9577                 8.8089                21.8522

                     37                     38                     39
                      A                      A                      A
 Frequencies --   1473.6706              1481.2977              1507.0864
 Red. masses --      1.0868                 1.0841                 1.1087
 Frc consts  --      1.3907                 1.4015                 1.4837
 IR Inten    --      0.8412                 0.3405                 6.1518

                     40                     41                     42
                      A                      A                      A
 Frequencies --   1539.3508              2239.9797              2992.1767
 Red. masses --      1.7770                 5.9317                 1.0677
 Frc consts  --      2.4809                17.5355                 5.6323
 IR Inten    --     20.2614                 3.1123                26.2745

                     43                     44                     45
                      A                      A                      A
 Frequencies --   3012.6398              3040.6644              3052.9498
 Red. masses --      1.0582                 1.0986                 1.0655
 Frc consts  --      5.6584                 5.9842                 5.8514
 IR Inten    --     18.8634                 8.7575                21.9260

                     46                     47                     48
                      A                      A                      A
 Frequencies --   3056.9801              3096.0452              3106.8278
 Red. masses --      1.0892                 1.0524                 1.1007
 Frc consts  --      5.9971                 5.9433                 6.2594
 IR Inten    --     12.2579                14.4000                25.5348

                     49                     50                     51
                      A                      A                      A
 Frequencies --   3186.9176              3507.7055              3791.4599
 Red. masses --      1.1199                 1.1622                 1.0655
 Frc consts  --      6.7014                 8.4249                 9.0246
 IR Inten    --     18.2544                67.2635                21.9334

 - Thermochemistry -
 -------------------
 Temperature   298.150 Kelvin.  Pressure   1.00000 Atm.
 Atom     1 has atomic number  6 and mass  12.00000

 Molecular mass:   126.06808 amu.
 Principal axes and moments of inertia in atomic units:
                           1         2         3
     Eigenvalues --   404.013872725.391142968.38072
           X            1.00000   0.00065   0.00295
           Y           -0.00048   0.99835  -0.05745
           Z           -0.00299   0.05745   0.99834
 This molecule is an asymmetric top.
 Rotational symmetry number  1.
 Rotational temperatures (Kelvin)      0.21438     0.03178     0.02918
 Rotational constants (GHZ):           4.46703     0.66220     0.60799
 Zero-point vibrational energy     409310.0 (Joules/Mol)
                                   97.82743 (Kcal/Mol)
 Warning -- explicit consideration of  14 degrees of freedom as
           vibrations may cause significant error
 Vibrational temperatures:     72.08   114.25   133.16   189.50   299.60
          (Kelvin)            392.97   423.66   500.99   506.65   579.20
                              683.11   754.64   799.97   888.46   917.76
                             1041.29  1076.53  1172.58  1263.97  1329.55
                             1382.52  1421.84  1493.59  1530.14  1577.42
                             1613.38  1676.86  1703.14  1750.01  1804.24
                             1838.50  1874.33  1907.52  1961.17  2017.31
                             2091.01  2120.28  2131.26  2168.36  2214.78
                             3222.83  4305.07  4334.52  4374.84  4392.51
                             4398.31  4454.52  4470.03  4585.26  5046.81
                             5455.07

 Zero-point correction=                           0.155898 (Hartree/Particle)
 Thermal correction to Energy=                    0.165862
 Thermal correction to Enthalpy=                  0.166807
 Thermal correction to Gibbs Free Energy=         0.120200
 Sum of electronic and zero-point Energies=           -422.975228
 Sum of electronic and thermal Energies=              -422.965263
 Sum of electronic and thermal Enthalpies=            -422.964319
 Sum of electronic and thermal Free Energies=         -423.010925

                     E (Thermal)             CV                S
                      KCal/Mol        Cal/Mol-Kelvin    Cal/Mol-Kelvin
 Total                  104.080             36.232             98.091
 Electronic               0.000              0.000              0.000
 Translational            0.889              2.981             40.409
 Rotational               0.889              2.981             29.570
 Vibrational            102.303             30.271             28.112
 Vibration     1          0.595              1.978              4.814
 Vibration     2          0.600              1.963              3.905
 Vibration     3          0.602              1.955              3.605
 Vibration     4          0.612              1.922              2.921
 Vibration     5          0.642              1.828              2.059
 Vibration     6          0.676              1.723              1.576
 Vibration     7          0.689              1.684              1.448
 Vibration     8          0.726              1.579              1.174
 Vibration     9          0.729              1.571              1.157
 Vibration    10          0.768              1.465              0.953
 Vibration    11          0.831              1.306              0.724
 Vibration    12          0.879              1.196              0.600
 Vibration    13          0.911              1.127              0.532
 Vibration    14          0.977              0.995              0.421

                           ! Non-Optimized Parameters !
 Normal termination of Gaussian 16 at Thu Aug  4 07:56:49 2022.
