 Gaussian 16, Revision A.03,
 Gaussian 16:  ES64L-G16RevA.03 25-Dec-2016

 -----------------------------
 # opt freq b3lyp/6-31g(2df,p)
 -----------------------------

 -------------------
 Title Card Required
 -------------------
 Symbolic Z-matrix:
 Charge =  0 Multiplicity = 1

 SCF Done:  E(RB3LYP) =  -363.890974037     A.U. after   13 cycles
 SCF Done:  E(RB3LYP) =  -363.914511368     A.U. after   12 cycles
 SCF Done:  E(RB3LYP) =  -363.915469843     A.U. after   13 cycles
 SCF Done:  E(RB3LYP) =  -363.907074669     A.U. after   14 cycles
 SCF Done:  E(RB3LYP) =  -363.917322022     A.U. after   12 cycles
 SCF Done:  E(RB3LYP) =  -363.916779448     A.U. after   12 cycles
 SCF Done:  E(RB3LYP) =  -363.917647272     A.U. after   11 cycles
 SCF Done:  E(RB3LYP) =  -363.917422857     A.U. after   11 cycles
 SCF Done:  E(RB3LYP) =  -363.917709560     A.U. after   11 cycles
 SCF Done:  E(RB3LYP) =  -363.918178339     A.U. after    8 cycles
 SCF Done:  E(RB3LYP) =  -363.918504209     A.U. after    4 cycles
 SCF Done:  E(RB3LYP) =  -363.918451359     A.U. after   12 cycles
 SCF Done:  E(RB3LYP) =  -363.918524831     A.U. after   11 cycles
 SCF Done:  E(RB3LYP) =  -363.918507713     A.U. after   10 cycles
 SCF Done:  E(RB3LYP) =  -363.918529368     A.U. after   10 cycles
 SCF Done:  E(RB3LYP) =  -363.918529231     A.U. after    9 cycles
 SCF Done:  E(RB3LYP) =  -363.918529759     A.U. after    8 cycles
 SCF Done:  E(RB3LYP) =  -363.918530071     A.U. after    8 cycles
 SCF Done:  E(RB3LYP) =  -363.918530072     A.U. after    7 cycles
 Optimization completed.
    -- Stationary point found.
 Normal termination of Gaussian 16 at Thu Aug  4 01:34:52 2022.

 ----------------------------------------------------------------------
 #N Geom=AllCheck Guess=TCheck SCRF=Check GenChk RB3LYP/6-31G(2df,p) Fr
 eq
 ----------------------------------------------------------------------

 Structure from the checkpoint file:  "CtCCpOpCN1CC1.chk"
 -------------------
 Title Card Required
 -------------------
 Charge =  0 Multiplicity = 1

                         Standard orientation:
 ---------------------------------------------------------------------
 Center     Atomic      Atomic             Coordinates (Angstroms)
 Number     Number       Type             X           Y           Z
 ---------------------------------------------------------------------
      1          6           0        3.316491   -0.520295    0.041985
      2          6           0        2.168594   -0.199268    0.200365
      3          6           0        0.762200    0.196001    0.314873
      4          8           0        0.587599    1.584904    0.035980
      5          6           0       -0.104987   -0.722210   -0.589820
      6          7           0       -1.555323   -0.683716   -0.492879
      7          6           0       -2.229013   -0.522509    0.785235
      8          6           0       -2.293932    0.550906   -0.250774
      9          1           0        4.334850   -0.799998   -0.072194
     10          1           0        0.448662    0.082817    1.358783
     11          1           0        0.964379    1.754017   -0.835233
     12          1           0        0.205161   -1.755675   -0.395851
     13          1           0        0.164170   -0.504699   -1.631741
     14          1           0       -1.643546   -0.311494    1.678135
     15          1           0       -3.074166   -1.185025    0.954309
     16          1           0       -1.736345    1.460083   -0.054286
     17          1           0       -3.192814    0.671006   -0.850789
 ---------------------------------------------------------------------

 SCF Done:  E(RB3LYP) =  -363.918530072     A.U. after    1 cycles

 The electronic state is 1-A.
 Alpha  occ. eigenvalues --  -19.15111 -14.32711 -10.26143 -10.21565 -10.20770
 Alpha  occ. eigenvalues --  -10.20226 -10.18839 -10.18413  -1.03377  -0.95801
 Alpha  occ. eigenvalues --   -0.79135  -0.74228  -0.68219  -0.61284  -0.58763
 Alpha  occ. eigenvalues --   -0.55902  -0.51437  -0.49266  -0.47931  -0.46630
 Alpha  occ. eigenvalues --   -0.43189  -0.40886  -0.37728  -0.35497  -0.32565
 Alpha  occ. eigenvalues --   -0.31690  -0.30064  -0.27914  -0.27633  -0.22321
 Alpha virt. eigenvalues --    0.02735   0.04594   0.08751   0.09950   0.12196
 Alpha virt. eigenvalues --    0.12459   0.13247   0.13999   0.15436   0.16133
 Alpha virt. eigenvalues --    0.17079   0.19059   0.23696   0.24273   0.25088

 Mulliken charges:
               1
     1  C   -0.433282
     2  C    0.300996
     3  C   -0.096913
     4  O   -0.404836
     5  C   -0.145055
     6  N   -0.079025
     7  C   -0.231901
     8  C   -0.222590
     9  H    0.201921
    10  H    0.124167
    11  H    0.286415
    12  H    0.120083
    13  H    0.105772
    14  H    0.110286
    15  H    0.114139
    16  H    0.140617
    17  H    0.109205
 Sum of Mulliken charges =   0.00000

 Dipole moment (field-independent basis, Debye):
    X=              0.8201    Y=             -0.0358    Z=             -0.2527  Tot=              0.8589
 Quadrupole moment (field-independent basis, Debye-Ang):
   XX=            -43.0882   YY=            -49.6262   ZZ=            -46.6024
   XY=             -2.1465   XZ=             -3.3572   YZ=             -3.7513

  Exact polarizability:  99.075  -7.095  59.381  -3.336  -3.145  56.065
 Approx polarizability: 133.973 -13.989  91.126  -7.344  -3.267  87.096

                      1                      2                      3
                      A                      A                      A
 Frequencies --     34.2188               129.2784               140.1940
 Red. masses --      3.6860                 2.5424                 3.9552
 Frc consts  --      0.0025                 0.0250                 0.0458
 IR Inten    --      1.5522                 1.0145                 1.5774

                      4                      5                      6
                      A                      A                      A
 Frequencies --    219.3881               238.9525               306.9540
 Red. masses --      3.0765                 2.7256                 1.6203
 Frc consts  --      0.0872                 0.0917                 0.0899
 IR Inten    --      1.2714                21.1423                61.3987

                      7                      8                      9
                      A                      A                      A
 Frequencies --    324.7462               377.6227               488.3233
 Red. masses --      2.9594                 2.0012                 4.5657
 Frc consts  --      0.1839                 0.1681                 0.6415
 IR Inten    --     25.6101                 1.3070                 1.9683

                     10                     11                     12
                      A                      A                      A
 Frequencies --    513.2153               573.6228               633.6717
 Red. masses --      3.0652                 5.6317                 1.2275
 Frc consts  --      0.4757                 1.0918                 0.2904
 IR Inten    --     23.4954                14.9785                46.7350

                     13                     14                     15
                      A                      A                      A
 Frequencies --    675.5100               762.3413               825.6816
 Red. masses --      1.2498                 3.1154                 1.2102
 Frc consts  --      0.3360                 1.0667                 0.4861
 IR Inten    --     35.3056                14.6156                 2.7353

                     16                     17                     18
                      A                      A                      A
 Frequencies --    854.6507               895.9942               954.6298
 Red. masses --      2.7103                 5.3853                 2.6808
 Frc consts  --      1.1664                 2.5473                 1.4394
 IR Inten    --     12.5544                12.8153                18.1432

                     19                     20                     21
                      A                      A                      A
 Frequencies --   1017.3045              1043.6816              1060.6286
 Red. masses --      1.7957                 1.7220                 2.6622
 Frc consts  --      1.0949                 1.1052                 1.7645
 IR Inten    --     27.9389                 9.8634                33.2045

                     22                     23                     24
                      A                      A                      A
 Frequencies --   1087.6458              1120.4056              1130.9343
 Red. masses --      2.0688                 1.5302                 1.3383
 Frc consts  --      1.4419                 1.1317                 1.0085
 IR Inten    --     55.3026                 5.6637                 6.9680

                     25                     26                     27
                      A                      A                      A
 Frequencies --   1173.7193              1184.7348              1245.7441
 Red. masses --      1.3709                 1.7067                 1.2966
 Frc consts  --      1.1127                 1.4114                 1.1855
 IR Inten    --      0.7967                 5.0190                 8.0212

                     28                     29                     30
                      A                      A                      A
 Frequencies --   1281.4959              1340.3707              1346.7737
 Red. masses --      1.2784                 1.8473                 1.6788
 Frc consts  --      1.2369                 1.9554                 1.7941
 IR Inten    --      8.9896                28.6898                23.5440

                     31                     32                     33
                      A                      A                      A
 Frequencies --   1382.6187              1418.7128              1466.0702
 Red. masses --      1.2270                 1.2275                 1.0864
 Frc consts  --      1.3819                 1.4557                 1.3757
 IR Inten    --     21.2224                42.0791                 1.8353

                     34                     35                     36
                      A                      A                      A
 Frequencies --   1497.2517              1523.9380              2229.3042
 Red. masses --      1.0769                 1.2642                 5.9080
 Frc consts  --      1.4224                 1.7298                17.2994
 IR Inten    --      0.7408                 2.6492                 0.6180

                     37                     38                     39
                      A                      A                      A
 Frequencies --   3020.3459              3049.9289              3069.7991
 Red. masses --      1.0612                 1.0826                 1.1013
 Frc consts  --      5.7040                 5.9330                 6.1150
 IR Inten    --     31.3611                13.0137                22.5479

                     40                     41                     42
                      A                      A                      A
 Frequencies --   3096.2877              3110.0896              3173.9149
 Red. masses --      1.0506                 1.0562                 1.1175
 Frc consts  --      5.9341                 6.0195                 6.6326
 IR Inten    --     30.9331                38.6021                24.5674

                     43                     44                     45
                      A                      A                      A
 Frequencies --   3213.4578              3502.5624              3799.9548
 Red. masses --      1.1149                 1.1622                 1.0661
 Frc consts  --      6.7834                 8.4004                 9.0699
 IR Inten    --      7.1259                70.2830                24.5450

 - Thermochemistry -
 -------------------
 Temperature   298.150 Kelvin.  Pressure   1.00000 Atm.
 Atom     1 has atomic number  6 and mass  12.00000

 Molecular mass:   111.06841 amu.
 Principal axes and moments of inertia in atomic units:
                           1         2         3
     Eigenvalues --   366.387021537.576321709.56162
           X            0.99992  -0.00860  -0.00957
           Y            0.00818   0.99907  -0.04237
           Z            0.00993   0.04229   0.99906
 This molecule is an asymmetric top.
 Rotational symmetry number  1.
 Rotational temperatures (Kelvin)      0.23640     0.05633     0.05066
 Rotational constants (GHZ):           4.92578     1.17376     1.05567
 Zero-point vibrational energy     368071.0 (Joules/Mol)
                                   87.97109 (Kcal/Mol)
 Warning -- explicit consideration of  11 degrees of freedom as
           vibrations may cause significant error
 Vibrational temperatures:     49.23   186.00   201.71   315.65   343.80
          (Kelvin)            441.64   467.24   543.31   702.59   738.40
                              825.32   911.71   971.91  1096.84  1187.97
                             1229.65  1289.14  1373.50  1463.67  1501.63
                             1526.01  1564.88  1612.01  1627.16  1688.72
                             1704.57  1792.35  1843.79  1928.49  1937.71
                             1989.28  2041.21  2109.35  2154.21  2192.61
                             3207.47  4345.60  4388.17  4416.76  4454.87
                             4474.73  4566.56  4623.45  5039.41  5467.29

 Zero-point correction=                           0.140191 (Hartree/Particle)
 Thermal correction to Energy=                    0.148888
 Thermal correction to Enthalpy=                  0.149832
 Thermal correction to Gibbs Free Energy=         0.106461
 Sum of electronic and zero-point Energies=           -363.778339
 Sum of electronic and thermal Energies=              -363.769642
 Sum of electronic and thermal Enthalpies=            -363.768698
 Sum of electronic and thermal Free Energies=         -363.812069

                     E (Thermal)             CV                S
                      KCal/Mol        Cal/Mol-Kelvin    Cal/Mol-Kelvin
 Total                   93.429             31.714             91.282
 Electronic               0.000              0.000              0.000
 Translational            0.889              2.981             40.031
 Rotational               0.889              2.981             28.356
 Vibrational             91.651             25.752             22.895
 Vibration     1          0.594              1.983              5.568
 Vibration     2          0.612              1.924              2.957
 Vibration     3          0.615              1.913              2.801
 Vibration     4          0.647              1.812              1.964
 Vibration     5          0.657              1.781              1.811
 Vibration     6          0.697              1.660              1.379
 Vibration     7          0.709              1.626              1.286
 Vibration     8          0.748              1.518              1.049
 Vibration     9          0.844              1.276              0.688
 Vibration    10          0.868              1.221              0.626
 Vibration    11          0.930              1.088              0.497

 Optimization completed.
    -- Stationary point found.
 Normal termination of Gaussian 16 at Thu Aug  4 01:57:05 2022.
