 Gaussian 16, Revision A.03,
 Gaussian 16:  ES64L-G16RevA.03 25-Dec-2016

 -----------------------------
 # opt freq b3lyp/6-31g(2df,p)
 -----------------------------

 -------------------
 Title Card Required
 -------------------
 Symbolic Z-matrix:
 Charge =  0 Multiplicity = 1

 SCF Done:  E(RB3LYP) =  -398.181035438     A.U. after   14 cycles
 SCF Done:  E(RB3LYP) =  -398.185675738     A.U. after   12 cycles
 SCF Done:  E(RB3LYP) =  -398.182893519     A.U. after   13 cycles
 SCF Done:  E(RB3LYP) =  -398.186297734     A.U. after   13 cycles
 SCF Done:  E(RB3LYP) =  -398.187227091     A.U. after   12 cycles
 SCF Done:  E(RB3LYP) =  -398.187631257     A.U. after   12 cycles
 SCF Done:  E(RB3LYP) =  -398.188155913     A.U. after   12 cycles
 SCF Done:  E(RB3LYP) =  -398.188311514     A.U. after   14 cycles
 SCF Done:  E(RB3LYP) =  -398.188933332     A.U. after   12 cycles
 SCF Done:  E(RB3LYP) =  -398.189114632     A.U. after   12 cycles
 SCF Done:  E(RB3LYP) =  -398.189278652     A.U. after   12 cycles
 SCF Done:  E(RB3LYP) =  -398.189334225     A.U. after   11 cycles
 SCF Done:  E(RB3LYP) =  -398.189342514     A.U. after   10 cycles
 SCF Done:  E(RB3LYP) =  -398.189346049     A.U. after    9 cycles
 SCF Done:  E(RB3LYP) =  -398.189347147     A.U. after    8 cycles
 SCF Done:  E(RB3LYP) =  -398.189347436     A.U. after    7 cycles
 SCF Done:  E(RB3LYP) =  -398.189347517     A.U. after    7 cycles
 Optimization completed.
    -- Stationary point found.
 Normal termination of Gaussian 16 at Sun Jul  3 22:57:57 2022.

 ----------------------------------------------------------------------
 #N Geom=AllCheck Guess=TCheck SCRF=Check GenChk RB3LYP/6-31G(2df,p) Fr
 eq
 ----------------------------------------------------------------------

 Structure from the checkpoint file:  "CtCC1NC1NCCdN.chk"
 -------------------
 Title Card Required
 -------------------
 Charge =  0 Multiplicity = 1

                         Standard orientation:
 ---------------------------------------------------------------------
 Center     Atomic      Atomic             Coordinates (Angstroms)
 Number     Number       Type             X           Y           Z
 ---------------------------------------------------------------------
      1          6           0        3.724763    1.294754    0.119334
      2          6           0        2.777587    0.620213   -0.189633
      3          6           0        1.658743   -0.196425   -0.558766
      4          7           0        1.519944   -1.567676    0.004598
      5          6           0        0.599880   -0.535232    0.450083
      6          7           0       -0.745776   -0.702871    0.001371
      7          6           0       -1.606176    0.448640    0.239035
      8          6           0       -2.942744    0.263881   -0.441954
      9          7           0       -4.094762    0.489094    0.037532
     10          1           0        4.558160    1.895704    0.387642
     11          1           0        1.335290   -0.137518   -1.593853
     12          1           0        2.242523   -1.711051    0.706355
     13          1           0        0.753515   -0.125472    1.453894
     14          1           0       -1.142052   -1.549766    0.396609
     15          1           0       -1.111979    1.324135   -0.206803
     16          1           0       -1.765579    0.685459    1.307324
     17          1           0       -2.875877   -0.105669   -1.470511
     18          1           0       -4.022158    0.819356    1.006240
 ---------------------------------------------------------------------

 SCF Done:  E(RB3LYP) =  -398.189347517     A.U. after    1 cycles

 The electronic state is 1-A.
 Alpha  occ. eigenvalues --  -14.34375 -14.33491 -14.32055 -10.25618 -10.24203
 Alpha  occ. eigenvalues --  -10.23144 -10.22720 -10.19249 -10.18493  -0.98922
 Alpha  occ. eigenvalues --   -0.91731  -0.89104  -0.76359  -0.71554  -0.67665
 Alpha  occ. eigenvalues --   -0.61846  -0.59443  -0.56585  -0.51704  -0.51394
 Alpha  occ. eigenvalues --   -0.48630  -0.46574  -0.44175  -0.41385  -0.39980
 Alpha  occ. eigenvalues --   -0.37639  -0.36564  -0.31729  -0.29900  -0.28082
 Alpha  occ. eigenvalues --   -0.26488  -0.25922  -0.23707
 Alpha virt. eigenvalues --   -0.00713   0.02674   0.03752   0.08462   0.09183
 Alpha virt. eigenvalues --    0.10832   0.11761   0.12476   0.13432   0.14238
 Alpha virt. eigenvalues --    0.15385   0.17168   0.18228   0.21670   0.22170

 Mulliken charges:
               1
     1  C   -0.442541
     2  C    0.327612
     3  C   -0.188395
     4  N   -0.339335
     5  C   -0.007439
     6  N   -0.277930
     7  C   -0.196849
     8  C    0.059111
     9  N   -0.383480
    10  H    0.202810
    11  H    0.126055
    12  H    0.243079
    13  H    0.090722
    14  H    0.231947
    15  H    0.132199
    16  H    0.086353
    17  H    0.119927
    18  H    0.216153
 Sum of Mulliken charges =   0.00000

 Dipole moment (field-independent basis, Debye):
    X=              2.0038    Y=              0.8177    Z=              2.2605  Tot=              3.1296
 Quadrupole moment (field-independent basis, Debye-Ang):
   XX=            -62.8504   YY=            -53.6352   ZZ=            -50.2521
   XY=              3.0938   XZ=             -1.0520   YZ=             -1.5858

  Exact polarizability: 116.703  11.300  68.586  -1.188   3.309  63.613
 Approx polarizability: 154.725  22.649 110.536  -1.388   7.479  99.209

                      1                      2                      3
                      A                      A                      A
 Frequencies --     47.4902                60.6314                99.1850
 Red. masses --      4.8300                 2.6387                 3.1391
 Frc consts  --      0.0064                 0.0057                 0.0182
 IR Inten    --      0.8633                 2.7957                 1.3143

                      4                      5                      6
                      A                      A                      A
 Frequencies --    106.8883               173.9395               215.5465
 Red. masses --      2.8464                 3.7175                 3.5050
 Frc consts  --      0.0192                 0.0663                 0.0959
 IR Inten    --      0.9536                 0.8658                 0.3798

                      7                      8                      9
                      A                      A                      A
 Frequencies --    320.8885               399.0275               421.5960
 Red. masses --      3.4240                 3.6445                 3.8044
 Frc consts  --      0.2077                 0.3419                 0.3984
 IR Inten    --      1.2418                10.7707                 6.6871

                     10                     11                     12
                      A                      A                      A
 Frequencies --    502.3626               530.9850               571.4453
 Red. masses --      4.1821                 4.3289                 3.6930
 Frc consts  --      0.6218                 0.7191                 0.7105
 IR Inten    --     13.0370                 2.6644                 9.8939

                     13                     14                     15
                      A                      A                      A
 Frequencies --    603.9143               668.3051               704.9866
 Red. masses --      1.2024                 1.2437                 1.3556
 Frc consts  --      0.2584                 0.3273                 0.3970
 IR Inten    --     46.4122                35.6598                82.8868

                     16                     17                     18
                      A                      A                      A
 Frequencies --    754.2017               818.1878               893.9764
 Red. masses --      1.6640                 5.2418                 3.8467
 Frc consts  --      0.5577                 2.0675                 1.8113
 IR Inten    --     23.7888                43.8614                13.2954

                     19                     20                     21
                      A                      A                      A
 Frequencies --    942.4641               995.9409              1026.3966
 Red. masses --      2.2278                 2.6145                 1.4214
 Frc consts  --      1.1659                 1.5279                 0.8823
 IR Inten    --     19.5360                15.0941                16.6470

                     22                     23                     24
                      A                      A                      A
 Frequencies --   1044.4922              1093.6875              1123.1676
 Red. masses --      1.9168                 1.6482                 1.9115
 Frc consts  --      1.2320                 1.1616                 1.4208
 IR Inten    --      7.4890                 0.8748                 3.0003

                     25                     26                     27
                      A                      A                      A
 Frequencies --   1143.7857              1152.4904              1185.6648
 Red. masses --      2.1082                 1.1099                 1.5085
 Frc consts  --      1.6250                 0.8686                 1.2494
 IR Inten    --     51.1791                55.6789                40.4648

                     28                     29                     30
                      A                      A                      A
 Frequencies --   1218.7624              1236.5151              1281.9366
 Red. masses --      1.3045                 1.4821                 1.4698
 Frc consts  --      1.1416                 1.3351                 1.4231
 IR Inten    --     12.1005                36.2992                48.2239

                     31                     32                     33
                      A                      A                      A
 Frequencies --   1286.6020              1340.8942              1355.8690
 Red. masses --      1.3693                 1.2958                 1.3677
 Frc consts  --      1.3355                 1.3727                 1.4814
 IR Inten    --     22.7307                36.9859                64.2266

                     34                     35                     36
                      A                      A                      A
 Frequencies --   1410.3636              1455.2261              1469.0936
 Red. masses --      1.2507                 2.0507                 1.2653
 Frc consts  --      1.4658                 2.5587                 1.6090
 IR Inten    --     11.9929                58.6366                 2.7614

                     37                     38                     39
                      A                      A                      A
 Frequencies --   1493.2076              1733.1634              2235.1454
 Red. masses --      1.1112                 8.4891                 6.0044
 Frc consts  --      1.4598                15.0242                17.6740
 IR Inten    --      2.0221                59.8583                 6.3902

                     40                     41                     42
                      A                      A                      A
 Frequencies --   2931.4636              3021.2615              3041.8563
 Red. masses --      1.0703                 1.0873                 1.0861
 Frc consts  --      5.4191                 5.8476                 5.9211
 IR Inten    --     61.6030                14.0843                37.8690

                     43                     44                     45
                      A                      A                      A
 Frequencies --   3086.8718              3154.8338              3396.7985
 Red. masses --      1.0882                 1.0872                 1.0735
 Frc consts  --      6.1093                 6.3753                 7.2976
 IR Inten    --     25.2628                 5.3131                 5.1467

                     46                     47                     48
                      A                      A                      A
 Frequencies --   3503.4768              3508.7831              3520.0440
 Red. masses --      1.1588                 1.0772                 1.0740
 Frc consts  --      8.3805                 7.8138                 7.8409
 IR Inten    --     81.6146                 4.6079                 1.9547

 - Thermochemistry -
 -------------------
 Temperature   298.150 Kelvin.  Pressure   1.00000 Atm.
 Atom     1 has atomic number  6 and mass  12.00000

 Molecular mass:   123.07965 amu.
 Principal axes and moments of inertia in atomic units:
                           1         2         3
     Eigenvalues --   388.455862803.836423047.57821
           X            1.00000   0.00090  -0.00008
           Y           -0.00090   0.99997   0.00826
           Z            0.00008  -0.00826   0.99997
 This molecule is an asymmetric top.
 Rotational symmetry number  1.
 Rotational temperatures (Kelvin)      0.22297     0.03089     0.02842
 Rotational constants (GHZ):           4.64594     0.64367     0.59219
 Zero-point vibrational energy     384502.6 (Joules/Mol)
                                   91.89833 (Kcal/Mol)
 Warning -- explicit consideration of  13 degrees of freedom as
           vibrations may cause significant error
 Vibrational temperatures:     68.33    87.24   142.71   153.79   250.26
          (Kelvin)            310.12   461.69   574.11   606.58   722.79
                              763.97   822.18   868.90   961.54  1014.32
                             1085.13  1177.19  1286.23  1356.00  1432.94
                             1476.76  1502.79  1573.57  1615.99  1645.65
                             1658.18  1705.91  1753.53  1779.07  1844.42
                             1851.13  1929.25  1950.79  2029.20  2093.75
                             2113.70  2148.39  2493.64  3215.88  4217.72
                             4346.92  4376.55  4441.32  4539.10  4887.24
                             5040.72  5048.36  5064.56

 Zero-point correction=                           0.146449 (Hartree/Particle)
 Thermal correction to Energy=                    0.156096
 Thermal correction to Enthalpy=                  0.157040
 Thermal correction to Gibbs Free Energy=         0.110518
 Sum of electronic and zero-point Energies=           -398.042898
 Sum of electronic and thermal Energies=              -398.033252
 Sum of electronic and thermal Enthalpies=            -398.032308
 Sum of electronic and thermal Free Energies=         -398.078829

                     E (Thermal)             CV                S
                      KCal/Mol        Cal/Mol-Kelvin    Cal/Mol-Kelvin
 Total                   97.951             34.217             97.913
 Electronic               0.000              0.000              0.000
 Translational            0.889              2.981             40.337
 Rotational               0.889              2.981             29.586
 Vibrational             96.174             28.255             27.990
 Vibration     1          0.595              1.979              4.919
 Vibration     2          0.597              1.973              4.437
 Vibration     3          0.604              1.950              3.470
 Vibration     4          0.606              1.944              3.325
 Vibration     5          0.627              1.875              2.392
 Vibration     6          0.645              1.817              1.996
 Vibration     7          0.706              1.634              1.306
 Vibration     8          0.765              1.472              0.966
 Vibration     9          0.784              1.423              0.887
 Vibration    10          0.858              1.245              0.652
 Vibration    11          0.886              1.181              0.585
 Vibration    12          0.928              1.093              0.501
 Vibration    13          0.962              1.023              0.443

 Optimization completed.
    -- Stationary point found.
 Normal termination of Gaussian 16 at Sun Jul  3 23:20:34 2022.
