 Gaussian 16, Revision A.03,
 Gaussian 16:  ES64L-G16RevA.03 25-Dec-2016

 -----------------------------
 # opt freq b3lyp/6-31g(2df,p)
 -----------------------------

 -------------------
 Title Card Required
 -------------------
 Symbolic Z-matrix:
 Charge =  0 Multiplicity = 1

 SCF Done:  E(RB3LYP) =  -307.849666651     A.U. after   22 cycles
 SCF Done:  E(RB3LYP) =  -307.917972749     A.U. after   20 cycles
 SCF Done:  E(RB3LYP) =  -307.998600664     A.U. after   18 cycles
 SCF Done:  E(RB3LYP) =  -308.057240616     A.U. after   17 cycles
 SCF Done:  E(RB3LYP) =  -308.118364124     A.U. after   17 cycles
 SCF Done:  E(RB3LYP) =  -308.164318110     A.U. after   16 cycles
 SCF Done:  E(RB3LYP) =  -308.195569308     A.U. after   16 cycles
 SCF Done:  E(RB3LYP) =  -308.196832101     A.U. after   15 cycles
 SCF Done:  E(RB3LYP) =  -308.201783092     A.U. after   15 cycles
 SCF Done:  E(RB3LYP) =  -308.191242293     A.U. after   15 cycles
 SCF Done:  E(RB3LYP) =  -308.255060063     A.U. after   14 cycles
 SCF Done:  E(RB3LYP) =  -308.255304014     A.U. after   14 cycles
 SCF Done:  E(RB3LYP) =  -308.255485399     A.U. after   13 cycles
 SCF Done:  E(RB3LYP) =  -308.255545925     A.U. after   13 cycles
 SCF Done:  E(RB3LYP) =  -308.255562898     A.U. after   12 cycles
 SCF Done:  E(RB3LYP) =  -308.255570396     A.U. after   11 cycles
 SCF Done:  E(RB3LYP) =  -308.255573693     A.U. after   10 cycles
 SCF Done:  E(RB3LYP) =  -308.255574874     A.U. after   10 cycles
 SCF Done:  E(RB3LYP) =  -308.255575414     A.U. after   10 cycles
 Optimization completed.
    -- Stationary point found.
 Normal termination of Gaussian 16 at Thu Aug  4 14:14:16 2022.

 ----------------------------------------------------------------------
 #N Geom=AllCheck Guess=TCheck SCRF=Check GenChk RB3LYP/6-31G(2df,p) Fr
 eq
 ----------------------------------------------------------------------

 Structure from the checkpoint file:  "CtCC1dC2CC1C2dC.chk"
 -------------------
 Title Card Required
 -------------------
 Charge =  0 Multiplicity = 1

                         Standard orientation:
 ---------------------------------------------------------------------
 Center     Atomic      Atomic             Coordinates (Angstroms)
 Number     Number       Type             X           Y           Z
 ---------------------------------------------------------------------
      1          6           0       -2.951220   -0.378266   -0.000144
      2          6           0       -1.746663   -0.422607    0.000001
      3          6           0       -0.331799   -0.392840    0.000111
      4          6           0        1.910964    0.579789   -0.000543
      5          6           0        1.945560   -0.927096    0.000148
      6          6           0        0.521428   -1.436836    0.000025
      7          6           0        0.474167    0.860927   -0.000158
      8          6           0        0.015000    2.129111    0.000194
      9          1           0       -4.013014   -0.365875   -0.000073
     10          1           0        2.539120   -1.268637    0.863612
     11          1           0        2.540236   -1.270005   -0.861953
     12          1           0        0.228925   -2.480411   -0.000148
     13          1           0       -1.045899    2.364551    0.000866
     14          1           0        0.726024    2.947279   -0.000108
 ---------------------------------------------------------------------

 SCF Done:  E(RB3LYP) =  -308.255575414     A.U. after    1 cycles

 The electronic state is 1-A.
 Alpha  occ. eigenvalues --  -10.22081 -10.21284 -10.20318 -10.20170 -10.19482
 Alpha  occ. eigenvalues --  -10.19395 -10.19189 -10.18510  -0.87150  -0.76954
 Alpha  occ. eigenvalues --   -0.76880  -0.70745  -0.64339  -0.59184  -0.53334
 Alpha  occ. eigenvalues --   -0.51209  -0.50066  -0.44340  -0.43945  -0.41241
 Alpha  occ. eigenvalues --   -0.37937  -0.35530  -0.34335  -0.29621  -0.28252
 Alpha  occ. eigenvalues --   -0.23599  -0.20307
 Alpha virt. eigenvalues --   -0.09979  -0.03329   0.04490   0.05576   0.11801
 Alpha virt. eigenvalues --    0.12324   0.12649   0.14100   0.15640   0.15927
 Alpha virt. eigenvalues --    0.16987   0.22756   0.22901   0.26254   0.27421

 Mulliken charges:
               1
     1  C   -0.449092
     2  C    0.228157
     3  C    0.117493
     4  C   -0.185177
     5  C   -0.301189
     6  C   -0.201254
     7  C    0.257934
     8  C   -0.363122
     9  H    0.195279
    10  H    0.149037
    11  H    0.148965
    12  H    0.109687
    13  H    0.140748
    14  H    0.152535
 Sum of Mulliken charges =   0.00000

 Dipole moment (field-independent basis, Debye):
    X=             -1.5878    Y=             -0.6687    Z=              0.0021  Tot=              1.7229
 Quadrupole moment (field-independent basis, Debye-Ang):
   XX=            -45.6954   YY=            -41.5120   ZZ=            -46.9548
   XY=             -6.0468   XZ=              0.0043   YZ=              0.0023

  Exact polarizability: 118.297 -12.606  93.394   0.000   0.002  40.672
 Approx polarizability: 201.331 -45.152 162.787   0.002   0.006  67.171

                      1                      2                      3
                      A                      A                      A
 Frequencies --    101.2584               139.0602               155.7489
 Red. masses --      2.7888                 3.8502                 2.5550
 Frc consts  --      0.0168                 0.0439                 0.0365
 IR Inten    --     19.8996                 0.0884                 2.9087

                      4                      5                      6
                      A                      A                      A
 Frequencies --    272.2750               342.3884               455.4058
 Red. masses --      2.2682                 2.9068                 6.6176
 Frc consts  --      0.0991                 0.2008                 0.8086
 IR Inten    --      0.5842                 3.4169                 1.5056

                      7                      8                      9
                      A                      A                      A
 Frequencies --    518.2120               555.5061               567.3038
 Red. masses --      5.9574                 5.6422                 1.4300
 Frc consts  --      0.9426                 1.0258                 0.2712
 IR Inten    --      4.9492                 0.6948                 9.1125

                     10                     11                     12
                      A                      A                      A
 Frequencies --    598.2876               633.9792               719.8582
 Red. masses --      1.2133                 1.2297                 5.6092
 Frc consts  --      0.2559                 0.2912                 1.7126
 IR Inten    --     34.1047                39.0690                 1.6294

                     13                     14                     15
                      A                      A                      A
 Frequencies --    733.7775               782.1965               801.2815
 Red. masses --      3.8393                 1.3974                 5.5811
 Frc consts  --      1.2179                 0.5037                 2.1113
 IR Inten    --      0.0806                 0.6125                 5.2930

                     16                     17                     18
                      A                      A                      A
 Frequencies --    878.9417               913.5887               944.8883
 Red. masses --      1.4518                 2.3156                 2.0921
 Frc consts  --      0.6608                 1.1387                 1.1005
 IR Inten    --     21.8758                 5.0959                 8.5756

                     19                     20                     21
                      A                      A                      A
 Frequencies --   1007.0535              1034.8556              1116.4872
 Red. masses --      2.3361                 1.3862                 1.1667
 Frc consts  --      1.3959                 0.8746                 0.8569
 IR Inten    --     20.6443                20.6503                 0.0775

                     22                     23                     24
                      A                      A                      A
 Frequencies --   1129.2975              1245.6812              1261.0591
 Red. masses --      5.0390                 2.1055                 1.7045
 Frc consts  --      3.7863                 1.9250                 1.5971
 IR Inten    --     11.8588                 3.8006                14.4594

                     25                     26                     27
                      A                      A                      A
 Frequencies --   1302.7317              1375.0011              1420.5127
 Red. masses --      3.3726                 1.1162                 1.2315
 Frc consts  --      3.3723                 1.2434                 1.4641
 IR Inten    --     78.4380                11.6369                21.4981

                     28                     29                     30
                      A                      A                      A
 Frequencies --   1637.8084              1652.1490              2220.7600
 Red. masses --      7.2641                 5.3894                 6.1558
 Frc consts  --     11.4804                 8.6674                17.8869
 IR Inten    --      0.6815                28.8753                 2.5531

                     31                     32                     33
                      A                      A                      A
 Frequencies --   2997.9587              3010.5971              3146.5818
 Red. masses --      1.0632                 1.0928                 1.0598
 Frc consts  --      5.6301                 5.8356                 6.1823
 IR Inten    --      7.1759                 1.1202                 3.3487

                     34                     35                     36
                      A                      A                      A
 Frequencies --   3203.8214              3250.9357              3501.6967
 Red. masses --      1.0947                 1.1152                 1.1577
 Frc consts  --      6.6206                 6.9440                 8.3638
 IR Inten    --      7.5469                 0.3597                88.3424

 - Thermochemistry -
 -------------------
 Temperature   298.150 Kelvin.  Pressure   1.00000 Atm.
 Atom     1 has atomic number  6 and mass  12.00000

 Molecular mass:   102.04695 amu.
 Principal axes and moments of inertia in atomic units:
                           1         2         3
     Eigenvalues --   476.19931 965.304171430.78711
           X            0.99909  -0.04264   0.00001
           Y            0.04264   0.99909   0.00001
           Z           -0.00001  -0.00001   1.00000
 This molecule is an asymmetric top.
 Rotational symmetry number  1.
 Warning -- assumption of classical behavior for rotation
           may cause significant error
 Rotational temperatures (Kelvin)      0.18189     0.08973     0.06054
 Rotational constants (GHZ):           3.78989     1.86961     1.26136
 Zero-point vibrational energy     272921.7 (Joules/Mol)
                                   65.22985 (Kcal/Mol)
 Warning -- explicit consideration of  10 degrees of freedom as
           vibrations may cause significant error
 Vibrational temperatures:    145.69   200.08   224.09   391.74   492.62
          (Kelvin)            655.23   745.59   799.25   816.22   860.80
                              912.15  1035.72  1055.74  1125.41  1152.87
                             1264.60  1314.45  1359.48  1448.93  1488.93
                             1606.38  1624.81  1792.26  1814.38  1874.34
                             1978.32  2043.80  2356.44  2377.07  3195.18
                             4313.39  4331.58  4527.23  4609.58  4677.37
                             5038.16

 Zero-point correction=                           0.103950 (Hartree/Particle)
 Thermal correction to Energy=                    0.111469
 Thermal correction to Enthalpy=                  0.112414
 Thermal correction to Gibbs Free Energy=         0.072275
 Sum of electronic and zero-point Energies=           -308.151625
 Sum of electronic and thermal Energies=              -308.144106
 Sum of electronic and thermal Enthalpies=            -308.143162
 Sum of electronic and thermal Free Energies=         -308.183301

                     E (Thermal)             CV                S
                      KCal/Mol        Cal/Mol-Kelvin    Cal/Mol-Kelvin
 Total                   69.948             28.192             84.479
 Electronic               0.000              0.000              0.000
 Translational            0.889              2.981             39.778
 Rotational               0.889              2.981             27.977
 Vibrational             68.171             22.231             16.724
 Vibration     1          0.604              1.948              3.430
 Vibration     2          0.615              1.914              2.817
 Vibration     3          0.620              1.896              2.601
 Vibration     4          0.675              1.724              1.582
 Vibration     5          0.722              1.591              1.201
 Vibration     6          0.814              1.349              0.780
 Vibration     7          0.873              1.210              0.614
 Vibration     8          0.911              1.128              0.533
 Vibration     9          0.923              1.102              0.509
 Vibration    10          0.956              1.035              0.453

 Optimization completed.
    -- Stationary point found.
 Normal termination of Gaussian 16 at Thu Aug  4 14:33:11 2022.
