 Gaussian 16, Revision A.03,
 Gaussian 16:  ES64L-G16RevA.03 25-Dec-2016

 -----------------------------
 # opt freq b3lyp/6-31g(2df,p)
 -----------------------------

 -------------------
 Title Card Required
 -------------------
 Symbolic Z-matrix:
 Charge =  0 Multiplicity = 1

 SCF Done:  E(RB3LYP) =  -404.455783931     A.U. after   13 cycles
 SCF Done:  E(RB3LYP) =  -404.476160557     A.U. after   12 cycles
 SCF Done:  E(RB3LYP) =  -404.476745213     A.U. after   12 cycles
 SCF Done:  E(RB3LYP) =  -404.468942541     A.U. after   14 cycles
 SCF Done:  E(RB3LYP) =  -404.476587273     A.U. after   12 cycles
 SCF Done:  E(RB3LYP) =  -404.477246803     A.U. after    9 cycles
 SCF Done:  E(RB3LYP) =  -404.477488238     A.U. after   11 cycles
 SCF Done:  E(RB3LYP) =  -404.477428837     A.U. after   10 cycles
 SCF Done:  E(RB3LYP) =  -404.477637723     A.U. after   10 cycles
 SCF Done:  E(RB3LYP) =  -404.477649488     A.U. after    9 cycles
 SCF Done:  E(RB3LYP) =  -404.477653321     A.U. after    8 cycles
 SCF Done:  E(RB3LYP) =  -404.477653518     A.U. after    7 cycles
 Optimization completed.
    -- Stationary point found.
 Normal termination of Gaussian 16 at Thu Aug  4 12:58:44 2022.

 ----------------------------------------------------------------------
 #N Geom=AllCheck Guess=TCheck SCRF=Check GenChk RB3LYP/6-31G(2df,p) Fr
 eq
 ----------------------------------------------------------------------

 Structure from the checkpoint file:  "CtCCNCCCOC.chk"
 -------------------
 Title Card Required
 -------------------
 Charge =  0 Multiplicity = 1

                         Standard orientation:
 ---------------------------------------------------------------------
 Center     Atomic      Atomic             Coordinates (Angstroms)
 Number     Number       Type             X           Y           Z
 ---------------------------------------------------------------------
      1          6           0        4.942131   -0.687308    0.036895
      2          6           0        3.923905   -0.050553    0.004943
      3          6           0        2.681974    0.715180   -0.002438
      4          7           0        1.511502   -0.153428   -0.127476
      5          6           0        0.254199    0.572504    0.009751
      6          6           0       -0.935887   -0.381436   -0.073160
      7          6           0       -2.273375    0.339717    0.023673
      8          8           0       -3.304871   -0.620506   -0.032483
      9          6           0       -4.588239   -0.050860    0.042972
     10          1           0        5.844485   -1.246637    0.053664
     11          1           0        2.684777    1.408292   -0.855182
     12          1           0        2.651330    1.352239    0.903362
     13          1           0        1.566953   -0.881710    0.577995
     14          1           0        0.200156    1.304620   -0.808131
     15          1           0        0.200619    1.157742    0.949397
     16          1           0       -0.880931   -1.118818    0.737875
     17          1           0       -0.890992   -0.939684   -1.013635
     18          1           0       -2.379789    1.066234   -0.801570
     19          1           0       -2.336592    0.915139    0.964560
     20          1           0       -5.313336   -0.866910   -0.007254
     21          1           0       -4.778276    0.644458   -0.790634
     22          1           0       -4.738203    0.499620    0.985923
 ---------------------------------------------------------------------

 SCF Done:  E(RB3LYP) =  -404.477653518     A.U. after    1 cycles

 The electronic state is 1-A.
 Alpha  occ. eigenvalues --  -19.13790 -14.31842 -10.23100 -10.22730 -10.22294
 Alpha  occ. eigenvalues --  -10.20976 -10.18111 -10.18061 -10.17244  -1.03174
 Alpha  occ. eigenvalues --   -0.91139  -0.78735  -0.75247  -0.70261  -0.66893
 Alpha  occ. eigenvalues --   -0.62589  -0.59527  -0.53106  -0.49924  -0.48704
 Alpha  occ. eigenvalues --   -0.47558  -0.46466  -0.45940  -0.43503  -0.43015
 Alpha  occ. eigenvalues --   -0.40160  -0.38563  -0.35806  -0.35140  -0.33819
 Alpha  occ. eigenvalues --   -0.31546  -0.27048  -0.26604  -0.25438  -0.22771
 Alpha virt. eigenvalues --    0.04425   0.05906   0.08746   0.09402   0.11288
 Alpha virt. eigenvalues --    0.11855   0.12988   0.13964   0.13986   0.15855
 Alpha virt. eigenvalues --    0.16647   0.16936   0.18193   0.19054   0.20162

 Mulliken charges:
               1
     1  C   -0.419874
     2  C    0.273731
     3  C   -0.276921
     4  N   -0.297809
     5  C   -0.118133
     6  C   -0.216750
     7  C   -0.047406
     8  O   -0.229526
     9  C   -0.227777
    10  H    0.196530
    11  H    0.133980
    12  H    0.107621
    13  H    0.220899
    14  H    0.103254
    15  H    0.076156
    16  H    0.103650
    17  H    0.121506
    18  H    0.084070
    19  H    0.082399
    20  H    0.126702
    21  H    0.102256
    22  H    0.101443
 Sum of Mulliken charges =  -0.00000

 Dipole moment (field-independent basis, Debye):
    X=             -0.7013    Y=              1.3292    Z=              0.8852  Tot=              1.7441
 Quadrupole moment (field-independent basis, Debye-Ang):
   XX=            -50.9660   YY=            -55.2265   ZZ=            -56.2891
   XY=             -4.2763   XZ=              1.1573   YZ=             -1.5870

  Exact polarizability: 123.085  -9.621  74.358   0.353  -0.634  65.037
 Approx polarizability: 141.743 -19.228 115.731   0.929  -1.309  98.483

                      1                      2                      3
                      A                      A                      A
 Frequencies --     39.7755                65.9536                71.8289
 Red. masses --      3.1050                 3.3786                 2.3851
 Frc consts  --      0.0029                 0.0087                 0.0073
 IR Inten    --      0.6429                 0.8042                 0.5087

                      4                      5                      6
                      A                      A                      A
 Frequencies --     98.7061               135.6154               146.2145
 Red. masses --      2.8503                 2.0801                 2.4760
 Frc consts  --      0.0164                 0.0225                 0.0312
 IR Inten    --      1.0905                 1.3605                 2.0008

                      7                      8                      9
                      A                      A                      A
 Frequencies --    156.3579               235.3319               266.3020
 Red. masses --      3.2378                 1.2378                 4.6479
 Frc consts  --      0.0466                 0.0404                 0.1942
 IR Inten    --      0.8240                 2.8098                 2.1400

                     10                     11                     12
                      A                      A                      A
 Frequencies --    294.4315               343.3471               414.9921
 Red. masses --      4.5977                 3.3931                 3.5009
 Frc consts  --      0.2348                 0.2357                 0.3552
 IR Inten    --      0.8213                 2.4675                 2.5898

                     13                     14                     15
                      A                      A                      A
 Frequencies --    504.2403               562.6985               610.5289
 Red. masses --      3.4324                 4.7454                 1.1950
 Frc consts  --      0.5142                 0.8853                 0.2624
 IR Inten    --      2.8402                 1.9494                44.0885

                     16                     17                     18
                      A                      A                      A
 Frequencies --    660.6274               775.0308               778.2840
 Red. masses --      1.2318                 1.0792                 1.2686
 Frc consts  --      0.3167                 0.3819                 0.4527
 IR Inten    --     35.3012                 3.9045                76.4154

                     19                     20                     21
                      A                      A                      A
 Frequencies --    890.0461               955.6907               985.9122
 Red. masses --      1.1875                 4.1997                 3.5416
 Frc consts  --      0.5543                 2.2600                 2.0283
 IR Inten    --      1.6330                 2.6087                15.5862

                     22                     23                     24
                      A                      A                      A
 Frequencies --   1000.7539              1038.5654              1063.0902
 Red. masses --      1.8386                 2.8552                 2.3869
 Frc consts  --      1.0849                 1.8145                 1.5894
 IR Inten    --     15.7155                 3.9682                 0.6103

                     25                     26                     27
                      A                      A                      A
 Frequencies --   1113.3175              1144.9769              1165.7021
 Red. masses --      2.8746                 4.3256                 1.7209
 Frc consts  --      2.0992                 3.3411                 1.3778
 IR Inten    --     14.4206               102.4922                15.4144

                     28                     29                     30
                      A                      A                      A
 Frequencies --   1168.7821              1184.8587              1220.8840
 Red. masses --      3.5668                 1.2640                 1.3247
 Frc consts  --      2.8708                 1.0456                 1.1633
 IR Inten    --    112.4097                 5.8496                 7.8528

                     31                     32                     33
                      A                      A                      A
 Frequencies --   1227.5449              1264.7584              1293.9782
 Red. masses --      1.5702                 1.2987                 1.3210
 Frc consts  --      1.3941                 1.2240                 1.3032
 IR Inten    --     38.8974                 3.4004                 7.0173

                     34                     35                     36
                      A                      A                      A
 Frequencies --   1306.7454              1312.5301              1361.1303
 Red. masses --      1.1239                 1.1027                 1.3447
 Frc consts  --      1.1307                 1.1193                 1.4678
 IR Inten    --      1.6880                 2.9872                28.3660

                     37                     38                     39
                      A                      A                      A
 Frequencies --   1420.3811              1432.8848              1481.9303
 Red. masses --      1.3861                 1.4990                 1.1706
 Frc consts  --      1.6476                 1.8133                 1.5146
 IR Inten    --     18.4576                32.5589                 0.3436

                     40                     41                     42
                      A                      A                      A
 Frequencies --   1485.3419              1490.6398              1494.3111
 Red. masses --      1.0468                 1.1778                 1.1031
 Frc consts  --      1.3607                 1.5419                 1.4513
 IR Inten    --      4.9465                35.7047                 0.9628

                     43                     44                     45
                      A                      A                      A
 Frequencies --   1498.2085              1505.4428              1521.3576
 Red. masses --      1.0881                 1.0663                 1.0864
 Frc consts  --      1.4390                 1.4239                 1.4815
 IR Inten    --      1.1848                11.6167                 1.1678

                     46                     47                     48
                      A                      A                      A
 Frequencies --   1534.8095              2243.9134              2901.2470
 Red. masses --      1.0944                 5.9140                 1.0729
 Frc consts  --      1.5189                17.5447                 5.3207
 IR Inten    --      0.5111                 0.2108                37.7980

                     49                     50                     51
                      A                      A                      A
 Frequencies --   2906.2449              2937.9405              2962.3423
 Red. masses --      1.0734                 1.0530                 1.1043
 Frc consts  --      5.3417                 5.3548                 5.7097
 IR Inten    --     86.5820                43.6261                60.9572

                     52                     53                     54
                      A                      A                      A
 Frequencies --   2966.3272              3007.0724              3016.6202
 Red. masses --      1.0385                 1.1029                 1.0835
 Frc consts  --      5.3841                 5.8760                 5.8091
 IR Inten    --     78.1135                60.5981                 2.1996

                     55                     56                     57
                      A                      A                      A
 Frequencies --   3018.8631              3035.2576              3090.1389
 Red. masses --      1.0818                 1.0648                 1.0999
 Frc consts  --      5.8089                 5.7797                 6.1884
 IR Inten    --     30.2725                43.5407                30.8359

                     58                     59                     60
                      A                      A                      A
 Frequencies --   3112.0354              3507.0709              3514.5316
 Red. masses --      1.0954                 1.1630                 1.0739
 Frc consts  --      6.2504                 8.4278                 7.8153
 IR Inten    --     31.8257                65.6529                 0.3926

 - Thermochemistry -
 -------------------
 Temperature   298.150 Kelvin.  Pressure   1.00000 Atm.
 Atom     1 has atomic number  6 and mass  12.00000

 Molecular mass:   127.09971 amu.
 Principal axes and moments of inertia in atomic units:
                           1         2         3
     Eigenvalues --   174.048094439.173994551.87057
           X            0.99999  -0.00390   0.00032
           Y            0.00390   0.99993  -0.01095
           Z           -0.00028   0.01095   0.99994
 This molecule is an asymmetric top.
 Rotational symmetry number  1.
 Rotational temperatures (Kelvin)      0.49764     0.01951     0.01903
 Rotational constants (GHZ):          10.36921     0.40655     0.39648
 Zero-point vibrational energy     502099.3 (Joules/Mol)
                                  120.00461 (Kcal/Mol)
 Warning -- explicit consideration of  15 degrees of freedom as
           vibrations may cause significant error
 Vibrational temperatures:     57.23    94.89   103.35   142.02   195.12
          (Kelvin)            210.37   224.96   338.59   383.15   423.62
                              494.00   597.08   725.49   809.60   878.41
                              950.50  1115.10  1119.78  1280.58  1375.03
                             1418.51  1439.86  1494.26  1529.55  1601.82
                             1647.37  1677.19  1681.62  1704.75  1756.58
                             1766.16  1819.71  1861.75  1880.12  1888.44
                             1958.36  2043.61  2061.60  2132.17  2137.08
                             2144.70  2149.98  2155.59  2166.00  2188.89
                             2208.25  3228.49  4174.25  4181.44  4227.04
                             4262.15  4267.88  4326.51  4340.24  4343.47
                             4367.06  4446.02  4477.52  5045.89  5056.63

 Zero-point correction=                           0.191240 (Hartree/Particle)
 Thermal correction to Energy=                    0.202602
 Thermal correction to Enthalpy=                  0.203547
 Thermal correction to Gibbs Free Energy=         0.153190
 Sum of electronic and zero-point Energies=           -404.286414
 Sum of electronic and thermal Energies=              -404.275051
 Sum of electronic and thermal Enthalpies=            -404.274107
 Sum of electronic and thermal Free Energies=         -404.324464

                     E (Thermal)             CV                S
                      KCal/Mol        Cal/Mol-Kelvin    Cal/Mol-Kelvin
 Total                  127.135             38.876            105.985
 Electronic               0.000              0.000              0.000
 Translational            0.889              2.981             40.433
 Rotational               0.889              2.981             29.643
 Vibrational            125.357             32.915             35.909
 Vibration     1          0.594              1.981              5.270
 Vibration     2          0.597              1.971              4.271
 Vibration     3          0.598              1.967              4.103
 Vibration     4          0.604              1.950              3.480
 Vibration     5          0.613              1.918              2.865
 Vibration     6          0.617              1.907              2.721
 Vibration     7          0.620              1.896              2.593
 Vibration     8          0.655              1.787              1.838
 Vibration     9          0.672              1.735              1.620
 Vibration    10          0.689              1.684              1.448
 Vibration    11          0.722              1.589              1.197
 Vibration    12          0.778              1.438              0.909
 Vibration    13          0.860              1.241              0.648
 Vibration    14          0.918              1.112              0.518
 Vibration    15          0.970              1.010              0.432

 Optimization completed.
    -- Stationary point found.
 Normal termination of Gaussian 16 at Thu Aug  4 13:28:47 2022.
