 Gaussian 16, Revision A.03,
 Gaussian 16:  ES64L-G16RevA.03 25-Dec-2016

 -----------------------------
 # opt freq b3lyp/6-31g(2df,p)
 -----------------------------

 -------------------
 Title Card Required
 -------------------
 Symbolic Z-matrix:
 Charge =  0 Multiplicity = 1

 SCF Done:  E(RB3LYP) =  -403.254885566     A.U. after   13 cycles
 SCF Done:  E(RB3LYP) =  -403.276233508     A.U. after   12 cycles
 SCF Done:  E(RB3LYP) =  -403.276121910     A.U. after   12 cycles
 SCF Done:  E(RB3LYP) =  -403.274753856     A.U. after   12 cycles
 SCF Done:  E(RB3LYP) =  -403.273669032     A.U. after   12 cycles
 SCF Done:  E(RB3LYP) =  -403.276684574     A.U. after    8 cycles
 SCF Done:  E(RB3LYP) =  -403.277722615     A.U. after   11 cycles
 SCF Done:  E(RB3LYP) =  -403.277239294     A.U. after   11 cycles
 SCF Done:  E(RB3LYP) =  -403.277682607     A.U. after   12 cycles
 SCF Done:  E(RB3LYP) =  -403.277855060     A.U. after   10 cycles
 SCF Done:  E(RB3LYP) =  -403.281733942     A.U. after   10 cycles
 SCF Done:  E(RB3LYP) =  -403.281767670     A.U. after   10 cycles
 SCF Done:  E(RB3LYP) =  -403.281750006     A.U. after   10 cycles
 SCF Done:  E(RB3LYP) =  -403.281774291     A.U. after   11 cycles
 SCF Done:  E(RB3LYP) =  -403.281775539     A.U. after    9 cycles
 SCF Done:  E(RB3LYP) =  -403.281775100     A.U. after    9 cycles
 SCF Done:  E(RB3LYP) =  -403.281776311     A.U. after    9 cycles
 SCF Done:  E(RB3LYP) =  -403.281776245     A.U. after    7 cycles
 SCF Done:  E(RB3LYP) =  -403.281776349     A.U. after    7 cycles
 Optimization completed.
    -- Stationary point found.
 Normal termination of Gaussian 16 at Mon Jul  4 03:17:28 2022.

 ----------------------------------------------------------------------
 #N Geom=AllCheck Guess=TCheck SCRF=Check GenChk RB3LYP/6-31G(2df,p) Fr
 eq
 ----------------------------------------------------------------------

 Structure from the checkpoint file:  "CtCC1CCCpCOpN1.chk"
 -------------------
 Title Card Required
 -------------------
 Charge =  0 Multiplicity = 1

                         Standard orientation:
 ---------------------------------------------------------------------
 Center     Atomic      Atomic             Coordinates (Angstroms)
 Number     Number       Type             X           Y           Z
 ---------------------------------------------------------------------
      1          6           0        2.716595   -1.584054   -0.625099
      2          6           0        2.095481   -0.762863   -0.001931
      3          6           0        1.300994    0.205422    0.769627
      4          6           0        1.179419    1.581966    0.046700
      5          6           0       -0.233660    1.572422   -0.597112
      6          6           0       -0.778626    0.160142   -0.316848
      7          6           0       -2.290541    0.069703   -0.164442
      8          8           0       -2.722043   -1.256231    0.116165
      9          7           0       -0.104274   -0.187364    0.934156
     10          1           0        3.274777   -2.304817   -1.169747
     11          1           0        1.765034    0.321404    1.755584
     12          1           0        1.975049    1.706314   -0.689053
     13          1           0        1.272468    2.389419    0.775817
     14          1           0       -0.209507    1.793771   -1.666493
     15          1           0       -0.874944    2.319897   -0.119488
     16          1           0       -0.476705   -0.508704   -1.146843
     17          1           0       -2.783743    0.471878   -1.063276
     18          1           0       -2.600915    0.673282    0.694459
     19          1           0       -2.558179   -1.789033   -0.668893
     20          1           0       -0.215056   -1.168434    1.164152
 ---------------------------------------------------------------------

 SCF Done:  E(RB3LYP) =  -403.281776349     A.U. after    1 cycles

 The electronic state is 1-A.
 Alpha  occ. eigenvalues --  -19.13530 -14.31321 -10.23158 -10.22269 -10.20667
 Alpha  occ. eigenvalues --  -10.18750 -10.18423 -10.17775 -10.17153  -1.01575
 Alpha  occ. eigenvalues --   -0.92298  -0.77152  -0.76285  -0.72520  -0.66358
 Alpha  occ. eigenvalues --   -0.60332  -0.57553  -0.53404  -0.51557  -0.49563
 Alpha  occ. eigenvalues --   -0.48170  -0.46176  -0.42155  -0.39994  -0.38620
 Alpha  occ. eigenvalues --   -0.37410  -0.36308  -0.35717  -0.33117  -0.32137
 Alpha  occ. eigenvalues --   -0.27339  -0.27049  -0.26321  -0.22653
 Alpha virt. eigenvalues --    0.04685   0.05142   0.07535   0.09789   0.11448
 Alpha virt. eigenvalues --    0.12270   0.13018   0.14603   0.15440   0.16169
 Alpha virt. eigenvalues --    0.16638   0.17844   0.19055   0.19472   0.21030

 Mulliken charges:
               1
     1  C   -0.503978
     2  C    0.343996
     3  C   -0.154782
     4  C   -0.217023
     5  C   -0.211564
     6  C    0.039857
     7  C   -0.081054
     8  O   -0.423605
     9  N   -0.282070
    10  H    0.195828
    11  H    0.101357
    12  H    0.115138
    13  H    0.110116
    14  H    0.101687
    15  H    0.105690
    16  H    0.052696
    17  H    0.083498
    18  H    0.115501
    19  H    0.281644
    20  H    0.227068
 Sum of Mulliken charges =   0.00000

 Dipole moment (field-independent basis, Debye):
    X=              0.5880    Y=              0.2389    Z=             -1.6661  Tot=              1.7829
 Quadrupole moment (field-independent basis, Debye-Ang):
   XX=            -57.4584   YY=            -49.9953   ZZ=            -53.0560
   XY=             -1.9567   XZ=              3.2635   YZ=              3.0995

  Exact polarizability:  89.639  -8.961  83.346  -3.443   6.402  69.003
 Approx polarizability: 116.522 -15.775 123.024 -11.659  15.669 111.590

                      1                      2                      3
                      A                      A                      A
 Frequencies --     40.9777                81.7193               128.6369
 Red. masses --      2.2717                 4.4866                 3.4669
 Frc consts  --      0.0022                 0.0177                 0.0338
 IR Inten    --      0.9157                 0.3534                 2.2637

                      4                      5                      6
                      A                      A                      A
 Frequencies --    178.3146               215.6376               249.1868
 Red. masses --      2.5881                 3.2031                 2.9780
 Frc consts  --      0.0485                 0.0878                 0.1089
 IR Inten    --      1.9815                 1.9626                12.9832

                      7                      8                      9
                      A                      A                      A
 Frequencies --    319.9103               399.1424               448.7953
 Red. masses --      1.1684                 4.5276                 3.1291
 Frc consts  --      0.0705                 0.4250                 0.3713
 IR Inten    --     97.0921                 0.2582                31.0749

                     10                     11                     12
                      A                      A                      A
 Frequencies --    466.6796               547.2909               623.0956
 Red. masses --      3.1084                 3.2384                 1.2757
 Frc consts  --      0.3989                 0.5715                 0.2918
 IR Inten    --      2.7479                25.4154                40.7877

                     13                     14                     15
                      A                      A                      A
 Frequencies --    634.5837               645.7357               744.2047
 Red. masses --      2.6721                 1.2836                 2.9398
 Frc consts  --      0.6340                 0.3154                 0.9593
 IR Inten    --      9.7402                34.9888                38.6451

                     16                     17                     18
                      A                      A                      A
 Frequencies --    774.2689               803.6228               865.1772
 Red. masses --      1.8016                 2.9508                 1.8504
 Frc consts  --      0.6364                 1.1228                 0.8161
 IR Inten    --      4.2748                15.5241                14.2584

                     19                     20                     21
                      A                      A                      A
 Frequencies --    911.6918               943.3855               965.8390
 Red. masses --      2.1738                 2.0417                 2.3255
 Frc consts  --      1.0645                 1.0706                 1.2781
 IR Inten    --     25.7401                 8.9218                10.8366

                     22                     23                     24
                      A                      A                      A
 Frequencies --   1000.4308              1045.1046              1058.3831
 Red. masses --      2.4360                 2.7637                 2.8554
 Frc consts  --      1.4365                 1.7785                 1.8845
 IR Inten    --     26.4907                 9.6498                79.5111

                     25                     26                     27
                      A                      A                      A
 Frequencies --   1094.2410              1113.2500              1143.2508
 Red. masses --      2.0604                 2.0020                 2.9034
 Frc consts  --      1.4535                 1.4619                 2.2359
 IR Inten    --      6.8869                 5.2337                11.7805

                     28                     29                     30
                      A                      A                      A
 Frequencies --   1174.9787              1232.2423              1239.6269
 Red. masses --      1.3095                 1.3458                 1.3409
 Frc consts  --      1.0651                 1.2040                 1.2141
 IR Inten    --     14.7428                15.9735                 2.7568

                     31                     32                     33
                      A                      A                      A
 Frequencies --   1255.5201              1301.5853              1318.7091
 Red. masses --      1.1462                 1.3104                 1.2971
 Frc consts  --      1.0646                 1.3080                 1.3290
 IR Inten    --      2.5229                 6.1581                 0.9488

                     34                     35                     36
                      A                      A                      A
 Frequencies --   1341.9540              1352.0557              1386.2439
 Red. masses --      1.2889                 1.2485                 1.3883
 Frc consts  --      1.3676                 1.3447                 1.5719
 IR Inten    --      5.2715                25.0969                18.3979

                     37                     38                     39
                      A                      A                      A
 Frequencies --   1401.7399              1414.9160              1431.5569
 Red. masses --      1.3178                 1.2714                 1.5235
 Frc consts  --      1.5256                 1.4996                 1.8396
 IR Inten    --     11.0212                43.1892                14.5224

                     40                     41                     42
                      A                      A                      A
 Frequencies --   1484.7154              1491.7953              1505.6105
 Red. masses --      1.0797                 1.0889                 1.0985
 Frc consts  --      1.4023                 1.4278                 1.4671
 IR Inten    --      0.1320                 1.7985                 2.3311

                     43                     44                     45
                      A                      A                      A
 Frequencies --   2219.1851              2899.5691              2983.3425
 Red. masses --      5.9280                 1.0802                 1.0686
 Frc consts  --     17.2007                 5.3509                 5.6037
 IR Inten    --      0.8580                55.3538                60.6901

                     46                     47                     48
                      A                      A                      A
 Frequencies --   3035.7850              3052.7271              3079.6679
 Red. masses --      1.0838                 1.0630                 1.0622
 Frc consts  --      5.8848                 5.8366                 5.9355
 IR Inten    --     20.3519                28.4941                31.9793

                     49                     50                     51
                      A                      A                      A
 Frequencies --   3083.4716              3100.6111              3129.6187
 Red. masses --      1.0941                 1.1020                 1.1053
 Frc consts  --      6.1288                 6.2418                 6.3783
 IR Inten    --     23.6315                12.5853                27.5521

                     52                     53                     54
                      A                      A                      A
 Frequencies --   3502.5290              3551.1029              3810.5424
 Red. masses --      1.1607                 1.0745                 1.0661
 Frc consts  --      8.3897                 7.9834                 9.1205
 IR Inten    --     64.1644                 3.2183                15.5120

 - Thermochemistry -
 -------------------
 Temperature   298.150 Kelvin.  Pressure   1.00000 Atm.
 Atom     1 has atomic number  6 and mass  12.00000

 Molecular mass:   125.08406 amu.
 Principal axes and moments of inertia in atomic units:
                           1         2         3
     Eigenvalues --   695.641451616.965622004.38205
           X            0.99997  -0.00392   0.00683
           Y            0.00386   0.99995   0.00900
           Z           -0.00687  -0.00898   0.99994
 This molecule is an asymmetric top.
 Rotational symmetry number  1.
 Warning -- assumption of classical behavior for rotation
           may cause significant error
 Rotational temperatures (Kelvin)      0.12451     0.05357     0.04321
 Rotational constants (GHZ):           2.59436     1.11613     0.90040
 Zero-point vibrational energy     449939.2 (Joules/Mol)
                                  107.53805 (Kcal/Mol)
 Warning -- explicit consideration of  11 degrees of freedom as
           vibrations may cause significant error
 Vibrational temperatures:     58.96   117.58   185.08   256.55   310.25
          (Kelvin)            358.52   460.28   574.28   645.72   671.45
                              787.43   896.50   913.02   929.07  1070.74
                             1114.00  1156.23  1244.80  1311.72  1357.32
                             1389.63  1439.40  1503.67  1522.78  1574.37
                             1601.72  1644.88  1690.53  1772.92  1783.55
                             1806.41  1872.69  1897.33  1930.77  1945.31
                             1994.50  2016.79  2035.75  2059.69  2136.17
                             2146.36  2166.24  3192.91  4171.83  4292.36
                             4367.82  4392.19  4430.96  4436.43  4461.09
                             4502.82  5039.36  5109.25  5482.52

 Zero-point correction=                           0.171373 (Hartree/Particle)
 Thermal correction to Energy=                    0.180742
 Thermal correction to Enthalpy=                  0.181686
 Thermal correction to Gibbs Free Energy=         0.136439
 Sum of electronic and zero-point Energies=           -403.110404
 Sum of electronic and thermal Energies=              -403.101035
 Sum of electronic and thermal Enthalpies=            -403.100090
 Sum of electronic and thermal Free Energies=         -403.145337

                     E (Thermal)             CV                S
                      KCal/Mol        Cal/Mol-Kelvin    Cal/Mol-Kelvin
 Total                  113.417             34.847             95.230
 Electronic               0.000              0.000              0.000
 Translational            0.889              2.981             40.385
 Rotational               0.889              2.981             29.201
 Vibrational            111.640             28.885             25.643
 Vibration     1          0.594              1.981              5.211
 Vibration     2          0.600              1.962              3.849
 Vibration     3          0.611              1.925              2.966
 Vibration     4          0.629              1.869              2.346
 Vibration     5          0.645              1.817              1.995
 Vibration     6          0.662              1.764              1.736
 Vibration     7          0.706              1.635              1.311
 Vibration     8          0.765              1.472              0.966
 Vibration     9          0.808              1.364              0.799
 Vibration    10          0.824              1.324              0.747
 Vibration    11          0.903              1.146              0.550

 Optimization completed.
    -- Stationary point found.
 Normal termination of Gaussian 16 at Mon Jul  4 03:59:16 2022.
