 Gaussian 16, Revision A.03,
 Gaussian 16:  ES64L-G16RevA.03 25-Dec-2016

 -----------------------------
 # opt freq b3lyp/6-31g(2df,p)
 -----------------------------

 -------------------
 Title Card Required
 -------------------
 Symbolic Z-matrix:
 Charge =  0 Multiplicity = 1

 SCF Done:  E(RB3LYP) =  -307.374128106     A.U. after   14 cycles
 SCF Done:  E(RB3LYP) =  -307.375437802     A.U. after   13 cycles
 SCF Done:  E(RB3LYP) =  -307.377790281     A.U. after   14 cycles
 SCF Done:  E(RB3LYP) =  -307.378724269     A.U. after   13 cycles
 SCF Done:  E(RB3LYP) =  -307.380157308     A.U. after   13 cycles
 SCF Done:  E(RB3LYP) =  -307.380751409     A.U. after   13 cycles
 SCF Done:  E(RB3LYP) =  -307.380618385     A.U. after   13 cycles
 SCF Done:  E(RB3LYP) =  -307.381236872     A.U. after   11 cycles
 SCF Done:  E(RB3LYP) =  -307.381120870     A.U. after   12 cycles
 SCF Done:  E(RB3LYP) =  -307.381314332     A.U. after   11 cycles
 SCF Done:  E(RB3LYP) =  -307.381320213     A.U. after    9 cycles
 SCF Done:  E(RB3LYP) =  -307.381321206     A.U. after    8 cycles
 SCF Done:  E(RB3LYP) =  -307.381321324     A.U. after    8 cycles
 Optimization completed.
    -- Stationary point found.
 Normal termination of Gaussian 16 at Thu Aug  4 02:57:47 2022.

 ----------------------------------------------------------------------
 #N Geom=AllCheck Guess=TCheck SCRF=Check GenChk RB3LYP/6-31G(2df,p) Fr
 eq
 ----------------------------------------------------------------------

 Structure from the checkpoint file:  "CtCC1CC1CdO.chk"
 -------------------
 Title Card Required
 -------------------
 Charge =  0 Multiplicity = 1

                         Standard orientation:
 ---------------------------------------------------------------------
 Center     Atomic      Atomic             Coordinates (Angstroms)
 Number     Number       Type             X           Y           Z
 ---------------------------------------------------------------------
      1          6           0        2.974293   -0.783856   -0.112722
      2          6           0        1.920675   -0.280575    0.174194
      3          6           0        0.666951    0.319021    0.520302
      4          6           0        0.097177    1.450560   -0.286671
      5          6           0       -0.548006    0.085464   -0.398163
      6          6           0       -1.855072   -0.137753    0.260819
      7          8           0       -2.715995   -0.875249   -0.146326
      8          1           0        3.904366   -1.229873   -0.364757
      9          1           0        0.440142    0.334881    1.583312
     10          1           0        0.659861    1.794761   -1.145291
     11          1           0       -0.443413    2.222627    0.250678
     12          1           0       -0.376802   -0.488542   -1.300587
     13          1           0       -1.992309    0.450980    1.200703
 ---------------------------------------------------------------------

 SCF Done:  E(RB3LYP) =  -307.381321324     A.U. after    1 cycles

 The electronic state is 1-A.
 Alpha  occ. eigenvalues --  -19.13970 -10.27642 -10.24008 -10.22049 -10.21925
 Alpha  occ. eigenvalues --  -10.19376 -10.18337  -1.04792  -0.89801  -0.75840
 Alpha  occ. eigenvalues --   -0.68189  -0.64817  -0.58827  -0.54662  -0.50717
 Alpha  occ. eigenvalues --   -0.50362  -0.43991  -0.42638  -0.41068  -0.40130
 Alpha  occ. eigenvalues --   -0.36102  -0.33308  -0.27636  -0.26954  -0.25107
 Alpha virt. eigenvalues --   -0.02945   0.03634   0.04639   0.09113   0.10414
 Alpha virt. eigenvalues --    0.12386   0.13527   0.14575   0.15457   0.18202
 Alpha virt. eigenvalues --    0.21916   0.23527   0.25409   0.30037   0.32714

 Mulliken charges:
               1
     1  C   -0.424657
     2  C    0.307145
     3  C   -0.202691
     4  C   -0.286514
     5  C   -0.100106
     6  C    0.168751
     7  O   -0.259386
     8  H    0.203065
     9  H    0.126297
    10  H    0.144060
    11  H    0.131704
    12  H    0.126370
    13  H    0.065963
 Sum of Mulliken charges =  -0.00000

 Dipole moment (field-independent basis, Debye):
    X=              2.0277    Y=              1.8213    Z=              0.3739  Tot=              2.7511
 Quadrupole moment (field-independent basis, Debye-Ang):
   XX=            -45.9346   YY=            -40.2318   ZZ=            -38.6999
   XY=             -5.9913   XZ=             -3.0332   YZ=              0.2450

  Exact polarizability:  90.380  -5.831  53.541  -3.812   3.731  46.418
 Approx polarizability: 135.119  -8.026  83.971  -4.481   9.151  71.407

                      1                      2                      3
                      A                      A                      A
 Frequencies --     91.8336               162.4277               181.3004
 Red. masses --      6.2158                 3.7384                 2.8276
 Frc consts  --      0.0309                 0.0581                 0.0548
 IR Inten    --      3.2203                 0.9404                 3.1796

                      4                      5                      6
                      A                      A                      A
 Frequencies --    292.8060               322.7463               450.1481
 Red. masses --      3.3480                 2.5125                 6.8924
 Frc consts  --      0.1691                 0.1542                 0.8229
 IR Inten    --      7.3169                 1.7616                 3.3652

                      7                      8                      9
                      A                      A                      A
 Frequencies --    518.8640               543.1766               600.9724
 Red. masses --      3.8309                 4.8578                 1.1945
 Frc consts  --      0.6077                 0.8444                 0.2542
 IR Inten    --      5.1240                11.5396                48.8556

                     10                     11                     12
                      A                      A                      A
 Frequencies --    656.6188               780.7022               843.4137
 Red. masses --      1.2315                 3.2279                 2.3898
 Frc consts  --      0.3128                 1.1591                 1.0016
 IR Inten    --     40.1570                 0.6781                10.1375

                     13                     14                     15
                      A                      A                      A
 Frequencies --    872.7018               932.8982              1028.1800
 Red. masses --      1.3936                 2.1904                 2.6015
 Frc consts  --      0.6254                 1.1231                 1.6204
 IR Inten    --     25.1138                10.0911                42.9757

                     16                     17                     18
                      A                      A                      A
 Frequencies --   1047.1528              1081.3669              1107.9811
 Red. masses --      1.7703                 1.3155                 1.1045
 Frc consts  --      1.1437                 0.9063                 0.7989
 IR Inten    --      1.2815                 3.9841                 3.8687

                     19                     20                     21
                      A                      A                      A
 Frequencies --   1138.1007              1173.0715              1211.4515
 Red. masses --      1.5578                 1.7347                 2.1969
 Frc consts  --      1.1889                 1.4065                 1.8996
 IR Inten    --      7.8960                40.4777                 8.3611

                     22                     23                     24
                      A                      A                      A
 Frequencies --   1293.8587              1398.3588              1442.5391
 Red. masses --      1.4098                 1.6164                 1.3128
 Frc consts  --      1.3905                 1.8622                 1.6095
 IR Inten    --      1.0442                 7.6415                 9.3185

                     25                     26                     27
                      A                      A                      A
 Frequencies --   1479.4769              1826.3260              2241.7811
 Red. masses --      1.2800                10.2626                 6.0023
 Frc consts  --      1.6507                20.1681                17.7728
 IR Inten    --      3.6765               278.5073                 5.1806

                     28                     29                     30
                      A                      A                      A
 Frequencies --   2834.1296              3138.8512              3141.9109
 Red. masses --      1.0810                 1.0802                 1.0610
 Frc consts  --      5.1156                 6.2704                 6.1712
 IR Inten    --    102.0758                 3.0831                 8.3762

                     31                     32                     33
                      A                      A                      A
 Frequencies --   3199.7109              3238.7173              3504.4796
 Red. masses --      1.0907                 1.1162                 1.1613
 Frc consts  --      6.5794                 6.8982                 8.4029
 IR Inten    --      0.8347                 1.7380                81.0503

 - Thermochemistry -
 -------------------
 Temperature   298.150 Kelvin.  Pressure   1.00000 Atm.
 Atom     1 has atomic number  6 and mass  12.00000

 Molecular mass:    94.04186 amu.
 Principal axes and moments of inertia in atomic units:
                           1         2         3
     Eigenvalues --   258.738751264.682231416.52735
           X            0.99978  -0.01771  -0.01094
           Y            0.01789   0.99970   0.01679
           Z            0.01064  -0.01698   0.99980
 This molecule is an asymmetric top.
 Rotational symmetry number  1.
 Rotational temperatures (Kelvin)      0.33475     0.06849     0.06115
 Rotational constants (GHZ):           6.97515     1.42703     1.27406
 Zero-point vibrational energy     261850.9 (Joules/Mol)
                                   62.58387 (Kcal/Mol)
 Warning -- explicit consideration of   9 degrees of freedom as
           vibrations may cause significant error
 Vibrational temperatures:    132.13   233.70   260.85   421.28   464.36
          (Kelvin)            647.66   746.53   781.51   864.67   944.73
                             1123.26  1213.48  1255.62  1342.23  1479.32
                             1506.62  1555.85  1594.14  1637.47  1687.79
                             1743.01  1861.57  2011.93  2075.49  2128.64
                             2627.68  3225.42  4077.68  4516.11  4520.51
                             4603.67  4659.79  5042.16

 Zero-point correction=                           0.099734 (Hartree/Particle)
 Thermal correction to Energy=                    0.106771
 Thermal correction to Enthalpy=                  0.107716
 Thermal correction to Gibbs Free Energy=         0.068597
 Sum of electronic and zero-point Energies=           -307.281588
 Sum of electronic and thermal Energies=              -307.274550
 Sum of electronic and thermal Enthalpies=            -307.273606
 Sum of electronic and thermal Free Energies=         -307.312725

                     E (Thermal)             CV                S
                      KCal/Mol        Cal/Mol-Kelvin    Cal/Mol-Kelvin
 Total                   67.000             25.288             82.333
 Electronic               0.000              0.000              0.000
 Translational            0.889              2.981             39.535
 Rotational               0.889              2.981             27.630
 Vibrational             65.223             19.326             15.168
 Vibration     1          0.602              1.955              3.621
 Vibration     2          0.623              1.889              2.521
 Vibration     3          0.630              1.865              2.315
 Vibration     4          0.688              1.687              1.458
 Vibration     5          0.708              1.630              1.296
 Vibration     6          0.809              1.361              0.795
 Vibration     7          0.874              1.208              0.613
 Vibration     8          0.898              1.155              0.558
 Vibration     9          0.959              1.030              0.448

 Optimization completed.
    -- Stationary point found.
 Normal termination of Gaussian 16 at Thu Aug  4 03:14:54 2022.
