 Gaussian 16, Revision A.03,
 Gaussian 16:  ES64L-G16RevA.03 25-Dec-2016

 -----------------------------
 # opt freq b3lyp/6-31g(2df,p)
 -----------------------------

 -------------------
 Title Card Required
 -------------------
 Symbolic Z-matrix:
 Charge =  0 Multiplicity = 1

 SCF Done:  E(RB3LYP) =  -271.473622464     A.U. after   14 cycles
 SCF Done:  E(RB3LYP) =  -271.496462930     A.U. after   13 cycles
 SCF Done:  E(RB3LYP) =  -271.497451669     A.U. after   11 cycles
 SCF Done:  E(RB3LYP) =  -271.494655232     A.U. after   13 cycles
 SCF Done:  E(RB3LYP) =  -271.495909331     A.U. after   12 cycles
 SCF Done:  E(RB3LYP) =  -271.497541086     A.U. after   10 cycles
 SCF Done:  E(RB3LYP) =  -271.497687210     A.U. after   11 cycles
 SCF Done:  E(RB3LYP) =  -271.497137529     A.U. after   11 cycles
 SCF Done:  E(RB3LYP) =  -271.497732510     A.U. after   10 cycles
 SCF Done:  E(RB3LYP) =  -271.497737947     A.U. after    8 cycles
 SCF Done:  E(RB3LYP) =  -271.497739146     A.U. after    8 cycles
 SCF Done:  E(RB3LYP) =  -271.497740015     A.U. after    8 cycles
 SCF Done:  E(RB3LYP) =  -271.497740192     A.U. after    7 cycles
 Optimization completed.
    -- Stationary point found.
 Normal termination of Gaussian 16 at Wed Aug  3 23:53:46 2022.

 ----------------------------------------------------------------------
 #N Geom=AllCheck Guess=TCheck SCRF=Check GenChk RB3LYP/6-31G(2df,p) Fr
 eq
 ----------------------------------------------------------------------

 Structure from the checkpoint file:  "CtCC1dCCCC1.chk"
 -------------------
 Title Card Required
 -------------------
 Charge =  0 Multiplicity = 1

                         Standard orientation:
 ---------------------------------------------------------------------
 Center     Atomic      Atomic             Coordinates (Angstroms)
 Number     Number       Type             X           Y           Z
 ---------------------------------------------------------------------
      1          6           0        3.048889   -0.003873   -0.037071
      2          6           0        1.845546    0.064066   -0.014388
      3          6           0        0.430549    0.080208    0.010836
      4          6           0       -0.360412    1.163847   -0.017889
      5          6           0       -1.821199    0.810325    0.076397
      6          6           0       -1.831982   -0.720875   -0.168112
      7          6           0       -0.390044   -1.197492    0.131634
      8          1           0        4.109494   -0.045180   -0.056032
      9          1           0        0.002381    2.184033   -0.062573
     10          1           0       -2.438651    1.357048   -0.645318
     11          1           0       -2.213946    1.070802    1.070388
     12          1           0       -2.068240   -0.917329   -1.218450
     13          1           0       -2.580980   -1.240254    0.434442
     14          1           0       -0.047382   -1.977119   -0.555570
     15          1           0       -0.290763   -1.609241    1.144670
 ---------------------------------------------------------------------

 SCF Done:  E(RB3LYP) =  -271.497740192     A.U. after    1 cycles

 The electronic state is 1-A.
 Alpha  occ. eigenvalues --  -10.20027 -10.18711 -10.18637 -10.18631 -10.18394
 Alpha  occ. eigenvalues --  -10.18007 -10.17293  -0.84987  -0.75877  -0.70986
 Alpha  occ. eigenvalues --   -0.70110  -0.58436  -0.57203  -0.51471  -0.49695
 Alpha  occ. eigenvalues --   -0.46949  -0.40135  -0.39699  -0.36764  -0.35490
 Alpha  occ. eigenvalues --   -0.35134  -0.34374  -0.30262  -0.26454  -0.22357
 Alpha virt. eigenvalues --   -0.01365   0.05635   0.09389   0.10810   0.12922
 Alpha virt. eigenvalues --    0.14017   0.14727   0.15320   0.15981   0.18809
 Alpha virt. eigenvalues --    0.19712   0.21513   0.23257   0.25351   0.29279

 Mulliken charges:
               1
     1  C   -0.417701
     2  C    0.198497
     3  C    0.212746
     4  C   -0.164879
     5  C   -0.244049
     6  C   -0.213213
     7  C   -0.311891
     8  H    0.189540
     9  H    0.097129
    10  H    0.106958
    11  H    0.111468
    12  H    0.109232
    13  H    0.100213
    14  H    0.112575
    15  H    0.113374
 Sum of Mulliken charges =  -0.00000

 Dipole moment (field-independent basis, Debye):
    X=             -0.7741    Y=             -0.0350    Z=              0.0610  Tot=              0.7773
 Quadrupole moment (field-independent basis, Debye-Ang):
   XX=            -37.2258   YY=            -40.8735   ZZ=            -42.6203
   XY=             -0.4577   XZ=             -0.1808   YZ=             -0.0752

  Exact polarizability: 108.113  -8.533  64.134  -0.960  -0.548  45.047
 Approx polarizability: 167.444 -24.599  98.273  -1.899  -1.112  68.972

                      1                      2                      3
                      A                      A                      A
 Frequencies --    121.7054               161.1585               175.1436
 Red. masses --      2.0214                 3.6326                 2.2677
 Frc consts  --      0.0176                 0.0556                 0.0410
 IR Inten    --      0.0938                 0.8663                 1.5909

                      4                      5                      6
                      A                      A                      A
 Frequencies --    361.7305               512.9939               527.4704
 Red. masses --      2.8447                 4.4764                 4.8349
 Frc consts  --      0.2193                 0.6941                 0.7926
 IR Inten    --      1.2216                 2.1559                 3.6008

                      7                      8                      9
                      A                      A                      A
 Frequencies --    547.0562               590.9968               631.8430
 Red. masses --      3.7368                 1.2136                 1.2268
 Frc consts  --      0.6589                 0.2497                 0.2886
 IR Inten    --      6.3294                33.1461                39.5122

                     10                     11                     12
                      A                      A                      A
 Frequencies --    654.3977               815.3560               848.2947
 Red. masses --      2.1226                 2.0939                 1.3772
 Frc consts  --      0.5355                 0.8202                 0.5839
 IR Inten    --      2.1872                 2.5888                 8.8536

                     13                     14                     15
                      A                      A                      A
 Frequencies --    880.4163               909.4741               919.0288
 Red. masses --      3.3840                 1.5760                 2.2788
 Frc consts  --      1.5454                 0.7681                 1.1340
 IR Inten    --      1.5960                 4.3881                 0.8106

                     16                     17                     18
                      A                      A                      A
 Frequencies --    963.7162              1036.7827              1065.1462
 Red. masses --      1.9401                 2.1722                 1.6883
 Frc consts  --      1.0617                 1.3757                 1.1285
 IR Inten    --      6.4364                 2.1526                 2.7468

                     19                     20                     21
                      A                      A                      A
 Frequencies --   1145.5315              1159.7239              1228.3901
 Red. masses --      1.3893                 1.8083                 1.2379
 Frc consts  --      1.0741                 1.4330                 1.1006
 IR Inten    --      1.4137                 1.6253                 0.9785

                     22                     23                     24
                      A                      A                      A
 Frequencies --   1241.0494              1275.0368              1318.0003
 Red. masses --      1.7382                 1.3677                 1.3728
 Frc consts  --      1.5773                 1.3101                 1.4050
 IR Inten    --      3.5799                 0.3095                 4.7374

                     25                     26                     27
                      A                      A                      A
 Frequencies --   1326.1869              1349.4643              1481.8454
 Red. masses --      1.6543                 1.5831                 1.0846
 Frc consts  --      1.7143                 1.6985                 1.4032
 IR Inten    --      1.7691                 1.2342                 0.7849

                     28                     29                     30
                      A                      A                      A
 Frequencies --   1487.2474              1505.9006              1672.7786
 Red. masses --      1.0818                 1.1049                 6.9010
 Frc consts  --      1.4099                 1.4762                11.3772
 IR Inten    --      1.0626                 0.4964                 0.9847

                     31                     32                     33
                      A                      A                      A
 Frequencies --   2220.3336              2999.9167              3022.1383
 Red. masses --      6.1565                 1.0704                 1.0680
 Frc consts  --     17.8822                 5.6756                 5.7471
 IR Inten    --      3.8437                39.2917                29.1818

                     34                     35                     36
                      A                      A                      A
 Frequencies --   3046.9623              3059.5958              3076.1516
 Red. masses --      1.0798                 1.0768                 1.0897
 Frc consts  --      5.9066                 5.9391                 6.0755
 IR Inten    --     10.0755                42.1214                27.8061

                     37                     38                     39
                      A                      A                      A
 Frequencies --   3104.8686              3203.8745              3504.6958
 Red. masses --      1.1039                 1.0938                 1.1575
 Frc consts  --      6.2701                 6.6154                 8.3763
 IR Inten    --     36.8246                 8.9052                84.5944

 - Thermochemistry -
 -------------------
 Temperature   298.150 Kelvin.  Pressure   1.00000 Atm.
 Atom     1 has atomic number  6 and mass  12.00000

 Molecular mass:    92.06260 amu.
 Principal axes and moments of inertia in atomic units:
                           1         2         3
     Eigenvalues --   249.971221008.414691218.81335
           X            1.00000  -0.00061   0.00022
           Y            0.00061   1.00000  -0.00050
           Z           -0.00022   0.00050   1.00000
 This molecule is an asymmetric top.
 Rotational symmetry number  1.
 Rotational temperatures (Kelvin)      0.34650     0.08589     0.07106
 Rotational constants (GHZ):           7.21980     1.78968     1.48074
 Zero-point vibrational energy     329884.6 (Joules/Mol)
                                   78.84432 (Kcal/Mol)
 Warning -- explicit consideration of   8 degrees of freedom as
           vibrations may cause significant error
 Vibrational temperatures:    175.11   231.87   251.99   520.45   738.08
          (Kelvin)            758.91   787.09   850.31   909.08   941.53
                             1173.12  1220.51  1266.72  1308.53  1322.28
                             1386.57  1491.70  1532.51  1648.16  1668.58
                             1767.38  1785.59  1834.49  1896.31  1908.09
                             1941.58  2132.05  2139.82  2166.66  2406.76
                             3194.56  4316.21  4348.18  4383.90  4402.08
                             4425.90  4467.21  4609.66  5042.48

 Zero-point correction=                           0.125646 (Hartree/Particle)
 Thermal correction to Energy=                    0.132330
 Thermal correction to Enthalpy=                  0.133274
 Thermal correction to Gibbs Free Energy=         0.095191
 Sum of electronic and zero-point Energies=           -271.372094
 Sum of electronic and thermal Energies=              -271.365410
 Sum of electronic and thermal Enthalpies=            -271.364466
 Sum of electronic and thermal Free Energies=         -271.402549

                     E (Thermal)             CV                S
                      KCal/Mol        Cal/Mol-Kelvin    Cal/Mol-Kelvin
 Total                   83.039             25.138             80.153
 Electronic               0.000              0.000              0.000
 Translational            0.889              2.981             39.471
 Rotational               0.889              2.981             27.221
 Vibrational             81.261             19.177             13.461
 Vibration     1          0.609              1.931              3.073
 Vibration     2          0.622              1.890              2.536
 Vibration     3          0.627              1.873              2.380
 Vibration     4          0.736              1.551              1.115
 Vibration     5          0.868              1.221              0.626
 Vibration     6          0.882              1.189              0.593
 Vibration     7          0.902              1.146              0.550
 Vibration     8          0.948              1.051              0.465

 Optimization completed.
    -- Stationary point found.
 Normal termination of Gaussian 16 at Thu Aug  4 00:10:38 2022.
