 Gaussian 16, Revision A.03,
 Gaussian 16:  ES64L-G16RevA.03 25-Dec-2016

 -----------------------------
 # opt freq b3lyp/6-31g(2df,p)
 -----------------------------

 -------------------
 Title Card Required
 -------------------
 Symbolic Z-matrix:
 Charge =  0 Multiplicity = 1

 SCF Done:  E(RB3LYP) =  -383.519777097     A.U. after   16 cycles
 SCF Done:  E(RB3LYP) =  -383.560825277     A.U. after   14 cycles
 SCF Done:  E(RB3LYP) =  -383.567645937     A.U. after   14 cycles
 SCF Done:  E(RB3LYP) =  -383.565712715     A.U. after   16 cycles
 SCF Done:  E(RB3LYP) =  -383.562271771     A.U. after   14 cycles
 SCF Done:  E(RB3LYP) =  -383.559928073     A.U. after   14 cycles
 SCF Done:  E(RB3LYP) =  -383.567829808     A.U. after   12 cycles
 SCF Done:  E(RB3LYP) =  -383.567203637     A.U. after   15 cycles
 SCF Done:  E(RB3LYP) =  -383.568402282     A.U. after   12 cycles
 SCF Done:  E(RB3LYP) =  -383.568247370     A.U. after   13 cycles
 SCF Done:  E(RB3LYP) =  -383.568403452     A.U. after   12 cycles
 SCF Done:  E(RB3LYP) =  -383.568420645     A.U. after   17 cycles
 SCF Done:  E(RB3LYP) =  -383.568420777     A.U. after    8 cycles
 SCF Done:  E(RB3LYP) =  -383.568420775     A.U. after    7 cycles
 Optimization completed.
    -- Stationary point found.
 Normal termination of Gaussian 16 at Sun Jul  3 22:20:49 2022.

 ----------------------------------------------------------------------
 #N Geom=AllCheck Guess=TCheck SCRF=Check GenChk RB3LYP/6-31G(2df,p) Fr
 eq
 ----------------------------------------------------------------------

 Structure from the checkpoint file:  "CtCCtCCdCCpCpdO.chk"
 -------------------
 Title Card Required
 -------------------
 Charge =  0 Multiplicity = 1

                         Standard orientation:
 ---------------------------------------------------------------------
 Center     Atomic      Atomic             Coordinates (Angstroms)
 Number     Number       Type             X           Y           Z
 ---------------------------------------------------------------------
      1          6           0       -4.956271   -0.215084   -0.000483
      2          6           0       -3.758886   -0.050850   -0.000151
      3          6           0       -2.415805    0.134446    0.000280
      4          6           0       -1.210510    0.290072    0.000653
      5          6           0        0.177411    0.514696    0.000334
      6          6           0        1.104621   -0.464558    0.000238
      7          6           0        2.574247   -0.284702   -0.000084
      8          6           0        3.197616    1.103986   -0.000352
      9          8           0        3.285660   -1.271694   -0.000141
     10          1           0       -6.008171   -0.361605   -0.000769
     11          1           0        0.484843    1.557862    0.000164
     12          1           0        0.796274   -1.505708    0.000406
     13          1           0        2.485221    1.929179   -0.000281
     14          1           0        3.840820    1.192805   -0.880560
     15          1           0        3.841193    1.192976    0.879567
 ---------------------------------------------------------------------

 SCF Done:  E(RB3LYP) =  -383.568420775     A.U. after    1 cycles

 The electronic state is 1-A.
 Alpha  occ. eigenvalues --  -19.12857 -10.27566 -10.23902 -10.22059 -10.21759
 Alpha  occ. eigenvalues --  -10.21642 -10.21303 -10.21007 -10.19349  -1.03886
 Alpha  occ. eigenvalues --   -0.83789  -0.80248  -0.75782  -0.73411  -0.67143
 Alpha  occ. eigenvalues --   -0.61639  -0.54539  -0.53304  -0.51113  -0.48545
 Alpha  occ. eigenvalues --   -0.44577  -0.43022  -0.40453  -0.38971  -0.38075
 Alpha  occ. eigenvalues --   -0.36161  -0.35779  -0.31953  -0.26498  -0.25091
 Alpha  occ. eigenvalues --   -0.24686
 Alpha virt. eigenvalues --   -0.09141  -0.03002   0.00241   0.06123   0.08750
 Alpha virt. eigenvalues --    0.10664   0.12079   0.14445   0.16162   0.17160
 Alpha virt. eigenvalues --    0.18997   0.19210   0.20340   0.24110   0.27261

 Mulliken charges:
               1
     1  C   -0.549907
     2  C    0.298599
     3  C   -0.095176
     4  C    0.297275
     5  C   -0.264160
     6  C   -0.155923
     7  C    0.386967
     8  C   -0.489378
     9  O   -0.323933
    10  H    0.201362
    11  H    0.135351
    12  H    0.124289
    13  H    0.122708
    14  H    0.155965
    15  H    0.155962
 Sum of Mulliken charges =   0.00000

 Dipole moment (field-independent basis, Debye):
    X=             -1.9593    Y=              2.2547    Z=             -0.0004  Tot=              2.9871
 Quadrupole moment (field-independent basis, Debye-Ang):
   XX=            -45.2565   YY=            -52.2667   ZZ=            -51.7779
   XY=              9.6379   XZ=              0.0030   YZ=             -0.0004

  Exact polarizability: 225.041  -1.787  63.429   0.012   0.001  41.604
 Approx polarizability: 398.553 -18.339 105.523   0.041   0.006  63.158

 ******    1 imaginary frequencies (negative Signs) ******

                      1                      2                      3
                      A                      A                      A
 Frequencies --   -125.1763                64.4634                66.2509
 Red. masses --      1.0211                 5.5423                 4.7172
 Frc consts  --      0.0094                 0.0136                 0.0122
 IR Inten    --      0.6899                 1.2504                 0.4548

                      4                      5                      6
                      A                      A                      A
 Frequencies --    110.2052               194.6078               200.5866
 Red. masses --      2.8342                 4.9468                 4.1331
 Frc consts  --      0.0203                 0.1104                 0.0980
 IR Inten    --      1.9442                 6.5902                 3.2366

                      7                      8                      9
                      A                      A                      A
 Frequencies --    265.4687               402.0717               407.4829
 Red. masses --      4.7537                 4.5167                 8.4794
 Frc consts  --      0.1974                 0.4302                 0.8295
 IR Inten    --      1.7857                 0.1571                 5.1845

                     10                     11                     12
                      A                      A                      A
 Frequencies --    473.5390               527.2638               561.5128
 Red. masses --      3.4591                 6.1418                 3.9848
 Frc consts  --      0.4570                 1.0060                 0.7402
 IR Inten    --      3.3068                 7.9387                 2.6954

                     13                     14                     15
                      A                      A                      A
 Frequencies --    564.5220               599.7326               600.9016
 Red. masses --      2.9060                 1.4298                 1.5657
 Frc consts  --      0.5456                 0.3030                 0.3331
 IR Inten    --     22.2434                33.1927                31.6550

                     16                     17                     18
                      A                      A                      A
 Frequencies --    633.2011               776.8438               823.4787
 Red. masses --      3.2035                 5.5042                 3.6544
 Frc consts  --      0.7568                 1.9571                 1.4601
 IR Inten    --      4.1199                 0.8691                 2.8450

                     19                     20                     21
                      A                      A                      A
 Frequencies --    877.1924              1008.6910              1022.4939
 Red. masses --      1.8633                 1.0971                 1.6359
 Frc consts  --      0.8447                 0.6577                 1.0077
 IR Inten    --      0.2703                21.4954                20.5150

                     22                     23                     24
                      A                      A                      A
 Frequencies --   1037.5333              1222.4092              1257.6769
 Red. masses --      1.8603                 3.0225                 3.7910
 Frc consts  --      1.1799                 2.6610                 3.5329
 IR Inten    --     10.6235                62.2960               303.2395

                     25                     26                     27
                      A                      A                      A
 Frequencies --   1277.9361              1315.8868              1388.9080
 Red. masses --      1.5813                 1.3816                 1.2299
 Frc consts  --      1.5215                 1.4095                 1.3978
 IR Inten    --      0.1642                 0.5072                31.8121

                     28                     29                     30
                      A                      A                      A
 Frequencies --   1471.3141              1481.6954              1649.4075
 Red. masses --      1.0461                 1.0958                 5.8590
 Frc consts  --      1.3343                 1.4175                 9.3914
 IR Inten    --      4.5077                 9.6730                95.0901

                     31                     32                     33
                      A                      A                      A
 Frequencies --   1752.1246              2174.2759              2325.1906
 Red. masses --     11.4002                 6.8432                10.4176
 Frc consts  --     20.6202                19.0606                33.1844
 IR Inten    --    231.2625                 5.7533                17.9704

                     34                     35                     36
                      A                      A                      A
 Frequencies --   3055.8130              3121.2982              3145.3800
 Red. masses --      1.0363                 1.0995                 1.0979
 Frc consts  --      5.7014                 6.3115                 6.3999
 IR Inten    --      2.5286                 3.8967                13.9560

                     37                     38                     39
                      A                      A                      A
 Frequencies --   3157.6685              3187.4750              3501.9176
 Red. masses --      1.0894                 1.0895                 1.1542
 Frc consts  --      6.3999                 6.5221                 8.3398
 IR Inten    --      7.4018                 2.4536               136.2514

 - Thermochemistry -
 -------------------
 Temperature   298.150 Kelvin.  Pressure   1.00000 Atm.
 Atom     1 has atomic number  6 and mass  12.00000

 Molecular mass:   118.04186 amu.
 Principal axes and moments of inertia in atomic units:
                           1         2         3
     Eigenvalues --   220.324343630.508793839.68313
           X            0.99986   0.01647   0.00000
           Y           -0.01647   0.99986  -0.00003
           Z           -0.00000   0.00003   1.00000
 This molecule is an asymmetric top.
 Rotational symmetry number  1.
 Rotational temperatures (Kelvin)      0.39312     0.02386     0.02256
 Rotational constants (GHZ):           8.19129     0.49710     0.47002
    1 imaginary frequencies ignored.
 Zero-point vibrational energy     285335.8 (Joules/Mol)
                                   68.19689 (Kcal/Mol)
 Warning -- explicit consideration of  14 degrees of freedom as
           vibrations may cause significant error
 Vibrational temperatures:     92.75    95.32   158.56   280.00   288.60
          (Kelvin)            381.95   578.49   586.28   681.32   758.61
                              807.89   812.22   862.88   864.56   911.04
                             1117.70  1184.80  1262.08  1451.28  1471.14
                             1492.78  1758.77  1809.52  1838.66  1893.27
                             1998.33  2116.89  2131.83  2373.13  2520.92
                             3128.30  3345.43  4396.63  4490.85  4525.50
                             4543.18  4586.07  5038.48

 Zero-point correction=                           0.108679 (Hartree/Particle)
 Thermal correction to Energy=                    0.117703
 Thermal correction to Enthalpy=                  0.118647
 Thermal correction to Gibbs Free Energy=         0.073961
 Sum of electronic and zero-point Energies=           -383.459742
 Sum of electronic and thermal Energies=              -383.450718
 Sum of electronic and thermal Enthalpies=            -383.449774
 Sum of electronic and thermal Free Energies=         -383.494459

                     E (Thermal)             CV                S
                      KCal/Mol        Cal/Mol-Kelvin    Cal/Mol-Kelvin
 Total                   73.860             31.843             94.049
 Electronic               0.000              0.000              0.000
 Translational            0.889              2.981             40.212
 Rotational               0.889              2.981             29.509
 Vibrational             72.082             25.881             24.328
 Vibration     1          0.597              1.971              4.316
 Vibration     2          0.598              1.970              4.262
 Vibration     3          0.606              1.941              3.265
 Vibration     4          0.635              1.847              2.183
 Vibration     5          0.638              1.839              2.128
 Vibration     6          0.671              1.736              1.626
 Vibration     7          0.768              1.466              0.955
 Vibration     8          0.772              1.454              0.936
 Vibration     9          0.830              1.309              0.728
 Vibration    10          0.882              1.190              0.593
 Vibration    11          0.917              1.115              0.521
 Vibration    12          0.920              1.108              0.515
 Vibration    13          0.958              1.032              0.450
 Vibration    14          0.959              1.030              0.448

 Optimization completed.
    -- Stationary point found.
 Normal termination of Gaussian 16 at Sun Jul  3 22:35:41 2022.
