 Gaussian 16, Revision A.03,
 Gaussian 16:  ES64L-G16RevA.03 25-Dec-2016

 -----------------------------
 # opt freq b3lyp/6-31g(2df,p)
 -----------------------------

 -------------------
 Title Card Required
 -------------------
 Symbolic Z-matrix:
 Charge =  0 Multiplicity = 1

 SCF Done:  E(RB3LYP) =  -403.206524737     A.U. after   14 cycles
 SCF Done:  E(RB3LYP) =  -403.232834069     A.U. after   13 cycles
 SCF Done:  E(RB3LYP) =  -403.236269987     A.U. after   12 cycles
 SCF Done:  E(RB3LYP) =  -403.233135740     A.U. after   14 cycles
 SCF Done:  E(RB3LYP) =  -403.236427654     A.U. after   12 cycles
 SCF Done:  E(RB3LYP) =  -403.236580435     A.U. after   11 cycles
 SCF Done:  E(RB3LYP) =  -403.237092860     A.U. after   12 cycles
 SCF Done:  E(RB3LYP) =  -403.236739459     A.U. after   12 cycles
 SCF Done:  E(RB3LYP) =  -403.238171837     A.U. after   11 cycles
 SCF Done:  E(RB3LYP) =  -403.238915444     A.U. after   14 cycles
 SCF Done:  E(RB3LYP) =  -403.239509639     A.U. after   10 cycles
 SCF Done:  E(RB3LYP) =  -403.239400250     A.U. after   11 cycles
 SCF Done:  E(RB3LYP) =  -403.239845329     A.U. after   11 cycles
 SCF Done:  E(RB3LYP) =  -403.239899144     A.U. after   10 cycles
 SCF Done:  E(RB3LYP) =  -403.239908913     A.U. after    8 cycles
 SCF Done:  E(RB3LYP) =  -403.239911212     A.U. after    8 cycles
 SCF Done:  E(RB3LYP) =  -403.239913274     A.U. after    8 cycles
 SCF Done:  E(RB3LYP) =  -403.239914118     A.U. after    8 cycles
 SCF Done:  E(RB3LYP) =  -403.239914386     A.U. after    7 cycles
 Optimization completed.
    -- Stationary point found.
 Normal termination of Gaussian 16 at Thu Aug  4 06:21:27 2022.

 ----------------------------------------------------------------------
 #N Geom=AllCheck Guess=TCheck SCRF=Check GenChk RB3LYP/6-31G(2df,p) Fr
 eq
 ----------------------------------------------------------------------

 Structure from the checkpoint file:  "CtCCN1CC1pCpCO.chk"
 -------------------
 Title Card Required
 -------------------
 Charge =  0 Multiplicity = 1

                         Standard orientation:
 ---------------------------------------------------------------------
 Center     Atomic      Atomic             Coordinates (Angstroms)
 Number     Number       Type             X           Y           Z
 ---------------------------------------------------------------------
      1          6           0       -3.351519   -0.581626    0.134253
      2          6           0       -2.415589   -0.038423   -0.391896
      3          6           0       -1.294378    0.668606   -1.018985
      4          7           0       -0.118902    0.989056   -0.198589
      5          6           0       -0.140811    0.834817    1.252218
      6          6           0        0.723858   -0.046209    0.410260
      7          6           0        0.397697   -1.520903    0.269713
      8          6           0        2.209190    0.275962    0.333916
      9          8           0        2.826869   -0.194499   -0.856167
     10          1           0       -4.179959   -1.068503    0.586768
     11          1           0       -1.676385    1.622380   -1.404824
     12          1           0       -0.946926    0.105991   -1.893547
     13          1           0       -1.017733    0.376000    1.704068
     14          1           0        0.283781    1.661618    1.818549
     15          1           0       -0.665527   -1.725140    0.397955
     16          1           0        0.946160   -2.101139    1.021374
     17          1           0        0.697323   -1.888189   -0.718484
     18          1           0        2.714739   -0.123272    1.228331
     19          1           0        2.331883    1.362224    0.331430
     20          1           0        2.959318   -1.142724   -0.769026
 ---------------------------------------------------------------------

 SCF Done:  E(RB3LYP) =  -403.239914386     A.U. after    1 cycles

 The electronic state is 1-A.
 Alpha  occ. eigenvalues --  -19.13285 -14.32886 -10.23428 -10.22229 -10.21771
 Alpha  occ. eigenvalues --  -10.20509 -10.18745 -10.18105 -10.17944  -1.01419
 Alpha  occ. eigenvalues --   -0.96297  -0.79167  -0.74326  -0.71359  -0.68161
 Alpha  occ. eigenvalues --   -0.61604  -0.55877  -0.53139  -0.50512  -0.48863
 Alpha  occ. eigenvalues --   -0.47865  -0.45800  -0.44253  -0.41910  -0.40652
 Alpha  occ. eigenvalues --   -0.38799  -0.37429  -0.33318  -0.32393  -0.31127
 Alpha  occ. eigenvalues --   -0.27891  -0.27530  -0.26387  -0.22719
 Alpha virt. eigenvalues --    0.03788   0.05185   0.06970   0.11012   0.11316
 Alpha virt. eigenvalues --    0.11958   0.12922   0.14348   0.14877   0.15477
 Alpha virt. eigenvalues --    0.16617   0.17639   0.17935   0.19563   0.20744

 Mulliken charges:
               1
     1  C   -0.465693
     2  C    0.302392
     3  C   -0.286291
     4  N   -0.115340
     5  C   -0.301684
     6  C    0.323551
     7  C   -0.499268
     8  C   -0.113968
     9  O   -0.420018
    10  H    0.200936
    11  H    0.143220
    12  H    0.142263
    13  H    0.120149
    14  H    0.107173
    15  H    0.144735
    16  H    0.115398
    17  H    0.120188
    18  H    0.082194
    19  H    0.115351
    20  H    0.284709
 Sum of Mulliken charges =  -0.00000

 Dipole moment (field-independent basis, Debye):
    X=             -0.7130    Y=             -1.7273    Z=              1.2630  Tot=              2.2554
 Quadrupole moment (field-independent basis, Debye-Ang):
   XX=            -53.3888   YY=            -52.3969   ZZ=            -53.6616
   XY=             -2.3759   XZ=              1.9834   YZ=              0.6600

  Exact polarizability:  99.193   3.910  73.490  -3.359  -0.770  71.074
 Approx polarizability: 133.607  10.553 111.645 -13.873  -6.342 112.817

                      1                      2                      3
                      A                      A                      A
 Frequencies --     68.8353                79.8418               134.0858
 Red. masses --      3.5004                 3.9009                 3.4846
 Frc consts  --      0.0098                 0.0147                 0.0369
 IR Inten    --      0.7753                 0.8310                 3.3853

                      4                      5                      6
                      A                      A                      A
 Frequencies --    179.1541               197.0083               233.1915
 Red. masses --      2.3453                 1.8772                 1.6022
 Frc consts  --      0.0443                 0.0429                 0.0513
 IR Inten    --      0.7692                16.3634                 7.9635

                      7                      8                      9
                      A                      A                      A
 Frequencies --    280.7152               300.8825               329.6161
 Red. masses --      1.2790                 2.3952                 3.2371
 Frc consts  --      0.0594                 0.1278                 0.2072
 IR Inten    --     82.8858                 8.0670                 3.4082

                     10                     11                     12
                      A                      A                      A
 Frequencies --    358.3021               403.9827               449.4860
 Red. masses --      2.1797                 3.0828                 2.5110
 Frc consts  --      0.1649                 0.2964                 0.2989
 IR Inten    --     19.9209                 2.0097                 2.2052

                     13                     14                     15
                      A                      A                      A
 Frequencies --    504.7307               608.4624               612.6206
 Red. masses --      3.8801                 3.8648                 1.2187
 Frc consts  --      0.5824                 0.8430                 0.2695
 IR Inten    --     10.7782                 6.3067                45.9620

                     16                     17                     18
                      A                      A                      A
 Frequencies --    662.0694               721.8655               766.7257
 Red. masses --      1.2561                 3.7966                 3.3585
 Frc consts  --      0.3244                 1.1656                 1.1633
 IR Inten    --     38.1361                 0.5141                 6.7543

                     19                     20                     21
                      A                      A                      A
 Frequencies --    880.2344               908.2357               931.5893
 Red. masses --      3.1435                 1.7971                 2.9445
 Frc consts  --      1.4350                 0.8734                 1.5056
 IR Inten    --      1.3952                 4.8526                14.0940

                     22                     23                     24
                      A                      A                      A
 Frequencies --    958.7552               995.1150               999.7818
 Red. masses --      1.3960                 1.7054                 2.0050
 Frc consts  --      0.7561                 0.9950                 1.1808
 IR Inten    --     19.8712                10.6307                 9.7771

                     25                     26                     27
                      A                      A                      A
 Frequencies --   1067.2155              1096.5555              1107.7126
 Red. masses --      4.6543                 1.7537                 1.5295
 Frc consts  --      3.1233                 1.2424                 1.1058
 IR Inten    --     98.6310                 6.8397                13.1529

                     28                     29                     30
                      A                      A                      A
 Frequencies --   1131.6916              1172.3440              1215.4904
 Red. masses --      1.3027                 2.4372                 1.5073
 Frc consts  --      0.9830                 1.9736                 1.3120
 IR Inten    --      4.9581                21.8683                21.2238

                     31                     32                     33
                      A                      A                      A
 Frequencies --   1276.1895              1307.0638              1346.3613
 Red. masses --      1.2127                 2.2342                 1.4858
 Frc consts  --      1.1637                 2.2489                 1.5868
 IR Inten    --      3.7500                 5.6848                52.3771

                     34                     35                     36
                      A                      A                      A
 Frequencies --   1378.2065              1389.9455              1409.3804
 Red. masses --      1.4622                 1.4123                 1.2457
 Frc consts  --      1.6364                 1.6075                 1.4579
 IR Inten    --     13.4973                 4.4853                11.2661

                     37                     38                     39
                      A                      A                      A
 Frequencies --   1430.5363              1467.6445              1483.2828
 Red. masses --      1.4730                 1.0785                 1.0778
 Frc consts  --      1.7760                 1.3687                 1.3971
 IR Inten    --     18.1764                 8.4839                 2.1413

                     40                     41                     42
                      A                      A                      A
 Frequencies --   1497.1737              1507.7129              1513.9412
 Red. masses --      1.0508                 1.1224                 1.2128
 Frc consts  --      1.3878                 1.5033                 1.6378
 IR Inten    --      6.0206                 5.6160                 1.9963

                     43                     44                     45
                      A                      A                      A
 Frequencies --   2222.1997              2973.5433              3022.7538
 Red. masses --      5.9159                 1.0700                 1.0610
 Frc consts  --     17.2121                 5.5742                 5.7117
 IR Inten    --      0.1050                61.1513                31.7541

                     46                     47                     48
                      A                      A                      A
 Frequencies --   3028.2922              3057.8168              3082.0017
 Red. masses --      1.0411                 1.0986                 1.0997
 Frc consts  --      5.6253                 6.0521                 6.1544
 IR Inten    --     23.1231                 8.1181                18.6883

                     49                     50                     51
                      A                      A                      A
 Frequencies --   3089.9043              3096.0947              3144.9106
 Red. masses --      1.0537                 1.0915                 1.0962
 Frc consts  --      5.9271                 6.1643                 6.3876
 IR Inten    --     24.7889                21.0932                 4.4418

                     52                     53                     54
                      A                      A                      A
 Frequencies --   3174.4285              3502.1859              3832.9075
 Red. masses --      1.1171                 1.1613                 1.0663
 Frc consts  --      6.6327                 8.3924                 9.2298
 IR Inten    --     12.0630                63.9677                19.6497

 - Thermochemistry -
 -------------------
 Temperature   298.150 Kelvin.  Pressure   1.00000 Atm.
 Atom     1 has atomic number  6 and mass  12.00000

 Molecular mass:   125.08406 amu.
 Principal axes and moments of inertia in atomic units:
                           1         2         3
     Eigenvalues --   527.347181899.517461955.83192
           X            0.99998  -0.00266   0.00623
           Y            0.00258   0.99992   0.01261
           Z           -0.00626  -0.01259   0.99990
 This molecule is an asymmetric top.
 Rotational symmetry number  1.
 Warning -- assumption of classical behavior for rotation
           may cause significant error
 Rotational temperatures (Kelvin)      0.16424     0.04560     0.04428
 Rotational constants (GHZ):           3.42230     0.95011     0.92275
 Zero-point vibrational energy     440170.6 (Joules/Mol)
                                  105.20329 (Kcal/Mol)
 Warning -- explicit consideration of  15 degrees of freedom as
           vibrations may cause significant error
 Vibrational temperatures:     99.04   114.87   192.92   257.76   283.45
          (Kelvin)            335.51   403.89   432.90   474.24   515.52
                              581.24   646.71   726.19   875.44   881.42
                              952.57  1038.60  1103.15  1266.46  1306.75
                             1340.35  1379.43  1431.75  1438.46  1535.49
                             1577.70  1593.75  1628.25  1686.74  1748.82
                             1836.15  1880.57  1937.11  1982.93  1999.82
                             2027.78  2058.22  2111.61  2134.11  2154.10
                             2169.26  2178.22  3197.25  4278.27  4349.07
                             4357.04  4399.52  4434.31  4445.68  4454.59
                             4524.82  4567.29  5038.86  5514.70

 Zero-point correction=                           0.167652 (Hartree/Particle)
 Thermal correction to Energy=                    0.177915
 Thermal correction to Enthalpy=                  0.178859
 Thermal correction to Gibbs Free Energy=         0.132542
 Sum of electronic and zero-point Energies=           -403.072262
 Sum of electronic and thermal Energies=              -403.061999
 Sum of electronic and thermal Enthalpies=            -403.061055
 Sum of electronic and thermal Free Energies=         -403.107372

                     E (Thermal)             CV                S
                      KCal/Mol        Cal/Mol-Kelvin    Cal/Mol-Kelvin
 Total                  111.643             37.792             97.482
 Electronic               0.000              0.000              0.000
 Translational            0.889              2.981             40.385
 Rotational               0.889              2.981             29.062
 Vibrational            109.866             31.830             28.035
 Vibration     1          0.598              1.969              4.186
 Vibration     2          0.600              1.963              3.895
 Vibration     3          0.613              1.919              2.887
 Vibration     4          0.629              1.868              2.337
 Vibration     5          0.636              1.844              2.161
 Vibration     6          0.654              1.790              1.854
 Vibration     7          0.680              1.709              1.529
 Vibration     8          0.693              1.672              1.412
 Vibration     9          0.712              1.616              1.262
 Vibration    10          0.733              1.558              1.129
 Vibration    11          0.769              1.462              0.948
 Vibration    12          0.808              1.362              0.797
 Vibration    13          0.860              1.240              0.646
 Vibration    14          0.967              1.014              0.435
 Vibration    15          0.972              1.005              0.428

 Optimization completed.
    -- Stationary point found.
 Normal termination of Gaussian 16 at Thu Aug  4 06:50:59 2022.
