 Gaussian 16, Revision A.03,
 Gaussian 16:  ES64L-G16RevA.03 25-Dec-2016

 -----------------------------
 # opt freq b3lyp/6-31g(2df,p)
 -----------------------------

 -------------------
 Title Card Required
 -------------------
 Symbolic Z-matrix:
 Charge =  0 Multiplicity = 1

 SCF Done:  E(RB3LYP) =  -270.191384948     A.U. after   16 cycles
 SCF Done:  E(RB3LYP) =  -270.228128606     A.U. after   13 cycles
 SCF Done:  E(RB3LYP) =  -270.231637189     A.U. after   13 cycles
 SCF Done:  E(RB3LYP) =  -270.223943578     A.U. after   16 cycles
 SCF Done:  E(RB3LYP) =  -270.230460482     A.U. after   13 cycles
 SCF Done:  E(RB3LYP) =  -270.231703975     A.U. after   10 cycles
 SCF Done:  E(RB3LYP) =  -270.231210178     A.U. after   12 cycles
 SCF Done:  E(RB3LYP) =  -270.231855719     A.U. after   11 cycles
 SCF Done:  E(RB3LYP) =  -270.231814044     A.U. after   11 cycles
 SCF Done:  E(RB3LYP) =  -270.231870683     A.U. after   11 cycles
 SCF Done:  E(RB3LYP) =  -270.231869964     A.U. after    9 cycles
 SCF Done:  E(RB3LYP) =  -270.231867982     A.U. after   11 cycles
 SCF Done:  E(RB3LYP) =  -270.231870648     A.U. after    9 cycles
 SCF Done:  E(RB3LYP) =  -270.231871496     A.U. after    9 cycles
 Optimization completed.
    -- Stationary point found.
 Normal termination of Gaussian 16 at Sun Jul  3 18:11:53 2022.

 ----------------------------------------------------------------------
 #N Geom=AllCheck Guess=TCheck SCRF=Check GenChk RB3LYP/6-31G(2df,p) Fr
 eq
 ----------------------------------------------------------------------

 Structure from the checkpoint file:  "CtCCtCCpdCpC.chk"
 -------------------
 Title Card Required
 -------------------
 Charge =  0 Multiplicity = 1

                         Standard orientation:
 ---------------------------------------------------------------------
 Center     Atomic      Atomic             Coordinates (Angstroms)
 Number     Number       Type             X           Y           Z
 ---------------------------------------------------------------------
      1          6           0       -3.679093   -0.054325   -0.000123
      2          6           0       -2.471322   -0.007606    0.000151
      3          6           0       -1.114673    0.041320    0.000102
      4          6           0        0.098322    0.105158    0.000059
      5          6           0        1.516797    0.112654   -0.000007
      6          6           0        2.198540    1.268480   -0.000045
      7          6           0        2.213662   -1.241391   -0.000032
      8          1           0       -4.740054   -0.090937   -0.000393
      9          1           0        1.693240    2.226338   -0.000026
     10          1           0        3.283611    1.276606   -0.000096
     11          1           0        1.491156   -2.058718   -0.000007
     12          1           0        2.849355   -1.349514    0.883997
     13          1           0        2.849293   -1.349513   -0.884104
 ---------------------------------------------------------------------

 SCF Done:  E(RB3LYP) =  -270.231871496     A.U. after    1 cycles

 The electronic state is 1-A.
 Alpha  occ. eigenvalues --  -10.22173 -10.20306 -10.20017 -10.19786 -10.19312
 Alpha  occ. eigenvalues --  -10.19151 -10.19122  -0.82814  -0.78631  -0.73125
 Alpha  occ. eigenvalues --   -0.69747  -0.63331  -0.57830  -0.51506  -0.48522
 Alpha  occ. eigenvalues --   -0.44709  -0.42654  -0.38943  -0.37410  -0.35363
 Alpha  occ. eigenvalues --   -0.34159  -0.29696  -0.24686  -0.22724
 Alpha virt. eigenvalues --   -0.04899  -0.01333   0.04890   0.10761   0.11742
 Alpha virt. eigenvalues --    0.13286   0.14342   0.16924   0.17239   0.18996
 Alpha virt. eigenvalues --    0.21014   0.21381   0.26807   0.29905   0.34084

 Mulliken charges:
               1
     1  C   -0.570053
     2  C    0.296502
     3  C   -0.260273
     4  C    0.393155
     5  C    0.129302
     6  C   -0.360841
     7  C   -0.481393
     8  H    0.192162
     9  H    0.122604
    10  H    0.117884
    11  H    0.139024
    12  H    0.140964
    13  H    0.140964
 Sum of Mulliken charges =  -0.00000

 Dipole moment (field-independent basis, Debye):
    X=              0.8722    Y=             -0.2500    Z=             -0.0003  Tot=              0.9073
 Quadrupole moment (field-independent basis, Debye-Ang):
   XX=            -29.2048   YY=            -39.8030   ZZ=            -42.5541
   XY=             -0.0149   XZ=              0.0015   YZ=              0.0000

  Exact polarizability: 158.530  13.003  57.618   0.003  -0.000  35.678
 Approx polarizability: 293.218  34.868  86.050   0.010  -0.000  52.911

 ******    1 imaginary frequencies (negative Signs) ******

                      1                      2                      3
                      A                      A                      A
 Frequencies --   -179.7346                90.6549               115.8585
 Red. masses --      1.0329                 3.7420                 4.3815
 Frc consts  --      0.0197                 0.0181                 0.0347
 IR Inten    --      0.0449                 1.4769                 2.8974

                      4                      5                      6
                      A                      A                      A
 Frequencies --    236.1795               312.3598               349.3713
 Red. masses --      4.5990                 4.7717                 2.5919
 Frc consts  --      0.1511                 0.2743                 0.1864
 IR Inten    --      1.8925                 0.0117                 1.1051

                      7                      8                      9
                      A                      A                      A
 Frequencies --    500.2841               511.9781               556.5836
 Red. masses --      8.1549                 4.7952                 2.1701
 Frc consts  --      1.2025                 0.7406                 0.3961
 IR Inten    --      5.7418                 2.7604                12.9376

                     10                     11                     12
                      A                      A                      A
 Frequencies --    559.4828               600.4633               603.4463
 Red. masses --      1.5610                 1.9759                 2.0762
 Frc consts  --      0.2879                 0.4197                 0.4454
 IR Inten    --     34.9060                26.5308                 6.6236

                     13                     14                     15
                      A                      A                      A
 Frequencies --    622.2748               741.0315               917.8204
 Red. masses --      3.7504                 1.2624                 2.5080
 Frc consts  --      0.8556                 0.4084                 1.2448
 IR Inten    --      1.0287                 0.0013                 0.7843

                     16                     17                     18
                      A                      A                      A
 Frequencies --    930.0264              1023.4136              1048.9521
 Red. masses --      1.3263                 1.3952                 1.4703
 Frc consts  --      0.6759                 0.8609                 0.9532
 IR Inten    --     28.7349                 0.4972                 2.7591

                     19                     20                     21
                      A                      A                      A
 Frequencies --   1098.0920              1323.0103              1401.8099
 Red. masses --      2.5829                 4.2236                 1.1938
 Frc consts  --      1.8350                 4.3557                 1.3821
 IR Inten    --      5.2615                19.3568                 0.5981

                     22                     23                     24
                      A                      A                      A
 Frequencies --   1442.3713              1487.5492              1491.7742
 Red. masses --      1.2464                 1.0654                 1.0435
 Frc consts  --      1.5278                 1.3891                 1.3683
 IR Inten    --      1.6450                 4.5661                 5.2260

                     25                     26                     27
                      A                      A                      A
 Frequencies --   1664.2974              2173.2838              2330.8750
 Red. masses --      4.6497                 6.8398                10.4507
 Frc consts  --      7.5881                19.0338                33.4529
 IR Inten    --      6.6540                 2.6020                 7.9614

                     28                     29                     30
                      A                      A                      A
 Frequencies --   3046.0967              3107.4807              3140.3250
 Red. masses --      1.0370                 1.1011                 1.1002
 Frc consts  --      5.6689                 6.2646                 6.3927
 IR Inten    --     16.5353                11.8577                 9.1351

                     31                     32                     33
                      A                      A                      A
 Frequencies --   3155.9746              3248.6847              3505.1716
 Red. masses --      1.0606                 1.1156                 1.1536
 Frc consts  --      6.2242                 6.9373                 8.3510
 IR Inten    --      2.9663                 5.1698               124.7870

 - Thermochemistry -
 -------------------
 Temperature   298.150 Kelvin.  Pressure   1.00000 Atm.
 Atom     1 has atomic number  6 and mass  12.00000

 Molecular mass:    90.04695 amu.
 Principal axes and moments of inertia in atomic units:
                           1         2         3
     Eigenvalues --   193.807191611.090461793.64650
           X            0.99998  -0.00619   0.00000
           Y            0.00619   0.99998   0.00000
           Z           -0.00000  -0.00000   1.00000
 This molecule is an asymmetric top.
 Rotational symmetry number  1.
 Rotational temperatures (Kelvin)      0.44691     0.05376     0.04829
 Rotational constants (GHZ):           9.31204     1.12020     1.00619
    1 imaginary frequencies ignored.
 Zero-point vibrational energy     259212.7 (Joules/Mol)
                                   61.95332 (Kcal/Mol)
 Warning -- explicit consideration of  11 degrees of freedom as
           vibrations may cause significant error
 Vibrational temperatures:    130.43   166.69   339.81   449.42   502.67
          (Kelvin)            719.80   736.62   800.80   804.97   863.93
                              868.22   895.31  1066.18  1320.54  1338.10
                             1472.46  1509.21  1579.91  1903.52  2016.89
                             2075.25  2140.25  2146.33  2394.55  3126.87
                             3353.61  4382.65  4470.97  4518.23  4540.74
                             4674.13  5043.16

 Zero-point correction=                           0.098729 (Hartree/Particle)
 Thermal correction to Energy=                    0.105888
 Thermal correction to Enthalpy=                  0.106833
 Thermal correction to Gibbs Free Energy=         0.067461
 Sum of electronic and zero-point Energies=           -270.133143
 Sum of electronic and thermal Energies=              -270.125983
 Sum of electronic and thermal Enthalpies=            -270.125039
 Sum of electronic and thermal Free Energies=         -270.164410

                     E (Thermal)             CV                S
                      KCal/Mol        Cal/Mol-Kelvin    Cal/Mol-Kelvin
 Total                   66.446             25.814             82.864
 Electronic               0.000              0.000              0.000
 Translational            0.889              2.981             39.405
 Rotational               0.889              2.981             27.818
 Vibrational             64.668             19.852             15.641
 Vibration     1          0.602              1.956              3.646
 Vibration     2          0.608              1.936              3.168
 Vibration     3          0.655              1.785              1.831
 Vibration     4          0.701              1.650              1.350
 Vibration     5          0.727              1.577              1.169
 Vibration     6          0.856              1.249              0.657
 Vibration     7          0.867              1.223              0.629
 Vibration     8          0.912              1.125              0.531
 Vibration     9          0.915              1.119              0.525
 Vibration    10          0.959              1.031              0.449
 Vibration    11          0.962              1.024              0.444

 Optimization completed.
    -- Stationary point found.
 Normal termination of Gaussian 16 at Sun Jul  3 18:21:44 2022.
