 Gaussian 16, Revision A.03,
 Gaussian 16:  ES64L-G16RevA.03 25-Dec-2016

 -----------------------------
 # opt freq b3lyp/6-31g(2df,p)
 -----------------------------

 -------------------
 Title Card Required
 -------------------
 Symbolic Z-matrix:
 Charge =  0 Multiplicity = 1

 SCF Done:  E(RB3LYP) =  -192.762273273     A.U. after   13 cycles
 SCF Done:  E(RB3LYP) =  -192.800678919     A.U. after   12 cycles
 SCF Done:  E(RB3LYP) =  -192.801181969     A.U. after   12 cycles
 SCF Done:  E(RB3LYP) =  -192.788765204     A.U. after   14 cycles
 SCF Done:  E(RB3LYP) =  -192.801237811     A.U. after   11 cycles
 SCF Done:  E(RB3LYP) =  -192.800912760     A.U. after   11 cycles
 SCF Done:  E(RB3LYP) =  -192.801168761     A.U. after   11 cycles
 SCF Done:  E(RB3LYP) =  -192.801309922     A.U. after    9 cycles
 SCF Done:  E(RB3LYP) =  -192.801372508     A.U. after   10 cycles
 SCF Done:  E(RB3LYP) =  -192.801372327     A.U. after    8 cycles
 SCF Done:  E(RB3LYP) =  -192.801372527     A.U. after    8 cycles
 SCF Done:  E(RB3LYP) =  -192.801372672     A.U. after    7 cycles
 Optimization completed.
    -- Stationary point found.
 Normal termination of Gaussian 16 at Thu Aug  4 14:40:06 2022.

 ----------------------------------------------------------------------
 #N Geom=AllCheck Guess=TCheck SCRF=Check GenChk RB3LYP/6-31G(2df,p) Fr
 eq
 ----------------------------------------------------------------------

 Structure from the checkpoint file:  "CtCCCtC.chk"
 -------------------
 Title Card Required
 -------------------
 Charge =  0 Multiplicity = 1

                         Standard orientation:
 ---------------------------------------------------------------------
 Center     Atomic      Atomic             Coordinates (Angstroms)
 Number     Number       Type             X           Y           Z
 ---------------------------------------------------------------------
      1          6           0        2.236040   -0.574014   -0.000094
      2          6           0        1.224665    0.072299    0.000759
      3          6           0       -0.000032    0.874099   -0.000081
      4          6           0       -1.224855    0.072506   -0.000331
      5          6           0       -2.235839   -0.574188   -0.000190
      6          1           0        3.127927   -1.150201   -0.001246
      7          1           0        0.000347    1.537850   -0.875510
      8          1           0       -0.000408    1.538490    0.874865
      9          1           0       -3.127738   -1.150343    0.001513
 ---------------------------------------------------------------------

 SCF Done:  E(RB3LYP) =  -192.801372672     A.U. after    1 cycles

 The electronic state is 1-A.
 Alpha  occ. eigenvalues --  -10.24040 -10.18985 -10.18982 -10.17760 -10.17757
 Alpha  occ. eigenvalues --   -0.81595  -0.74085  -0.70264  -0.54913  -0.52596
 Alpha  occ. eigenvalues --   -0.47531  -0.46927  -0.45886  -0.28251  -0.28160
 Alpha  occ. eigenvalues --   -0.26849  -0.26333
 Alpha virt. eigenvalues --    0.03451   0.04301   0.06349   0.07362   0.10703
 Alpha virt. eigenvalues --    0.12878   0.13232   0.18396   0.22699   0.27399
 Alpha virt. eigenvalues --    0.34992   0.37946   0.40386   0.40522   0.48936

 Mulliken charges:
               1
     1  C   -0.442521
     2  C    0.316522
     3  C   -0.481655
     4  C    0.316577
     5  C   -0.442535
     6  H    0.202463
     7  H    0.164368
     8  H    0.164339
     9  H    0.202442
 Sum of Mulliken charges =  -0.00000

 Dipole moment (field-independent basis, Debye):
    X=             -0.0001    Y=              0.4776    Z=              0.0001  Tot=              0.4776
 Quadrupole moment (field-independent basis, Debye-Ang):
   XX=            -23.7562   YY=            -26.2822   ZZ=            -29.7688
   XY=             -0.0003   XZ=             -0.0112   YZ=             -0.0007

  Exact polarizability:  68.209   0.001  40.244  -0.011   0.004  27.184
 Approx polarizability: 103.268   0.000  65.961  -0.023   0.015  39.404

                      1                      2                      3
                      A                      A                      A
 Frequencies --    137.3260               311.5711               330.2071
 Red. masses --      4.0826                 2.4306                 5.2750
 Frc consts  --      0.0454                 0.1390                 0.3389
 IR Inten    --      0.4986                 7.9289                 0.0014

                      4                      5                      6
                      A                      A                      A
 Frequencies --    338.7062               560.9625               625.3601
 Red. masses --      5.4347                 8.9807                 1.1920
 Frc consts  --      0.3673                 1.6651                 0.2746
 IR Inten    --      1.9739                 3.6472                 0.4287

                      7                      8                      9
                      A                      A                      A
 Frequencies --    626.0647               651.3549               653.8701
 Red. masses --      1.2108                 1.2263                 1.2316
 Frc consts  --      0.2796                 0.3065                 0.3102
 IR Inten    --     87.2821                26.2194                55.5593

                     10                     11                     12
                      A                      A                      A
 Frequencies --    904.0136               937.4100               998.5367
 Red. masses --      5.8078                 1.8401                 2.9596
 Frc consts  --      2.7965                 0.9527                 1.7387
 IR Inten    --      6.9859                 0.6844                 3.4104

                     13                     14                     15
                      A                      A                      A
 Frequencies --   1231.3212              1333.0699              1452.3257
 Red. masses --      1.0750                 1.4709                 1.0749
 Frc consts  --      0.9603                 1.5400                 1.3359
 IR Inten    --      0.0000                25.3080                 3.9779

                     16                     17                     18
                      A                      A                      A
 Frequencies --   2246.3169              2252.3610              3011.0760
 Red. masses --      5.9033                 5.8602                 1.0583
 Frc consts  --     17.5503                17.5162                 5.6530
 IR Inten    --      0.9206                 0.0029                 9.1858

                     19                     20                     21
                      A                      A                      A
 Frequencies --   3036.2465              3506.5232              3507.5748
 Red. masses --      1.0994                 1.1634                 1.1645
 Frc consts  --      5.9716                 8.4281                 8.4413
 IR Inten    --      2.8492                97.9185                31.0238

 - Thermochemistry -
 -------------------
 Temperature   298.150 Kelvin.  Pressure   1.00000 Atm.
 Atom     1 has atomic number  6 and mass  12.00000

 Molecular mass:    64.03130 amu.
 Principal axes and moments of inertia in atomic units:
                           1         2         3
     Eigenvalues --    93.47328 632.97398 715.42048
           X            1.00000   0.00000  -0.00005
           Y           -0.00000   1.00000  -0.00003
           Z            0.00005   0.00003   1.00000
 This molecule is an asymmetric top.
 Rotational symmetry number  1.
 Rotational temperatures (Kelvin)      0.92662     0.13684     0.12107
 Rotational constants (GHZ):          19.30756     2.85121     2.52263
 Zero-point vibrational energy     171378.2 (Joules/Mol)
                                   40.96037 (Kcal/Mol)
 Warning -- explicit consideration of   5 degrees of freedom as
           vibrations may cause significant error
 Vibrational temperatures:    197.58   448.28   475.09   487.32   807.10
          (Kelvin)            899.75   900.77   937.15   940.77  1300.67
                             1348.72  1436.67  1771.60  1917.99  2089.57
                             3231.95  3240.65  4332.27  4368.48  5045.10
                             5046.62

 Zero-point correction=                           0.065275 (Hartree/Particle)
 Thermal correction to Energy=                    0.070846
 Thermal correction to Enthalpy=                  0.071790
 Thermal correction to Gibbs Free Energy=         0.037195
 Sum of electronic and zero-point Energies=           -192.736098
 Sum of electronic and thermal Energies=              -192.730526
 Sum of electronic and thermal Enthalpies=            -192.729582
 Sum of electronic and thermal Free Energies=         -192.764178

                     E (Thermal)             CV                S
                      KCal/Mol        Cal/Mol-Kelvin    Cal/Mol-Kelvin
 Total                   44.457             19.399             72.812
 Electronic               0.000              0.000              0.000
 Translational            0.889              2.981             38.389
 Rotational               0.889              2.981             25.252
 Vibrational             42.679             13.438              9.171
 Vibration     1          0.614              1.916              2.841
 Vibration     2          0.700              1.652              1.354
 Vibration     3          0.713              1.615              1.259
 Vibration     4          0.719              1.598              1.218
 Vibration     5          0.917              1.116              0.522

 Optimization completed.
    -- Stationary point found.
 Normal termination of Gaussian 16 at Thu Aug  4 14:45:09 2022.
