 Gaussian 16, Revision A.03,
 Gaussian 16:  ES64L-G16RevA.03 25-Dec-2016

 -----------------------------
 # opt freq b3lyp/6-31g(2df,p)
 -----------------------------

 -------------------
 Title Card Required
 -------------------
 Symbolic Z-matrix:
 Charge =  0 Multiplicity = 1

 SCF Done:  E(RB3LYP) =  -416.721228583     A.U. after   16 cycles
 SCF Done:  E(RB3LYP) =  -416.743326311     A.U. after   15 cycles
 SCF Done:  E(RB3LYP) =  -416.744638874     A.U. after   17 cycles
 SCF Done:  E(RB3LYP) =  -416.742600152     A.U. after   15 cycles
 SCF Done:  E(RB3LYP) =  -416.740129305     A.U. after   16 cycles
 SCF Done:  E(RB3LYP) =  -416.737715532     A.U. after   15 cycles
 SCF Done:  E(RB3LYP) =  -416.744713420     A.U. after   12 cycles
 SCF Done:  E(RB3LYP) =  -416.745727705     A.U. after   15 cycles
 SCF Done:  E(RB3LYP) =  -416.743814314     A.U. after   18 cycles
 SCF Done:  E(RB3LYP) =  -416.746495879     A.U. after   15 cycles
 SCF Done:  E(RB3LYP) =  -416.746462080     A.U. after   16 cycles
 SCF Done:  E(RB3LYP) =  -416.746527164     A.U. after   14 cycles
 SCF Done:  E(RB3LYP) =  -416.746696229     A.U. after   13 cycles
 SCF Done:  E(RB3LYP) =  -416.746725023     A.U. after   13 cycles
 SCF Done:  E(RB3LYP) =  -416.746727897     A.U. after   12 cycles
 SCF Done:  E(RB3LYP) =  -416.746728799     A.U. after   10 cycles
 SCF Done:  E(RB3LYP) =  -416.746729012     A.U. after   10 cycles
 Optimization completed.
    -- Stationary point found.
 Normal termination of Gaussian 16 at Sun Jul  3 19:07:24 2022.

 ----------------------------------------------------------------------
 #N Geom=AllCheck Guess=TCheck SCRF=Check GenChk RB3LYP/6-31G(2df,p) Fr
 eq
 ----------------------------------------------------------------------

 Structure from the checkpoint file:  "CtCCNCCtCNdO.chk"
 -------------------
 Title Card Required
 -------------------
 Charge =  0 Multiplicity = 1

                         Standard orientation:
 ---------------------------------------------------------------------
 Center     Atomic      Atomic             Coordinates (Angstroms)
 Number     Number       Type             X           Y           Z
 ---------------------------------------------------------------------
      1          6           0        4.242546    1.312264    0.001310
      2          6           0        3.438622    0.420115    0.005424
      3          6           0        2.456103   -0.655722   -0.019348
      4          7           0        1.094488   -0.138314    0.141900
      5          6           0        0.089624   -1.183300   -0.025688
      6          6           0       -1.267016   -0.666864    0.006631
      7          6           0       -2.383710   -0.194757    0.004742
      8          7           0       -3.725073    0.065704    0.013423
      9          8           0       -4.072701    1.235787   -0.010344
     10          1           0        4.956158    2.098831    0.008356
     11          1           0        2.654075   -1.355036    0.804939
     12          1           0        2.585234   -1.239445   -0.951363
     13          1           0        0.931288    0.608554   -0.525112
     14          1           0        0.209107   -1.917427    0.784695
     15          1           0        0.202821   -1.763919   -0.964464
 ---------------------------------------------------------------------

 SCF Done:  E(RB3LYP) =  -416.746729012     A.U. after    1 cycles

 The electronic state is 1-A.
 Alpha  occ. eigenvalues --  -19.19846 -14.46130 -14.34417 -10.26258 -10.25032
 Alpha  occ. eigenvalues --  -10.23257 -10.22881 -10.19411 -10.18614  -1.15457
 Alpha  occ. eigenvalues --   -0.93930  -0.83375  -0.79375  -0.75184  -0.70516
 Alpha  occ. eigenvalues --   -0.67355  -0.56163  -0.53140  -0.52060  -0.49832
 Alpha  occ. eigenvalues --   -0.48848  -0.46430  -0.45640  -0.44973  -0.43862
 Alpha  occ. eigenvalues --   -0.41735  -0.30645  -0.30331  -0.28269  -0.27969
 Alpha  occ. eigenvalues --   -0.25235  -0.23481
 Alpha virt. eigenvalues --   -0.11227   0.00534   0.04417   0.04656   0.07412
 Alpha virt. eigenvalues --    0.08237   0.10631   0.11942   0.12604   0.15832
 Alpha virt. eigenvalues --    0.16271   0.17720   0.20862   0.22956   0.23857

 Mulliken charges:
               1
     1  C   -0.405180
     2  C    0.270342
     3  C   -0.279266
     4  N   -0.295064
     5  C   -0.299888
     6  C    0.380462
     7  C   -0.038881
     8  N   -0.109189
     9  O   -0.206242
    10  H    0.203676
    11  H    0.140872
    12  H    0.115389
    13  H    0.236696
    14  H    0.155339
    15  H    0.130933
 Sum of Mulliken charges =  -0.00000

 Dipole moment (field-independent basis, Debye):
    X=              3.4213    Y=             -1.8221    Z=             -0.9200  Tot=              3.9839
 Quadrupole moment (field-independent basis, Debye-Ang):
   XX=            -62.2186   YY=            -47.9662   ZZ=            -50.6576
   XY=              3.9098   XZ=             -0.6761   YZ=             -1.0248

  Exact polarizability: 130.999  -5.750  75.381  -0.151  -0.060  46.436
 Approx polarizability: 191.548 -25.400 134.212  -0.006  -0.563  70.990

                      1                      2                      3
                      A                      A                      A
 Frequencies --     49.0115                63.8572                80.9450
 Red. masses --      7.3168                 4.6410                 3.2150
 Frc consts  --      0.0104                 0.0112                 0.0124
 IR Inten    --      0.3744                 0.3370                 1.6094

                      4                      5                      6
                      A                      A                      A
 Frequencies --    113.3632               140.0695               190.1525
 Red. masses --      3.2696                 5.1054                 5.1626
 Frc consts  --      0.0248                 0.0590                 0.1100
 IR Inten    --      2.8531                 0.5988                 0.4846

                      7                      8                      9
                      A                      A                      A
 Frequencies --    229.8068               305.2873               338.6069
 Red. masses --      7.1382                 5.5370                 3.4084
 Frc consts  --      0.2221                 0.3040                 0.2302
 IR Inten    --      0.0607                 0.4532                 2.8552

                     10                     11                     12
                      A                      A                      A
 Frequencies --    391.9121               418.2820               555.3765
 Red. masses --      7.4231                 4.8618                 5.9397
 Frc consts  --      0.6718                 0.5012                 1.0794
 IR Inten    --      1.6792                 1.0697                 3.9890

                     13                     14                     15
                      A                      A                      A
 Frequencies --    619.7569               655.4574               670.6878
 Red. masses --      1.1960                 6.2710                 1.2561
 Frc consts  --      0.2707                 1.5874                 0.3329
 IR Inten    --     43.6184                 1.9641                35.2591

                     16                     17                     18
                      A                      A                      A
 Frequencies --    761.4142               804.5007               949.0265
 Red. masses --      1.3968                 5.6430                 1.6462
 Frc consts  --      0.4771                 2.1519                 0.8736
 IR Inten    --     70.3343                53.8383                 2.8686

                     19                     20                     21
                      A                      A                      A
 Frequencies --    971.6360              1010.3036              1101.7391
 Red. masses --      3.6989                 2.1685                 2.4430
 Frc consts  --      2.0574                 1.3041                 1.7471
 IR Inten    --      4.8431                 9.5447                 2.0865

                     22                     23                     24
                      A                      A                      A
 Frequencies --   1112.6391              1151.5355              1215.2328
 Red. masses --      5.2647                 3.8147                 1.0532
 Frc consts  --      3.8400                 2.9803                 0.9164
 IR Inten    --      8.6100                74.2214                 7.0457

                     25                     26                     27
                      A                      A                      A
 Frequencies --   1277.1265              1332.9213              1407.7509
 Red. masses --      1.1897                 1.2891                 1.5043
 Frc consts  --      1.1433                 1.3494                 1.7564
 IR Inten    --      6.1291               101.7095                24.0489

                     28                     29                     30
                      A                      A                      A
 Frequencies --   1469.5081              1485.9826              1499.7277
 Red. masses --      1.0761                 1.2030                 1.0828
 Frc consts  --      1.3691                 1.5651                 1.4349
 IR Inten    --     19.4215                65.7292                 2.8620

                     31                     32                     33
                      A                      A                      A
 Frequencies --   1544.9772              2247.1668              2271.8659
 Red. masses --     13.3767                 5.9015                11.9229
 Frc consts  --     18.8123                17.5585                36.2574
 IR Inten    --    197.6093                 0.4907               105.2428

                     34                     35                     36
                      A                      A                      A
 Frequencies --   2894.3110              2913.5357              3012.9551
 Red. masses --      1.0729                 1.0732                 1.0814
 Frc consts  --      5.2952                 5.3675                 5.7839
 IR Inten    --     46.3993                53.9228                 9.6663

                     37                     38                     39
                      A                      A                      A
 Frequencies --   3019.5941              3505.3942              3534.1258
 Red. masses --      1.0836                 1.1638                 1.0747
 Frc consts  --      5.8211                 8.4255                 7.9089
 IR Inten    --     17.3936                68.1026                 4.1042

 - Thermochemistry -
 -------------------
 Temperature   298.150 Kelvin.  Pressure   1.00000 Atm.
 Atom     1 has atomic number  6 and mass  12.00000

 Molecular mass:   122.04801 amu.
 Principal axes and moments of inertia in atomic units:
                           1         2         3
     Eigenvalues --   335.417273701.006134010.03701
           X            0.99999   0.00321  -0.00085
           Y           -0.00321   0.99999   0.00006
           Z            0.00085  -0.00005   1.00000
 This molecule is an asymmetric top.
 Rotational symmetry number  1.
 Rotational temperatures (Kelvin)      0.25823     0.02340     0.02160
 Rotational constants (GHZ):           5.38059     0.48764     0.45006
 Zero-point vibrational energy     283021.8 (Joules/Mol)
                                   67.64382 (Kcal/Mol)
 Warning -- explicit consideration of  13 degrees of freedom as
           vibrations may cause significant error
 Vibrational temperatures:     70.52    91.88   116.46   163.10   201.53
          (Kelvin)            273.59   330.64   439.24   487.18   563.87
                              601.81   799.06   891.69   943.06   964.97
                             1095.51  1157.50  1365.44  1397.97  1453.60
                             1585.16  1600.84  1656.80  1748.45  1837.50
                             1917.78  2025.44  2114.29  2138.00  2157.77
                             2222.88  3233.17  3268.71  4164.27  4191.93
                             4334.97  4344.52  5043.48  5084.82

 Zero-point correction=                           0.107797 (Hartree/Particle)
 Thermal correction to Energy=                    0.117919
 Thermal correction to Enthalpy=                  0.118863
 Thermal correction to Gibbs Free Energy=         0.071009
 Sum of electronic and zero-point Energies=           -416.638932
 Sum of electronic and thermal Energies=              -416.628810
 Sum of electronic and thermal Enthalpies=            -416.627866
 Sum of electronic and thermal Free Energies=         -416.675720

                     E (Thermal)             CV                S
                      KCal/Mol        Cal/Mol-Kelvin    Cal/Mol-Kelvin
 Total                   73.995             33.735            100.717
 Electronic               0.000              0.000              0.000
 Translational            0.889              2.981             40.312
 Rotational               0.889              2.981             29.988
 Vibrational             72.218             27.773             30.417
 Vibration     1          0.595              1.978              4.857
 Vibration     2          0.597              1.972              4.334
 Vibration     3          0.600              1.962              3.868
 Vibration     4          0.607              1.938              3.210
 Vibration     5          0.615              1.913              2.803
 Vibration     6          0.633              1.853              2.226
 Vibration     7          0.652              1.795              1.880
 Vibration     8          0.696              1.664              1.388
 Vibration     9          0.719              1.598              1.219
 Vibration    10          0.759              1.487              0.993
 Vibration    11          0.781              1.431              0.898
 Vibration    12          0.911              1.128              0.533
 Vibration    13          0.980              0.990              0.417

                           ! Non-Optimized Parameters !
 Normal termination of Gaussian 16 at Sun Jul  3 19:22:24 2022.
