 Gaussian 16, Revision A.03,
 Gaussian 16:  ES64L-G16RevA.03 25-Dec-2016

 -----------------------------
 # opt freq b3lyp/6-31g(2df,p)
 -----------------------------

 -------------------
 Title Card Required
 -------------------
 Symbolic Z-matrix:
 Charge =  0 Multiplicity = 1

 SCF Done:  E(RB3LYP) =  -403.253419025     A.U. after   14 cycles
 SCF Done:  E(RB3LYP) =  -403.274419354     A.U. after   12 cycles
 SCF Done:  E(RB3LYP) =  -403.275298165     A.U. after   12 cycles
 SCF Done:  E(RB3LYP) =  -403.269806332     A.U. after   14 cycles
 SCF Done:  E(RB3LYP) =  -403.275164736     A.U. after   11 cycles
 SCF Done:  E(RB3LYP) =  -403.275600420     A.U. after    8 cycles
 SCF Done:  E(RB3LYP) =  -403.274834572     A.U. after   11 cycles
 SCF Done:  E(RB3LYP) =  -403.275664546     A.U. after   10 cycles
 SCF Done:  E(RB3LYP) =  -403.275769144     A.U. after   10 cycles
 SCF Done:  E(RB3LYP) =  -403.275772215     A.U. after    8 cycles
 SCF Done:  E(RB3LYP) =  -403.276955895     A.U. after   10 cycles
 SCF Done:  E(RB3LYP) =  -403.277001680     A.U. after   10 cycles
 SCF Done:  E(RB3LYP) =  -403.277019340     A.U. after   10 cycles
 SCF Done:  E(RB3LYP) =  -403.277030117     A.U. after   10 cycles
 SCF Done:  E(RB3LYP) =  -403.277031611     A.U. after    9 cycles
 SCF Done:  E(RB3LYP) =  -403.277035496     A.U. after   10 cycles
 SCF Done:  E(RB3LYP) =  -403.277037864     A.U. after   10 cycles
 SCF Done:  E(RB3LYP) =  -403.277038412     A.U. after    9 cycles
 SCF Done:  E(RB3LYP) =  -403.277038520     A.U. after    8 cycles
 Optimization completed.
    -- Stationary point found.
 Normal termination of Gaussian 16 at Thu Aug  4 13:15:26 2022.

 ----------------------------------------------------------------------
 #N Geom=AllCheck Guess=TCheck SCRF=Check GenChk RB3LYP/6-31G(2df,p) Fr
 eq
 ----------------------------------------------------------------------

 Structure from the checkpoint file:  "CtCC1CCpCOpCN1.chk"
 -------------------
 Title Card Required
 -------------------
 Charge =  0 Multiplicity = 1

                         Standard orientation:
 ---------------------------------------------------------------------
 Center     Atomic      Atomic             Coordinates (Angstroms)
 Number     Number       Type             X           Y           Z
 ---------------------------------------------------------------------
      1          6           0        3.814199   -0.408945    0.200802
      2          6           0        2.675478   -0.196392   -0.119788
      3          6           0        1.284712    0.042572   -0.476269
      4          6           0        0.290980   -1.020161    0.105020
      5          6           0       -0.994669   -0.213970    0.431030
      6          6           0       -2.251396   -0.776887   -0.231028
      7          8           0       -3.397693    0.032753   -0.012990
      8          6           0       -0.655992    1.232627   -0.025487
      9          7           0        0.804762    1.364231   -0.026600
     10          1           0        4.824768   -0.590695    0.471517
     11          1           0        1.197038    0.029883   -1.571752
     12          1           0        0.714553   -1.479043    1.000926
     13          1           0        0.109479   -1.822886   -0.616871
     14          1           0       -1.151470   -0.215750    1.518084
     15          1           0       -2.425336   -1.813844    0.096947
     16          1           0       -2.113250   -0.802157   -1.318985
     17          1           0       -3.587616    0.025333    0.930723
     18          1           0       -1.109612    2.004975    0.598182
     19          1           0       -1.023538    1.387655   -1.048640
     20          1           0        1.133320    1.511823    0.924319
 ---------------------------------------------------------------------

 SCF Done:  E(RB3LYP) =  -403.277038520     A.U. after    1 cycles

 The electronic state is 1-A.
 Alpha  occ. eigenvalues --  -19.13745 -14.31623 -10.23276 -10.22868 -10.20285
 Alpha  occ. eigenvalues --  -10.18938 -10.18809 -10.18198 -10.17476  -1.01808
 Alpha  occ. eigenvalues --   -0.92301  -0.77937  -0.77008  -0.71232  -0.66440
 Alpha  occ. eigenvalues --   -0.61865  -0.57869  -0.54171  -0.50498  -0.50155
 Alpha  occ. eigenvalues --   -0.46386  -0.45355  -0.43732  -0.41676  -0.39450
 Alpha  occ. eigenvalues --   -0.37980  -0.36356  -0.34938  -0.34026  -0.31702
 Alpha  occ. eigenvalues --   -0.27588  -0.27068  -0.26181  -0.23074
 Alpha virt. eigenvalues --    0.04120   0.05341   0.06696   0.09012   0.10272
 Alpha virt. eigenvalues --    0.12354   0.12719   0.14048   0.14882   0.16297
 Alpha virt. eigenvalues --    0.17548   0.18256   0.18829   0.18988   0.21010

 Mulliken charges:
               1
     1  C   -0.435176
     2  C    0.285354
     3  C   -0.111466
     4  C   -0.262838
     5  C   -0.008498
     6  C   -0.075428
     7  O   -0.417852
     8  C   -0.173597
     9  N   -0.299213
    10  H    0.195992
    11  H    0.110762
    12  H    0.111417
    13  H    0.105433
    14  H    0.061056
    15  H    0.090217
    16  H    0.108580
    17  H    0.281191
    18  H    0.104985
    19  H    0.110439
    20  H    0.218641
 Sum of Mulliken charges =  -0.00000

 Dipole moment (field-independent basis, Debye):
    X=             -0.1210    Y=             -1.3179    Z=              1.9241  Tot=              2.3353
 Quadrupole moment (field-independent basis, Debye-Ang):
   XX=            -55.6729   YY=            -56.4627   ZZ=            -50.7886
   XY=             -0.7602   XZ=             -2.5798   YZ=              2.0985

  Exact polarizability: 110.516  -5.541  68.711   3.473   0.994  64.812
 Approx polarizability: 146.791 -10.690 100.320   9.919   0.610 103.519

                      1                      2                      3
                      A                      A                      A
 Frequencies --     14.5966               110.8219               143.6231
 Red. masses --      3.6650                 3.8538                 2.5562
 Frc consts  --      0.0005                 0.0279                 0.0311
 IR Inten    --      0.6325                 0.5935                 0.8159

                      4                      5                      6
                      A                      A                      A
 Frequencies --    154.4227               221.0231               277.5919
 Red. masses --      3.2880                 3.3228                 2.4199
 Frc consts  --      0.0462                 0.0956                 0.1099
 IR Inten    --      1.4171                 2.4735                 7.2788

                      7                      8                      9
                      A                      A                      A
 Frequencies --    298.9032               360.9986               437.1777
 Red. masses --      1.2167                 3.5811                 2.2283
 Frc consts  --      0.0640                 0.2750                 0.2509
 IR Inten    --    109.4142                 0.7280                15.3403

                     10                     11                     12
                      A                      A                      A
 Frequencies --    518.1835               531.9409               589.1571
 Red. masses --      5.6482                 4.1636                 2.6361
 Frc consts  --      0.8936                 0.6941                 0.5391
 IR Inten    --      1.5309                 2.4624                 2.1267

                     13                     14                     15
                      A                      A                      A
 Frequencies --    619.7327               647.0451               654.2590
 Red. masses --      1.2615                 3.1854                 1.2359
 Frc consts  --      0.2855                 0.7858                 0.3117
 IR Inten    --     40.5582                 4.5209                37.2718

                     16                     17                     18
                      A                      A                      A
 Frequencies --    811.3938               830.5107               864.8767
 Red. masses --      2.1546                 2.5868                 1.8910
 Frc consts  --      0.8358                 1.0512                 0.8334
 IR Inten    --     62.2754                 4.6430                37.8701

                     19                     20                     21
                      A                      A                      A
 Frequencies --    908.7244               945.4803              1002.7039
 Red. masses --      1.5593                 2.4278                 1.7600
 Frc consts  --      0.7586                 1.2787                 1.0426
 IR Inten    --     19.5769                35.0285                 1.7185

                     22                     23                     24
                      A                      A                      A
 Frequencies --   1029.1665              1046.3935              1073.9580
 Red. masses --      3.5402                 2.3898                 3.1344
 Frc consts  --      2.2093                 1.5417                 2.1300
 IR Inten    --     13.7625                52.3947                 5.0425

                     25                     26                     27
                      A                      A                      A
 Frequencies --   1082.3214              1108.1306              1121.7898
 Red. masses --      2.6901                 2.8075                 2.5663
 Frc consts  --      1.8567                 2.0312                 1.9028
 IR Inten    --      5.6334                32.2654                20.1083

                     28                     29                     30
                      A                      A                      A
 Frequencies --   1153.7299              1220.2291              1257.1163
 Red. masses --      1.2031                 1.3476                 1.4222
 Frc consts  --      0.9436                 1.1822                 1.3242
 IR Inten    --     41.8390                 0.1927                 6.0173

                     31                     32                     33
                      A                      A                      A
 Frequencies --   1289.4560              1309.3396              1320.2758
 Red. masses --      1.3370                 1.1989                 1.2273
 Frc consts  --      1.3098                 1.2110                 1.2605
 IR Inten    --      0.8009                 4.1241                 4.2867

                     34                     35                     36
                      A                      A                      A
 Frequencies --   1339.7630              1360.9564              1376.3888
 Red. masses --      1.2102                 1.4290                 1.3168
 Frc consts  --      1.2799                 1.5594                 1.4698
 IR Inten    --     11.3206                 3.4268                 0.3856

                     37                     38                     39
                      A                      A                      A
 Frequencies --   1393.1754              1414.7660              1464.4952
 Red. masses --      1.3727                 1.2459                 1.1697
 Frc consts  --      1.5698                 1.4693                 1.4781
 IR Inten    --      3.6150                55.3041                20.3561

                     40                     41                     42
                      A                      A                      A
 Frequencies --   1490.5522              1496.3302              1507.5283
 Red. masses --      1.0875                 1.0878                 1.0931
 Frc consts  --      1.4235                 1.4350                 1.4636
 IR Inten    --      1.8179                 0.8294                 1.1174

                     43                     44                     45
                      A                      A                      A
 Frequencies --   2240.3142              2978.5585              3000.8148
 Red. masses --      5.9459                 1.0688                 1.0822
 Frc consts  --     17.5826                 5.5869                 5.7416
 IR Inten    --      1.1101                56.1956                21.7437

                     46                     47                     48
                      A                      A                      A
 Frequencies --   3004.2447              3023.0698              3054.8401
 Red. masses --      1.0821                 1.0707                 1.0683
 Frc consts  --      5.7542                 5.7650                 5.8737
 IR Inten    --     10.9083                35.5325                30.6665

                     49                     50                     51
                      A                      A                      A
 Frequencies --   3056.5270              3106.5712              3112.4756
 Red. masses --      1.0893                 1.1028                 1.0959
 Frc consts  --      5.9958                 6.2708                 6.2549
 IR Inten    --     36.6237                18.3082                28.5537

                     52                     53                     54
                      A                      A                      A
 Frequencies --   3496.8907              3504.7588              3812.6585
 Red. masses --      1.0742                 1.1622                 1.0661
 Frc consts  --      7.7392                 8.4108                 9.1306
 IR Inten    --      0.0782                71.0127                18.2511

 - Thermochemistry -
 -------------------
 Temperature   298.150 Kelvin.  Pressure   1.00000 Atm.
 Atom     1 has atomic number  6 and mass  12.00000

 Molecular mass:   125.08406 amu.
 Principal axes and moments of inertia in atomic units:
                           1         2         3
     Eigenvalues --   368.035512229.478192470.57568
           X            1.00000   0.00056  -0.00010
           Y           -0.00056   0.99989   0.01506
           Z            0.00011  -0.01506   0.99989
 This molecule is an asymmetric top.
 Rotational symmetry number  1.
 Rotational temperatures (Kelvin)      0.23534     0.03885     0.03506
 Rotational constants (GHZ):           4.90371     0.80949     0.73049
 Zero-point vibrational energy     449740.6 (Joules/Mol)
                                  107.49058 (Kcal/Mol)
 Warning -- explicit consideration of  13 degrees of freedom as
           vibrations may cause significant error
 Vibrational temperatures:     21.00   159.45   206.64   222.18   318.00
          (Kelvin)            399.39   430.06   519.40   629.00   745.55
                              765.34   847.67   891.66   930.95   941.33
                             1167.41  1194.92  1244.36  1307.45  1360.34
                             1442.67  1480.74  1505.53  1545.19  1557.22
                             1594.35  1614.01  1659.96  1755.64  1808.71
                             1855.24  1883.85  1899.58  1927.62  1958.11
                             1980.32  2004.47  2035.53  2107.08  2144.57
                             2152.89  2169.00  3223.31  4285.48  4317.50
                             4322.44  4349.52  4395.23  4397.66  4469.66
                             4478.16  5031.25  5042.57  5485.57

 Zero-point correction=                           0.171297 (Hartree/Particle)
 Thermal correction to Energy=                    0.180714
 Thermal correction to Enthalpy=                  0.181659
 Thermal correction to Gibbs Free Energy=         0.135705
 Sum of electronic and zero-point Energies=           -403.105741
 Sum of electronic and thermal Energies=              -403.096324
 Sum of electronic and thermal Enthalpies=            -403.095380
 Sum of electronic and thermal Free Energies=         -403.141333

                     E (Thermal)             CV                S
                      KCal/Mol        Cal/Mol-Kelvin    Cal/Mol-Kelvin
 Total                  113.400             34.947             96.717
 Electronic               0.000              0.000              0.000
 Translational            0.889              2.981             40.385
 Rotational               0.889              2.981             29.096
 Vibrational            111.622             28.985             27.236
 Vibration     1          0.593              1.986              7.260
 Vibration     2          0.607              1.941              3.254
 Vibration     3          0.616              1.910              2.755
 Vibration     4          0.620              1.898              2.617
 Vibration     5          0.648              1.809              1.951
 Vibration     6          0.679              1.715              1.548
 Vibration     7          0.692              1.676              1.423
 Vibration     8          0.735              1.553              1.118
 Vibration     9          0.797              1.389              0.836
 Vibration    10          0.873              1.210              0.614
 Vibration    11          0.887              1.179              0.583
 Vibration    12          0.946              1.055              0.469
 Vibration    13          0.980              0.990              0.417

                           ! Non-Optimized Parameters !
 Normal termination of Gaussian 16 at Thu Aug  4 13:46:05 2022.
