 Gaussian 16, Revision A.03,
 Gaussian 16:  ES64L-G16RevA.03 25-Dec-2016

 -----------------------------
 # opt freq b3lyp/6-31g(2df,p)
 -----------------------------

 -------------------
 Title Card Required
 -------------------
 Symbolic Z-matrix:
 Charge =  0 Multiplicity = 1

 SCF Done:  E(RB3LYP) =  -381.344128124     A.U. after   15 cycles
 SCF Done:  E(RB3LYP) =  -381.367561310     A.U. after   14 cycles
 SCF Done:  E(RB3LYP) =  -381.363460022     A.U. after   16 cycles
 SCF Done:  E(RB3LYP) =  -381.367007035     A.U. after   15 cycles
 SCF Done:  E(RB3LYP) =  -381.369315786     A.U. after   12 cycles
 SCF Done:  E(RB3LYP) =  -381.370083925     A.U. after   14 cycles
 SCF Done:  E(RB3LYP) =  -381.368396744     A.U. after   16 cycles
 SCF Done:  E(RB3LYP) =  -381.371164152     A.U. after   13 cycles
 SCF Done:  E(RB3LYP) =  -381.371441580     A.U. after   13 cycles
 SCF Done:  E(RB3LYP) =  -381.371665240     A.U. after   12 cycles
 SCF Done:  E(RB3LYP) =  -381.372136849     A.U. after   13 cycles
 SCF Done:  E(RB3LYP) =  -381.372300209     A.U. after   12 cycles
 SCF Done:  E(RB3LYP) =  -381.372009577     A.U. after   13 cycles
 SCF Done:  E(RB3LYP) =  -381.372499375     A.U. after   12 cycles
 SCF Done:  E(RB3LYP) =  -381.372517894     A.U. after   12 cycles
 SCF Done:  E(RB3LYP) =  -381.372523290     A.U. after   11 cycles
 SCF Done:  E(RB3LYP) =  -381.372524688     A.U. after    9 cycles
 Optimization completed.
    -- Stationary point found.
 Normal termination of Gaussian 16 at Thu Aug  4 00:14:43 2022.

 ----------------------------------------------------------------------
 #N Geom=AllCheck Guess=TCheck SCRF=Check GenChk RB3LYP/6-31G(2df,p) Fr
 eq
 ----------------------------------------------------------------------

 Structure from the checkpoint file:  "CtCCtCCpdOpCO.chk"
 -------------------
 Title Card Required
 -------------------
 Charge =  0 Multiplicity = 1

                         Standard orientation:
 ---------------------------------------------------------------------
 Center     Atomic      Atomic             Coordinates (Angstroms)
 Number     Number       Type             X           Y           Z
 ---------------------------------------------------------------------
      1          6           0        4.189814   -0.253258    0.000030
      2          6           0        2.991668   -0.102195    0.000056
      3          6           0        1.645256    0.065158    0.000079
      4          6           0        0.442342    0.223444   -0.000095
      5          6           0       -0.988624    0.371716   -0.000197
      6          8           0       -1.543991    1.454678    0.000062
      7          6           0       -1.813478   -0.908026   -0.000098
      8          8           0       -3.176874   -0.622408    0.000238
      9          1           0        5.244547   -0.382423   -0.000049
     10          1           0       -1.520395   -1.501806    0.881620
     11          1           0       -1.520835   -1.501440   -0.882270
     12          1           0       -3.238260    0.346472   -0.000353
 ---------------------------------------------------------------------

 SCF Done:  E(RB3LYP) =  -381.372524688     A.U. after    1 cycles

 The electronic state is 1-A.
 Alpha  occ. eigenvalues --  -19.16315 -19.13958 -10.30822 -10.24898 -10.24170
 Alpha  occ. eigenvalues --  -10.23195 -10.22722 -10.22556  -1.07672  -1.02240
 Alpha  occ. eigenvalues --   -0.83008  -0.78369  -0.73810  -0.66342  -0.61003
 Alpha  occ. eigenvalues --   -0.54737  -0.53877  -0.48901  -0.48310  -0.43806
 Alpha  occ. eigenvalues --   -0.40438  -0.38087  -0.36998  -0.35699  -0.29114
 Alpha  occ. eigenvalues --   -0.28747  -0.27792  -0.27413
 Alpha virt. eigenvalues --   -0.09236  -0.04582   0.01678   0.09579   0.10239
 Alpha virt. eigenvalues --    0.11338   0.14087   0.14466   0.19490   0.20204
 Alpha virt. eigenvalues --    0.21118   0.26154   0.28438   0.31738   0.33248

 Mulliken charges:
               1
     1  C   -0.539518
     2  C    0.295428
     3  C   -0.136614
     4  C    0.361155
     5  C    0.113077
     6  O   -0.302169
     7  C   -0.138004
     8  O   -0.417557
     9  H    0.210825
    10  H    0.127914
    11  H    0.127858
    12  H    0.297606
 Sum of Mulliken charges =  -0.00000

 Dipole moment (field-independent basis, Debye):
    X=              3.4673    Y=             -1.2683    Z=             -0.0014  Tot=              3.6920
 Quadrupole moment (field-independent basis, Debye-Ang):
   XX=            -36.9708   YY=            -47.6260   ZZ=            -44.1830
   XY=             -2.4001   XZ=              0.0041   YZ=             -0.0007

  Exact polarizability: 148.098 -10.124  48.600   0.003   0.001  35.175
 Approx polarizability: 270.234 -34.963  81.058   0.007   0.002  52.190

                      1                      2                      3
                      A                      A                      A
 Frequencies --     68.8907                75.0793               140.1084
 Red. masses --      6.2009                 4.0464                 3.6630
 Frc consts  --      0.0173                 0.0134                 0.0424
 IR Inten    --      0.1471                 1.6687                 8.0463

                      4                      5                      6
                      A                      A                      A
 Frequencies --    209.9896               290.1129               311.8105
 Red. masses --      5.5404                 4.2213                 6.8867
 Frc consts  --      0.1439                 0.2093                 0.3945
 IR Inten    --      2.1507                 0.4862                30.8446

                      7                      8                      9
                      A                      A                      A
 Frequencies --    391.0719               411.3683               488.8576
 Red. masses --      1.2060                 7.4481                10.6674
 Frc consts  --      0.1087                 0.7426                 1.5020
 IR Inten    --     53.1467                 2.0316                 2.9929

                     10                     11                     12
                      A                      A                      A
 Frequencies --    535.2055               549.5908               581.6789
 Red. masses --      3.4055                 5.6242                 4.7411
 Frc consts  --      0.5747                 1.0009                 0.9451
 IR Inten    --     14.9241                 2.2927                 3.2375

                     13                     14                     15
                      A                      A                      A
 Frequencies --    604.4488               643.9142               796.9613
 Red. masses --      1.3626                 1.2682                 5.2930
 Frc consts  --      0.2933                 0.3098                 1.9807
 IR Inten    --     38.6019                39.4594                 2.3045

                     16                     17                     18
                      A                      A                      A
 Frequencies --    962.1326              1007.4927              1135.8647
 Red. masses --      7.3337                 2.2075                 4.5799
 Frc consts  --      3.9999                 1.3202                 3.4815
 IR Inten    --    134.5365                 0.5659               152.5633

                     19                     20                     21
                      A                      A                      A
 Frequencies --   1219.7677              1237.0704              1310.5633
 Red. masses --      3.5536                 1.0803                 1.5965
 Frc consts  --      3.1151                 0.9741                 1.6156
 IR Inten    --     88.1323                 0.9286               140.7872

                     22                     23                     24
                      A                      A                      A
 Frequencies --   1445.1700              1486.0961              1740.2188
 Red. masses --      1.3268                 1.0874                11.1700
 Frc consts  --      1.6326                 1.4149                19.9302
 IR Inten    --    110.7043                23.3702               205.4748

                     25                     26                     27
                      A                      A                      A
 Frequencies --   2174.8562              2333.5630              2974.0175
 Red. masses --      6.8384                10.2560                 1.0567
 Frc consts  --     19.0575                32.9053                 5.5067
 IR Inten    --     19.0156               129.9616                34.3584

                     28                     29                     30
                      A                      A                      A
 Frequencies --   2991.2604              3498.2904              3684.0942
 Red. masses --      1.1015                 1.1560                 1.0646
 Frc consts  --      5.8068                 8.3351                 8.5130
 IR Inten    --     21.8994               113.1947                61.3718

 - Thermochemistry -
 -------------------
 Temperature   298.150 Kelvin.  Pressure   1.00000 Atm.
 Atom     1 has atomic number  6 and mass  12.00000

 Molecular mass:   108.02113 amu.
 Principal axes and moments of inertia in atomic units:
                           1         2         3
     Eigenvalues --   212.242362314.582642515.62736
           X            1.00000   0.00247   0.00000
           Y           -0.00247   1.00000   0.00001
           Z           -0.00000  -0.00001   1.00000
 This molecule is an asymmetric top.
 Rotational symmetry number  1.
 Rotational temperatures (Kelvin)      0.40809     0.03742     0.03443
 Rotational constants (GHZ):           8.50321     0.77973     0.71741
 Zero-point vibrational energy     211138.2 (Joules/Mol)
                                   50.46324 (Kcal/Mol)
 Warning -- explicit consideration of  13 degrees of freedom as
           vibrations may cause significant error
 Vibrational temperatures:     99.12   108.02   201.58   302.13   417.41
          (Kelvin)            448.63   562.67   591.87   703.36   770.04
                              790.74   836.91   869.67   926.45  1146.65
                             1384.29  1449.56  1634.26  1754.97  1779.87
                             1885.61  2079.28  2138.16  2503.79  3129.13
                             3357.48  4278.95  4303.76  5033.26  5300.59

 Zero-point correction=                           0.080418 (Hartree/Particle)
 Thermal correction to Energy=                    0.088812
 Thermal correction to Enthalpy=                  0.089756
 Thermal correction to Gibbs Free Energy=         0.046970
 Sum of electronic and zero-point Energies=           -381.292106
 Sum of electronic and thermal Energies=              -381.283713
 Sum of electronic and thermal Enthalpies=            -381.282769
 Sum of electronic and thermal Free Energies=         -381.325554

                     E (Thermal)             CV                S
                      KCal/Mol        Cal/Mol-Kelvin    Cal/Mol-Kelvin
 Total                   55.730             28.958             90.049
 Electronic               0.000              0.000              0.000
 Translational            0.889              2.981             39.948
 Rotational               0.889              2.981             28.604
 Vibrational             53.953             22.996             21.498
 Vibration     1          0.598              1.969              4.185
 Vibration     2          0.599              1.966              4.016
 Vibration     3          0.615              1.913              2.802
 Vibration     4          0.642              1.826              2.044
 Vibration     5          0.686              1.692              1.473
 Vibration     6          0.700              1.651              1.353
 Vibration     7          0.759              1.489              0.996
 Vibration     8          0.775              1.446              0.922
 Vibration     9          0.845              1.275              0.687
 Vibration    10          0.890              1.172              0.576
 Vibration    11          0.905              1.141              0.545
 Vibration    12          0.938              1.071              0.482
 Vibration    13          0.963              1.022              0.442

 Optimization completed.
    -- Stationary point found.
 Normal termination of Gaussian 16 at Thu Aug  4 00:27:16 2022.
