 Gaussian 16, Revision A.03,
 Gaussian 16:  ES64L-G16RevA.03 25-Dec-2016

 -----------------------------
 # opt freq b3lyp/6-31g(2df,p)
 -----------------------------

 -------------------
 Title Card Required
 -------------------
 Symbolic Z-matrix:
 Charge =  0 Multiplicity = 1

 SCF Done:  E(RB3LYP) =  -403.251345475     A.U. after   15 cycles
 SCF Done:  E(RB3LYP) =  -403.272367803     A.U. after   13 cycles
 SCF Done:  E(RB3LYP) =  -403.273363838     A.U. after   13 cycles
 SCF Done:  E(RB3LYP) =  -403.265635142     A.U. after   15 cycles
 SCF Done:  E(RB3LYP) =  -403.273811658     A.U. after   12 cycles
 SCF Done:  E(RB3LYP) =  -403.273310366     A.U. after   13 cycles
 SCF Done:  E(RB3LYP) =  -403.274141086     A.U. after   12 cycles
 SCF Done:  E(RB3LYP) =  -403.274889141     A.U. after   13 cycles
 SCF Done:  E(RB3LYP) =  -403.274993765     A.U. after   13 cycles
 SCF Done:  E(RB3LYP) =  -403.275713728     A.U. after   13 cycles
 SCF Done:  E(RB3LYP) =  -403.275729255     A.U. after   13 cycles
 SCF Done:  E(RB3LYP) =  -403.276558243     A.U. after   13 cycles
 SCF Done:  E(RB3LYP) =  -403.276536233     A.U. after   13 cycles
 SCF Done:  E(RB3LYP) =  -403.276719693     A.U. after   13 cycles
 SCF Done:  E(RB3LYP) =  -403.276736785     A.U. after   10 cycles
 SCF Done:  E(RB3LYP) =  -403.276739525     A.U. after    9 cycles
 SCF Done:  E(RB3LYP) =  -403.276739773     A.U. after    7 cycles
 SCF Done:  E(RB3LYP) =  -403.276739824     A.U. after    7 cycles
 Optimization completed.
    -- Stationary point found.
 Normal termination of Gaussian 16 at Sun Jul  3 21:41:34 2022.

 ----------------------------------------------------------------------
 #N Geom=AllCheck Guess=TCheck SCRF=Check GenChk RB3LYP/6-31G(2df,p) Fr
 eq
 ----------------------------------------------------------------------

 Structure from the checkpoint file:  "CtCCNCCpCpCdO.chk"
 -------------------
 Title Card Required
 -------------------
 Charge =  0 Multiplicity = 1

                         Standard orientation:
 ---------------------------------------------------------------------
 Center     Atomic      Atomic             Coordinates (Angstroms)
 Number     Number       Type             X           Y           Z
 ---------------------------------------------------------------------
      1          6           0       -4.415515    0.502581   -0.179330
      2          6           0       -3.386062   -0.082247    0.023704
      3          6           0       -2.129408   -0.771633    0.293937
      4          7           0       -0.981668   -0.014008   -0.211920
      5          6           0        0.292406   -0.604886    0.176421
      6          6           0        1.479894    0.184843   -0.403106
      7          6           0        1.653285    1.580254    0.197369
      8          6           0        2.741938   -0.648770   -0.275633
      9          8           0        3.780843   -0.267654    0.198014
     10          1           0       -5.328918    1.010949   -0.366087
     11          1           0       -2.135002   -1.752832   -0.200376
     12          1           0       -2.062642   -0.979274    1.379245
     13          1           0       -1.045588    0.936670    0.136592
     14          1           0        0.314297   -1.630191   -0.218224
     15          1           0        0.413752   -0.691250    1.274025
     16          1           0        1.289738    0.264004   -1.485488
     17          1           0        1.753973    1.526147    1.286047
     18          1           0        0.803969    2.226149   -0.042609
     19          1           0        2.558466    2.054129   -0.188831
     20          1           0        2.643668   -1.686077   -0.675136
 ---------------------------------------------------------------------

 SCF Done:  E(RB3LYP) =  -403.276739824     A.U. after    1 cycles

 The electronic state is 1-A.
 Alpha  occ. eigenvalues --  -19.14362 -14.32914 -10.27268 -10.23905 -10.22372
 Alpha  occ. eigenvalues --  -10.20406 -10.18724 -10.18280 -10.17887  -1.05036
 Alpha  occ. eigenvalues --   -0.92256  -0.80838  -0.76080  -0.70124  -0.67897
 Alpha  occ. eigenvalues --   -0.62881  -0.55799  -0.53798  -0.50819  -0.49690
 Alpha  occ. eigenvalues --   -0.47218  -0.45415  -0.44281  -0.42950  -0.41025
 Alpha  occ. eigenvalues --   -0.40563  -0.38526  -0.37449  -0.35270  -0.34447
 Alpha  occ. eigenvalues --   -0.27781  -0.27263  -0.25463  -0.23863
 Alpha virt. eigenvalues --   -0.02437   0.03738   0.05265   0.08510   0.09855
 Alpha virt. eigenvalues --    0.10810   0.12339   0.13065   0.13872   0.15189
 Alpha virt. eigenvalues --    0.15449   0.17456   0.19519   0.19645   0.20609

 Mulliken charges:
               1
     1  C   -0.416484
     2  C    0.272073
     3  C   -0.278971
     4  N   -0.303281
     5  C   -0.133761
     6  C   -0.085380
     7  C   -0.401084
     8  C    0.148993
     9  O   -0.238914
    10  H    0.199437
    11  H    0.136332
    12  H    0.112887
    13  H    0.227075
    14  H    0.103998
    15  H    0.090022
    16  H    0.112427
    17  H    0.126398
    18  H    0.115835
    19  H    0.137838
    20  H    0.074558
 Sum of Mulliken charges =  -0.00000

 Dipole moment (field-independent basis, Debye):
    X=             -1.9266    Y=             -0.2220    Z=              0.0458  Tot=              1.9399
 Quadrupole moment (field-independent basis, Debye-Ang):
   XX=            -65.2842   YY=            -50.9169   ZZ=            -54.7906
   XY=             -2.0028   XZ=             -3.2471   YZ=              0.1987

  Exact polarizability: 114.307  -7.969  75.173   4.665   0.082  60.500
 Approx polarizability: 149.845 -14.924 111.424  12.577  -1.083  95.142

                      1                      2                      3
                      A                      A                      A
 Frequencies --     40.2326                68.0599                86.1718
 Red. masses --      4.2186                 5.1601                 2.6020
 Frc consts  --      0.0040                 0.0141                 0.0114
 IR Inten    --      1.3898                 3.3499                 3.3924

                      4                      5                      6
                      A                      A                      A
 Frequencies --    110.8209               125.4356               187.4336
 Red. masses --      3.1701                 2.1792                 1.3975
 Frc consts  --      0.0229                 0.0202                 0.0289
 IR Inten    --      1.9562                 2.8786                 1.9231

                      7                      8                      9
                      A                      A                      A
 Frequencies --    233.4917               270.1487               317.1602
 Red. masses --      2.4157                 2.8770                 4.3387
 Frc consts  --      0.0776                 0.1237                 0.2571
 IR Inten    --      0.7672                 4.4828                 2.4026

                     10                     11                     12
                      A                      A                      A
 Frequencies --    342.2311               356.3742               430.7336
 Red. masses --      3.3567                 3.7381                 2.1945
 Frc consts  --      0.2316                 0.2797                 0.2399
 IR Inten    --      2.6587                 0.3095                 0.0643

                     13                     14                     15
                      A                      A                      A
 Frequencies --    553.6353               614.2927               664.6991
 Red. masses --      5.7196                 1.1962                 1.2861
 Frc consts  --      1.0329                 0.2660                 0.3348
 IR Inten    --      2.1897                43.6882                31.7433

                     16                     17                     18
                      A                      A                      A
 Frequencies --    672.8085               779.6489               813.2252
 Red. masses --      2.8258                 1.2677                 2.8663
 Frc consts  --      0.7537                 0.4540                 1.1169
 IR Inten    --     12.6494                74.1565                 7.7665

                     19                     20                     21
                      A                      A                      A
 Frequencies --    901.8041               923.2179               944.6518
 Red. masses --      1.3770                 1.9295                 1.5345
 Frc consts  --      0.6598                 0.9689                 0.8068
 IR Inten    --      7.2086                20.2519                 6.5858

                     22                     23                     24
                      A                      A                      A
 Frequencies --    981.2653              1001.9508              1060.5768
 Red. masses --      2.7254                 1.8909                 2.1419
 Frc consts  --      1.5461                 1.1184                 1.4195
 IR Inten    --      4.0497                13.1117                 7.1964

                     25                     26                     27
                      A                      A                      A
 Frequencies --   1108.8480              1141.9929              1150.0493
 Red. masses --      2.0694                 3.6356                 2.3141
 Frc consts  --      1.4991                 2.7935                 1.8033
 IR Inten    --     15.5798                46.4505                 2.5594

                     28                     29                     30
                      A                      A                      A
 Frequencies --   1177.0622              1235.2215              1259.3664
 Red. masses --      1.6985                 1.2328                 1.4004
 Frc consts  --      1.3865                 1.1083                 1.3086
 IR Inten    --      9.1580                 8.2203                 3.1664

                     31                     32                     33
                      A                      A                      A
 Frequencies --   1303.1269              1351.5150              1360.1576
 Red. masses --      1.2364                 1.2667                 1.5928
 Frc consts  --      1.2370                 1.3632                 1.7362
 IR Inten    --      2.9868                46.9645                 7.2407

                     34                     35                     36
                      A                      A                      A
 Frequencies --   1403.3090              1415.7582              1435.4922
 Red. masses --      1.2584                 1.3383                 1.2559
 Frc consts  --      1.4601                 1.5804                 1.5248
 IR Inten    --      8.0947                 1.5700                 9.9736

                     37                     38                     39
                      A                      A                      A
 Frequencies --   1483.5644              1492.3321              1495.4011
 Red. masses --      1.1382                 1.0579                 1.0696
 Frc consts  --      1.4760                 1.3881                 1.4092
 IR Inten    --     22.0142                10.3707                 4.5522

                     40                     41                     42
                      A                      A                      A
 Frequencies --   1504.4767              1514.6651              1832.1120
 Red. masses --      1.1071                 1.0808                10.6076
 Frc consts  --      1.4764                 1.4609                20.9783
 IR Inten    --     23.5671                 4.5915               167.5021

                     43                     44                     45
                      A                      A                      A
 Frequencies --   2244.6752              2851.8014              2911.3364
 Red. masses --      5.9088                 1.0820                 1.0718
 Frc consts  --     17.5412                 5.1848                 5.3524
 IR Inten    --      0.0628               115.2910                33.1336

                     46                     47                     48
                      A                      A                      A
 Frequencies --   2916.3289              2993.7293              3021.0179
 Red. masses --      1.0732                 1.0800                 1.0846
 Frc consts  --      5.3776                 5.7028                 5.8321
 IR Inten    --     81.9226                11.6364                 4.4768

                     49                     50                     51
                      A                      A                      A
 Frequencies --   3023.1141              3045.0791              3112.3710
 Red. masses --      1.0859                 1.0364                 1.1019
 Frc consts  --      5.8470                 5.6619                 6.2889
 IR Inten    --     51.2503                15.3749                21.4596

                     52                     53                     54
                      A                      A                      A
 Frequencies --   3127.8158              3506.3295              3529.1784
 Red. masses --      1.0999                 1.1632                 1.0737
 Frc consts  --      6.3401                 8.4261                 7.8789
 IR Inten    --     15.2138                66.4936                 0.9951

 - Thermochemistry -
 -------------------
 Temperature   298.150 Kelvin.  Pressure   1.00000 Atm.
 Atom     1 has atomic number  6 and mass  12.00000

 Molecular mass:   125.08406 amu.
 Principal axes and moments of inertia in atomic units:
                           1         2         3
     Eigenvalues --   319.310013181.623483396.96958
           X            0.99998   0.00521  -0.00240
           Y           -0.00519   0.99996   0.00754
           Z            0.00244  -0.00753   0.99997
 This molecule is an asymmetric top.
 Rotational symmetry number  1.
 Rotational temperatures (Kelvin)      0.27125     0.02722     0.02550
 Rotational constants (GHZ):           5.65200     0.56724     0.53128
 Zero-point vibrational energy     439192.8 (Joules/Mol)
                                  104.96959 (Kcal/Mol)
 Warning -- explicit consideration of  14 degrees of freedom as
           vibrations may cause significant error
 Vibrational temperatures:     57.89    97.92   123.98   159.45   180.47
          (Kelvin)            269.68   335.94   388.68   456.32   492.39
                              512.74   619.73   796.56   883.83   956.35
                              968.02  1121.74  1170.05  1297.49  1328.30
                             1359.14  1411.82  1441.58  1525.93  1595.38
                             1643.07  1654.66  1693.53  1777.21  1811.95
                             1874.91  1944.53  1956.96  2019.05  2036.96
                             2065.35  2134.52  2147.13  2151.55  2164.61
                             2179.27  2636.00  3229.59  4103.11  4188.76
                             4195.95  4307.31  4346.57  4349.59  4381.19
                             4478.01  4500.23  5044.83  5077.70

 Zero-point correction=                           0.167280 (Hartree/Particle)
 Thermal correction to Energy=                    0.178074
 Thermal correction to Enthalpy=                  0.179018
 Thermal correction to Gibbs Free Energy=         0.130134
 Sum of electronic and zero-point Energies=           -403.109460
 Sum of electronic and thermal Energies=              -403.098666
 Sum of electronic and thermal Enthalpies=            -403.097722
 Sum of electronic and thermal Free Energies=         -403.146606

                     E (Thermal)             CV                S
                      KCal/Mol        Cal/Mol-Kelvin    Cal/Mol-Kelvin
 Total                  111.743             37.465            102.885
 Electronic               0.000              0.000              0.000
 Translational            0.889              2.981             40.385
 Rotational               0.889              2.981             29.624
 Vibrational            109.965             31.503             32.876
 Vibration     1          0.594              1.981              5.248
 Vibration     2          0.598              1.969              4.209
 Vibration     3          0.601              1.959              3.745
 Vibration     4          0.607              1.941              3.254
 Vibration     5          0.610              1.928              3.015
 Vibration     6          0.632              1.857              2.253
 Vibration     7          0.654              1.790              1.852
 Vibration     8          0.674              1.728              1.595
 Vibration     9          0.704              1.641              1.325
 Vibration    10          0.721              1.591              1.202
 Vibration    11          0.732              1.562              1.138
 Vibration    12          0.792              1.403              0.856
 Vibration    13          0.909              1.132              0.537
 Vibration    14          0.974              1.002              0.426

 Optimization completed.
    -- Stationary point found.
 Normal termination of Gaussian 16 at Sun Jul  3 22:07:42 2022.
