 Gaussian 16, Revision A.03,
 Gaussian 16:  ES64L-G16RevA.03 25-Dec-2016

 -----------------------------
 # opt freq b3lyp/6-31g(2df,p)
 -----------------------------

 -------------------
 Title Card Required
 -------------------
 Symbolic Z-matrix:
 Charge =  0 Multiplicity = 1

 SCF Done:  E(RB3LYP) =  -344.059473625     A.U. after   14 cycles
 SCF Done:  E(RB3LYP) =  -344.080694080     A.U. after   12 cycles
 SCF Done:  E(RB3LYP) =  -344.081625983     A.U. after   12 cycles
 SCF Done:  E(RB3LYP) =  -344.071166645     A.U. after   14 cycles
 SCF Done:  E(RB3LYP) =  -344.081618117     A.U. after   11 cycles
 SCF Done:  E(RB3LYP) =  -344.081903946     A.U. after    9 cycles
 SCF Done:  E(RB3LYP) =  -344.081920294     A.U. after   12 cycles
 SCF Done:  E(RB3LYP) =  -344.082100399     A.U. after   11 cycles
 SCF Done:  E(RB3LYP) =  -344.082110459     A.U. after   10 cycles
 SCF Done:  E(RB3LYP) =  -344.082214528     A.U. after   12 cycles
 SCF Done:  E(RB3LYP) =  -344.086141996     A.U. after   12 cycles
 SCF Done:  E(RB3LYP) =  -344.086625990     A.U. after   13 cycles
 SCF Done:  E(RB3LYP) =  -344.086301907     A.U. after   13 cycles
 SCF Done:  E(RB3LYP) =  -344.086639045     A.U. after   13 cycles
 SCF Done:  E(RB3LYP) =  -344.086641732     A.U. after    9 cycles
 SCF Done:  E(RB3LYP) =  -344.086641999     A.U. after    9 cycles
 SCF Done:  E(RB3LYP) =  -344.086642161     A.U. after    7 cycles
 SCF Done:  E(RB3LYP) =  -344.086642440     A.U. after    9 cycles
 SCF Done:  E(RB3LYP) =  -344.086642509     A.U. after    8 cycles
 Optimization completed.
    -- Stationary point found.
 Normal termination of Gaussian 16 at Thu Aug  4 16:47:03 2022.

 ----------------------------------------------------------------------
 #N Geom=AllCheck Guess=TCheck SCRF=Check GenChk RB3LYP/6-31G(2df,p) Fr
 eq
 ----------------------------------------------------------------------

 Structure from the checkpoint file:  "CtCCCdNCCN.chk"
 -------------------
 Title Card Required
 -------------------
 Charge =  0 Multiplicity = 1

                         Standard orientation:
 ---------------------------------------------------------------------
 Center     Atomic      Atomic             Coordinates (Angstroms)
 Number     Number       Type             X           Y           Z
 ---------------------------------------------------------------------
      1          6           0       -4.148687   -0.729004   -0.006707
      2          6           0       -3.198573    0.006504   -0.016335
      3          6           0       -2.022980    0.870799   -0.039913
      4          6           0       -0.744241    0.092381   -0.273804
      5          7           0        0.257547    0.231368    0.481930
      6          6           0        1.456802   -0.529429    0.177916
      7          6           0        2.651055    0.410865   -0.016894
      8          7           0        3.869057   -0.373071   -0.236875
      9          1           0       -4.995586   -1.369182    0.008895
     10          1           0       -1.920903    1.426412    0.897461
     11          1           0       -2.136606    1.612062   -0.844600
     12          1           0       -0.753772   -0.591198   -1.137330
     13          1           0        1.349216   -1.175401   -0.707567
     14          1           0        1.663419   -1.180920    1.038665
     15          1           0        2.693911    1.101397    0.840612
     16          1           0        2.475413    1.024209   -0.908532
     17          1           0        4.140807   -0.833447    0.627659
     18          1           0        4.637615    0.245294   -0.476224
 ---------------------------------------------------------------------

 SCF Done:  E(RB3LYP) =  -344.086642509     A.U. after    1 cycles

 The electronic state is 1-A.
 Alpha  occ. eigenvalues --  -14.32338 -14.30828 -10.22990 -10.21415 -10.20400
 Alpha  occ. eigenvalues --  -10.20355 -10.18504 -10.17351  -0.92417  -0.87602
 Alpha  occ. eigenvalues --   -0.79447  -0.73194  -0.69767  -0.61073  -0.56442
 Alpha  occ. eigenvalues --   -0.53021  -0.49892  -0.48335  -0.46152  -0.45578
 Alpha  occ. eigenvalues --   -0.42863  -0.41782  -0.40514  -0.36674  -0.35017
 Alpha  occ. eigenvalues --   -0.29566  -0.27188  -0.26641  -0.25114  -0.23582
 Alpha virt. eigenvalues --   -0.00329   0.05456   0.06084   0.08256   0.11382
 Alpha virt. eigenvalues --    0.12266   0.13151   0.13361   0.14516   0.17284
 Alpha virt. eigenvalues --    0.17796   0.18738   0.20447   0.20828   0.24047

 Mulliken charges:
               1
     1  C   -0.453903
     2  C    0.293177
     3  C   -0.386630
     4  C    0.039750
     5  N   -0.149341
     6  C   -0.129915
     7  C   -0.140255
     8  N   -0.509571
     9  H    0.199801
    10  H    0.149624
    11  H    0.142335
    12  H    0.092790
    13  H    0.097054
    14  H    0.104143
    15  H    0.094065
    16  H    0.103877
    17  H    0.224715
    18  H    0.228284
 Sum of Mulliken charges =  -0.00000

 Dipole moment (field-independent basis, Debye):
    X=              0.6519    Y=              0.4147    Z=             -0.2068  Tot=              0.7998
 Quadrupole moment (field-independent basis, Debye-Ang):
   XX=            -41.1089   YY=            -47.3489   ZZ=            -49.4251
   XY=              3.8639   XZ=              3.8818   YZ=             -2.4528

  Exact polarizability: 114.795   7.131  64.753   4.623   0.511  56.719
 Approx polarizability: 140.149  17.747 100.645  10.531   1.436  89.930

                      1                      2                      3
                      A                      A                      A
 Frequencies --     39.7847                76.2339                91.4178
 Red. masses --      2.8237                 4.4580                 2.9732
 Frc consts  --      0.0026                 0.0153                 0.0146
 IR Inten    --      0.6469                 0.2164                 1.3061

                      4                      5                      6
                      A                      A                      A
 Frequencies --    106.4144               229.2493               243.1442
 Red. masses --      3.1231                 2.9205                 1.1321
 Frc consts  --      0.0208                 0.0904                 0.0394
 IR Inten    --      7.0506                 7.9345                31.4597

                      7                      8                      9
                      A                      A                      A
 Frequencies --    301.0223               333.9006               337.0905
 Red. masses --      2.6447                 3.7180                 2.8209
 Frc consts  --      0.1412                 0.2442                 0.1889
 IR Inten    --      4.6498                17.8360                 6.0094

                     10                     11                     12
                      A                      A                      A
 Frequencies --    384.8999               554.2642               560.2662
 Red. masses --      4.3403                 6.4965                 3.2071
 Frc consts  --      0.3789                 1.1759                 0.5931
 IR Inten    --      6.5690                 3.7460                 1.8903

                     13                     14                     15
                      A                      A                      A
 Frequencies --    618.1570               645.6931               804.5852
 Red. masses --      1.2011                 1.2118                 1.1394
 Frc consts  --      0.2704                 0.2977                 0.4346
 IR Inten    --     45.2987                43.7156                18.7792

                     16                     17                     18
                      A                      A                      A
 Frequencies --    838.7897               870.4459               958.8300
 Red. masses --      1.5073                 1.3043                 3.5942
 Frc consts  --      0.6248                 0.5823                 1.9469
 IR Inten    --      0.7646               122.9279                 0.4592

                     19                     20                     21
                      A                      A                      A
 Frequencies --    974.2029              1019.7652              1047.6783
 Red. masses --      2.1023                 1.6508                 3.4203
 Frc consts  --      1.1756                 1.0115                 2.2119
 IR Inten    --      3.3851                 3.1091                27.5509

                     22                     23                     24
                      A                      A                      A
 Frequencies --   1076.6999              1086.1175              1134.8177
 Red. masses --      2.8102                 2.8292                 1.8708
 Frc consts  --      1.9195                 1.9664                 1.4195
 IR Inten    --      4.1942                 4.1776                 7.3551

                     25                     26                     27
                      A                      A                      A
 Frequencies --   1193.3225              1222.1636              1283.2586
 Red. masses --      1.2656                 1.2357                 1.2748
 Frc consts  --      1.0619                 1.0875                 1.2368
 IR Inten    --      1.5584                 2.0916                 8.9938

                     28                     29                     30
                      A                      A                      A
 Frequencies --   1301.8169              1314.4893              1355.9290
 Red. masses --      1.4334                 1.1116                 1.2619
 Frc consts  --      1.4313                 1.1317                 1.3670
 IR Inten    --      7.7736                 7.5811                12.0103

                     31                     32                     33
                      A                      A                      A
 Frequencies --   1391.2671              1427.9509              1453.7583
 Red. masses --      1.3447                 1.4811                 1.0857
 Frc consts  --      1.5335                 1.7794                 1.3519
 IR Inten    --     13.4090                 6.7852                 5.1209

                     34                     35                     36
                      A                      A                      A
 Frequencies --   1490.4052              1517.0924              1660.2630
 Red. masses --      1.0921                 1.0886                 1.0885
 Frc consts  --      1.4293                 1.4762                 1.7679
 IR Inten    --      6.6881                 1.9076                19.6339

                     37                     38                     39
                      A                      A                      A
 Frequencies --   1760.1659              2240.6114              2970.5105
 Red. masses --      8.9004                 5.9169                 1.0678
 Frc consts  --     16.2468                17.5017                 5.5512
 IR Inten    --     92.4362                 2.5301                14.2415

                     40                     41                     42
                      A                      A                      A
 Frequencies --   2980.6630              2994.3769              3006.8261
 Red. masses --      1.0629                 1.0841                 1.0675
 Frc consts  --      5.5636                 5.7268                 5.6862
 IR Inten    --     72.0511                56.9738                 9.0710

                     43                     44                     45
                      A                      A                      A
 Frequencies --   3025.9910              3059.7195              3083.2772
 Red. masses --      1.0965                 1.0957                 1.0918
 Frc consts  --      5.9156                 6.0438                 6.1151
 IR Inten    --     13.2954                49.5661                 4.3544

                     46                     47                     48
                      A                      A                      A
 Frequencies --   3488.5717              3506.9166              3567.3691
 Red. masses --      1.0500                 1.1625                 1.0914
 Frc consts  --      7.5292                 8.4238                 8.1835
 IR Inten    --      0.6036                70.0533                 0.1060

 - Thermochemistry -
 -------------------
 Temperature   298.150 Kelvin.  Pressure   1.00000 Atm.
 Atom     1 has atomic number  6 and mass  12.00000

 Molecular mass:   110.08440 amu.
 Principal axes and moments of inertia in atomic units:
                           1         2         3
     Eigenvalues --   172.648092885.433852972.93345
           X            1.00000   0.00104   0.00255
           Y           -0.00100   0.99983  -0.01867
           Z           -0.00257   0.01866   0.99982
 This molecule is an asymmetric top.
 Rotational symmetry number  1.
 Rotational temperatures (Kelvin)      0.50168     0.03002     0.02913
 Rotational constants (GHZ):          10.45329     0.62547     0.60706
 Zero-point vibrational energy     398537.0 (Joules/Mol)
                                   95.25263 (Kcal/Mol)
 Warning -- explicit consideration of  13 degrees of freedom as
           vibrations may cause significant error
 Vibrational temperatures:     57.24   109.68   131.53   153.11   329.84
          (Kelvin)            349.83   433.10   480.41   485.00   553.79
                              797.46   806.10   889.39   929.01  1157.62
                             1206.83  1252.38  1379.54  1401.66  1467.21
                             1507.38  1549.13  1562.68  1632.75  1716.92
                             1758.42  1846.32  1873.02  1891.26  1950.88
                             2001.72  2054.50  2091.63  2144.36  2182.76
                             2388.75  2532.49  3223.74  4273.90  4288.51
                             4308.24  4326.15  4353.73  4402.25  4436.15
                             5019.28  5045.67  5132.65

 Zero-point correction=                           0.151795 (Hartree/Particle)
 Thermal correction to Energy=                    0.161445
 Thermal correction to Enthalpy=                  0.162389
 Thermal correction to Gibbs Free Energy=         0.116398
 Sum of electronic and zero-point Energies=           -343.934848
 Sum of electronic and thermal Energies=              -343.925197
 Sum of electronic and thermal Enthalpies=            -343.924253
 Sum of electronic and thermal Free Energies=         -343.970244

                     E (Thermal)             CV                S
                      KCal/Mol        Cal/Mol-Kelvin    Cal/Mol-Kelvin
 Total                  101.308             33.558             96.796
 Electronic               0.000              0.000              0.000
 Translational            0.889              2.981             40.004
 Rotational               0.889              2.981             28.784
 Vibrational             99.531             27.596             28.008
 Vibration     1          0.594              1.981              5.270
 Vibration     2          0.599              1.965              3.986
 Vibration     3          0.602              1.955              3.629
 Vibration     4          0.605              1.944              3.333
 Vibration     5          0.652              1.796              1.885
 Vibration     6          0.659              1.774              1.780
 Vibration     7          0.693              1.672              1.411
 Vibration     8          0.715              1.608              1.241
 Vibration     9          0.718              1.601              1.226
 Vibration    10          0.754              1.502              1.020
 Vibration    11          0.910              1.130              0.535
 Vibration    12          0.916              1.117              0.523
 Vibration    13          0.978              0.994              0.419

 Optimization completed.
    -- Stationary point found.
 Normal termination of Gaussian 16 at Thu Aug  4 17:04:11 2022.
