 Gaussian 16, Revision A.03,
 Gaussian 16:  ES64L-G16RevA.03 25-Dec-2016

 -----------------------------
 # opt freq b3lyp/6-31g(2df,p)
 -----------------------------

 -------------------
 Title Card Required
 -------------------
 Symbolic Z-matrix:
 Charge =  0 Multiplicity = 1

 SCF Done:  E(RB3LYP) =  -341.329397609     A.U. after   18 cycles
 SCF Done:  E(RB3LYP) =  -341.383081621     A.U. after   15 cycles
 SCF Done:  E(RB3LYP) =  -341.440693047     A.U. after   15 cycles
 SCF Done:  E(RB3LYP) =  -341.495271709     A.U. after   15 cycles
 SCF Done:  E(RB3LYP) =  -341.527178614     A.U. after   14 cycles
 SCF Done:  E(RB3LYP) =  -341.547395864     A.U. after   15 cycles
 SCF Done:  E(RB3LYP) =  -341.551146419     A.U. after   13 cycles
 SCF Done:  E(RB3LYP) =  -341.550454201     A.U. after   14 cycles
 SCF Done:  E(RB3LYP) =  -341.554125678     A.U. after   13 cycles
 SCF Done:  E(RB3LYP) =  -341.556332781     A.U. after   12 cycles
 SCF Done:  E(RB3LYP) =  -341.556920197     A.U. after   12 cycles
 SCF Done:  E(RB3LYP) =  -341.556868151     A.U. after   12 cycles
 SCF Done:  E(RB3LYP) =  -341.557260617     A.U. after   11 cycles
 SCF Done:  E(RB3LYP) =  -341.557284684     A.U. after   10 cycles
 SCF Done:  E(RB3LYP) =  -341.557287269     A.U. after    8 cycles
 SCF Done:  E(RB3LYP) =  -341.557287637     A.U. after    7 cycles
 SCF Done:  E(RB3LYP) =  -341.557287738     A.U. after    7 cycles
 Optimization completed.
    -- Stationary point found.
 Normal termination of Gaussian 16 at Sun Jul  3 18:42:35 2022.

 ----------------------------------------------------------------------
 #N Geom=AllCheck Guess=TCheck SCRF=Check GenChk RB3LYP/6-31G(2df,p) Fr
 eq
 ----------------------------------------------------------------------

 Structure from the checkpoint file:  "CtCC12CdCN1NC2.chk"
 -------------------
 Title Card Required
 -------------------
 Charge =  0 Multiplicity = 1

                         Standard orientation:
 ---------------------------------------------------------------------
 Center     Atomic      Atomic             Coordinates (Angstroms)
 Number     Number       Type             X           Y           Z
 ---------------------------------------------------------------------
      1          6           0        2.853873   -0.030334   -0.301987
      2          6           0        1.674401    0.028446   -0.074027
      3          6           0        0.269731    0.085298    0.236258
      4          6           0       -0.365797    1.388267    0.659312
      5          6           0       -1.322594    1.242703   -0.266204
      6          7           0       -0.800583    0.056494   -0.893135
      7          7           0       -1.469046   -1.142866   -0.258108
      8          6           0       -0.407804   -1.221951    0.777461
      9          1           0        3.893575   -0.073940   -0.514429
     10          1           0       -0.087312    2.138959    1.384871
     11          1           0       -2.247124    1.732173   -0.542728
     12          1           0       -1.347600   -1.894449   -0.932108
     13          1           0        0.246852   -2.090709    0.676204
     14          1           0       -0.781851   -1.161998    1.802012
 ---------------------------------------------------------------------

 SCF Done:  E(RB3LYP) =  -341.557287738     A.U. after    1 cycles

 The electronic state is 1-A.
 Alpha  occ. eigenvalues --  -14.35952 -14.34287 -10.24988 -10.22114 -10.21665
 Alpha  occ. eigenvalues --  -10.19395 -10.18811 -10.18369  -1.00968  -0.84933
 Alpha  occ. eigenvalues --   -0.77534  -0.72068  -0.67721  -0.62713  -0.56866
 Alpha  occ. eigenvalues --   -0.51360  -0.50624  -0.49383  -0.47125  -0.42985
 Alpha  occ. eigenvalues --   -0.39530  -0.38935  -0.35318  -0.30589  -0.27194
 Alpha  occ. eigenvalues --   -0.26611  -0.25434  -0.22903
 Alpha virt. eigenvalues --    0.00013   0.01663   0.04737   0.09144   0.09961
 Alpha virt. eigenvalues --    0.12219   0.13431   0.14427   0.15329   0.15482
 Alpha virt. eigenvalues --    0.18203   0.20059   0.22041   0.25139   0.29540

 Mulliken charges:
               1
     1  C   -0.406492
     2  C    0.242889
     3  C    0.164118
     4  C   -0.218168
     5  C    0.005103
     6  N   -0.177519
     7  N   -0.304055
     8  C   -0.220706
     9  H    0.197902
    10  H    0.114183
    11  H    0.124977
    12  H    0.238016
    13  H    0.119961
    14  H    0.119791
 Sum of Mulliken charges =  -0.00000

 Dipole moment (field-independent basis, Debye):
    X=              0.7863    Y=             -0.2877    Z=              0.9689  Tot=              1.2805
 Quadrupole moment (field-independent basis, Debye-Ang):
   XX=            -42.8471   YY=            -41.6037   ZZ=            -46.5551
   XY=             -2.1396   XZ=             -0.0903   YZ=              1.5285

  Exact polarizability:  90.077  -2.727  65.294   1.912   2.890  52.424
 Approx polarizability: 144.656  -2.125  95.501   8.244   6.503  89.210

                      1                      2                      3
                      A                      A                      A
 Frequencies --    137.3579               161.8488               231.1333
 Red. masses --      3.6679                 3.6349                 2.5465
 Frc consts  --      0.0408                 0.0561                 0.0802
 IR Inten    --      0.1409                 0.5697                 5.5327

                      4                      5                      6
                      A                      A                      A
 Frequencies --    351.9301               398.5384               502.8255
 Red. masses --      3.0627                 3.3366                 5.7346
 Frc consts  --      0.2235                 0.3122                 0.8543
 IR Inten    --      5.6725                 6.5144                 3.0737

                      7                      8                      9
                      A                      A                      A
 Frequencies --    537.1415               598.2061               618.2631
 Red. masses --      4.3962                 4.7043                 1.2214
 Frc consts  --      0.7473                 0.9919                 0.2751
 IR Inten    --     14.1385                 5.4553                42.4580

                     10                     11                     12
                      A                      A                      A
 Frequencies --    661.2833               741.5597               782.1478
 Red. masses --      1.2544                 4.2788                 1.9571
 Frc consts  --      0.3232                 1.3863                 0.7054
 IR Inten    --     33.4051                13.2346                41.1874

                     13                     14                     15
                      A                      A                      A
 Frequencies --    855.8598               893.2409               897.0152
 Red. masses --      3.8729                 1.7270                 2.7681
 Frc consts  --      1.6715                 0.8119                 1.3123
 IR Inten    --      3.2417                14.4236                 7.4331

                     16                     17                     18
                      A                      A                      A
 Frequencies --    918.9141               950.0182               978.1756
 Red. masses --      1.8734                 2.5503                 2.5979
 Frc consts  --      0.9320                 1.3561                 1.4645
 IR Inten    --      9.6236                11.2296                28.9706

                     19                     20                     21
                      A                      A                      A
 Frequencies --   1011.0232              1065.9496              1101.6538
 Red. masses --      2.8794                 1.7783                 2.7195
 Frc consts  --      1.7341                 1.1905                 1.9446
 IR Inten    --     13.4348                 4.6311                15.8248

                     22                     23                     24
                      A                      A                      A
 Frequencies --   1127.1072              1213.2182              1247.2810
 Red. masses --      1.7486                 1.5510                 2.0379
 Frc consts  --      1.3088                 1.3451                 1.8679
 IR Inten    --      6.7663                12.3452                11.0826

                     25                     26                     27
                      A                      A                      A
 Frequencies --   1293.5930              1317.9603              1379.6483
 Red. masses --      1.5170                 2.0225                 1.1807
 Frc consts  --      1.4956                 2.0699                 1.3241
 IR Inten    --      3.6781                21.7925                13.8849

                     28                     29                     30
                      A                      A                      A
 Frequencies --   1502.3274              1616.6212              2231.6343
 Red. masses --      1.0933                 5.3753                 5.9897
 Frc consts  --      1.4539                 8.2770                17.5752
 IR Inten    --      0.0835                 3.6927                 0.2091

                     31                     32                     33
                      A                      A                      A
 Frequencies --   3059.1200              3114.0440              3213.9114
 Red. masses --      1.0561                 1.1121                 1.0857
 Frc consts  --      5.8230                 6.3540                 6.6076
 IR Inten    --     35.1367                17.3438                 4.8756

                     34                     35                     36
                      A                      A                      A
 Frequencies --   3248.3066              3492.7009              3501.0986
 Red. masses --      1.1177                 1.0763                 1.1610
 Frc consts  --      6.9482                 7.7359                 8.3851
 IR Inten    --     12.6438                 0.5002                72.7804

 - Thermochemistry -
 -------------------
 Temperature   298.150 Kelvin.  Pressure   1.00000 Atm.
 Atom     1 has atomic number  6 and mass  12.00000

 Molecular mass:   106.05310 amu.
 Principal axes and moments of inertia in atomic units:
                           1         2         3
     Eigenvalues --   461.85269 904.413141121.14776
           X            0.99992  -0.01136  -0.00487
           Y            0.01138   0.99992   0.00492
           Z            0.00481  -0.00497   0.99998
 This molecule is an asymmetric top.
 Rotational symmetry number  1.
 Warning -- assumption of classical behavior for rotation
           may cause significant error
 Rotational temperatures (Kelvin)      0.18754     0.09577     0.07725
 Rotational constants (GHZ):           3.90761     1.99548     1.60973
 Zero-point vibrational energy     280839.3 (Joules/Mol)
                                   67.12219 (Kcal/Mol)
 Warning -- explicit consideration of   9 degrees of freedom as
           vibrations may cause significant error
 Vibrational temperatures:    197.63   232.86   332.55   506.35   573.41
          (Kelvin)            723.45   772.83   860.69   889.54   951.44
                             1066.94  1125.34  1231.39  1285.17  1290.60
                             1322.11  1366.86  1407.38  1454.64  1533.66
                             1585.03  1621.66  1745.55  1794.56  1861.19
                             1896.25  1985.01  2161.51  2325.96  3210.82
                             4401.39  4480.41  4624.10  4673.59  5025.22
                             5037.30

 Zero-point correction=                           0.106966 (Hartree/Particle)
 Thermal correction to Energy=                    0.113799
 Thermal correction to Enthalpy=                  0.114744
 Thermal correction to Gibbs Free Energy=         0.076224
 Sum of electronic and zero-point Energies=           -341.450322
 Sum of electronic and thermal Energies=              -341.443488
 Sum of electronic and thermal Enthalpies=            -341.442544
 Sum of electronic and thermal Free Energies=         -341.481064

                     E (Thermal)             CV                S
                      KCal/Mol        Cal/Mol-Kelvin    Cal/Mol-Kelvin
 Total                   71.410             26.389             81.071
 Electronic               0.000              0.000              0.000
 Translational            0.889              2.981             39.893
 Rotational               0.889              2.981             27.640
 Vibrational             69.633             20.427             13.538
 Vibration     1          0.614              1.916              2.840
 Vibration     2          0.622              1.889              2.528
 Vibration     3          0.653              1.793              1.870
 Vibration     4          0.728              1.571              1.158
 Vibration     5          0.765              1.473              0.968
 Vibration     6          0.858              1.244              0.651
 Vibration     7          0.892              1.168              0.571
 Vibration     8          0.956              1.036              0.453
 Vibration     9          0.978              0.993              0.419

                           ! Non-Optimized Parameters !
 Normal termination of Gaussian 16 at Sun Jul  3 19:01:20 2022.
