 Gaussian 16, Revision A.03,
 Gaussian 16:  ES64L-G16RevA.03 25-Dec-2016

 -----------------------------
 # opt freq b3lyp/6-31g(2df,p)
 -----------------------------

 -------------------
 Title Card Required
 -------------------
 Symbolic Z-matrix:
 Charge =  0 Multiplicity = 1

 SCF Done:  E(RB3LYP) =  -453.939553734     A.U. after   15 cycles
 SCF Done:  E(RB3LYP) =  -453.962102325     A.U. after   13 cycles
 SCF Done:  E(RB3LYP) =  -453.962614222     A.U. after   13 cycles
 SCF Done:  E(RB3LYP) =  -453.950359322     A.U. after   16 cycles
 SCF Done:  E(RB3LYP) =  -453.963176294     A.U. after   12 cycles
 SCF Done:  E(RB3LYP) =  -453.963148299     A.U. after   12 cycles
 SCF Done:  E(RB3LYP) =  -453.963000182     A.U. after   12 cycles
 SCF Done:  E(RB3LYP) =  -453.962804847     A.U. after   11 cycles
 SCF Done:  E(RB3LYP) =  -453.963279219     A.U. after    8 cycles
 SCF Done:  E(RB3LYP) =  -453.963267418     A.U. after   12 cycles
 SCF Done:  E(RB3LYP) =  -453.963424265     A.U. after   12 cycles
 SCF Done:  E(RB3LYP) =  -453.963431989     A.U. after   10 cycles
 SCF Done:  E(RB3LYP) =  -453.963460167     A.U. after   10 cycles
 SCF Done:  E(RB3LYP) =  -453.963456929     A.U. after    9 cycles
 SCF Done:  E(RB3LYP) =  -453.963440589     A.U. after   10 cycles
 SCF Done:  E(RB3LYP) =  -453.963459231     A.U. after   10 cycles
 SCF Done:  E(RB3LYP) =  -453.963460248     A.U. after    8 cycles
 SCF Done:  E(RB3LYP) =  -453.963460659     A.U. after    8 cycles
 Optimization completed.
    -- Stationary point found.
 Normal termination of Gaussian 16 at Sun Jul  3 12:12:39 2022.

 ----------------------------------------------------------------------
 #N Geom=AllCheck Guess=TCheck SCRF=Check GenChk RB3LYP/6-31G(2df,p) Fr
 eq
 ----------------------------------------------------------------------

 Structure from the checkpoint file:  "CtCCNCpCdOpdNO.chk"
 -------------------
 Title Card Required
 -------------------
 Charge =  0 Multiplicity = 1

                         Standard orientation:
 ---------------------------------------------------------------------
 Center     Atomic      Atomic             Coordinates (Angstroms)
 Number     Number       Type             X           Y           Z
 ---------------------------------------------------------------------
      1          6           0       -3.882404   -0.738772    0.000008
      2          6           0       -2.829767   -0.160557   -0.000015
      3          6           0       -1.544891    0.531397   -0.000017
      4          7           0       -0.465342   -0.451208    0.000017
      5          6           0        0.887360   -0.229414    0.000004
      6          6           0        1.420586    1.167438   -0.000014
      7          8           0        0.724230    2.156951    0.000022
      8          7           0        1.653137   -1.277441    0.000000
      9          8           0        3.021051   -0.960873   -0.000001
     10          1           0       -4.819539   -1.238575    0.000019
     11          1           0       -1.482932    1.189636    0.874594
     12          1           0       -1.482914    1.189599   -0.874656
     13          1           0       -0.737435   -1.420868    0.000027
     14          1           0        2.519031    1.226987   -0.000052
     15          1           0        3.421661   -1.835406   -0.000011
 ---------------------------------------------------------------------

 SCF Done:  E(RB3LYP) =  -453.963460659     A.U. after    1 cycles

 The electronic state is 1-A.
 Alpha  occ. eigenvalues --  -19.18347 -19.15668 -14.37168 -14.35461 -10.28465
 Alpha  occ. eigenvalues --  -10.26074 -10.24905 -10.19376 -10.18613  -1.08328
 Alpha  occ. eigenvalues --   -1.06158  -0.95450  -0.84959  -0.76883  -0.70267
 Alpha  occ. eigenvalues --   -0.67740  -0.59027  -0.55559  -0.52492  -0.48428
 Alpha  occ. eigenvalues --   -0.48093  -0.47110  -0.47107  -0.43965  -0.43513
 Alpha  occ. eigenvalues --   -0.42685  -0.39105  -0.32466  -0.30932  -0.28589
 Alpha  occ. eigenvalues --   -0.27637  -0.25384  -0.20986
 Alpha virt. eigenvalues --   -0.07118   0.03202   0.04524   0.07190   0.08293
 Alpha virt. eigenvalues --    0.10376   0.11529   0.12353   0.13926   0.16137
 Alpha virt. eigenvalues --    0.19009   0.22749   0.23601   0.26208   0.28789

 Mulliken charges:
               1
     1  C   -0.397568
     2  C    0.262524
     3  C   -0.280589
     4  N   -0.370324
     5  C    0.352669
     6  C    0.090955
     7  O   -0.258441
     8  N   -0.222004
     9  O   -0.392760
    10  H    0.203455
    11  H    0.151752
    12  H    0.151748
    13  H    0.256078
    14  H    0.138597
    15  H    0.313908
 Sum of Mulliken charges =  -0.00000

 Dipole moment (field-independent basis, Debye):
    X=             -0.0688    Y=             -1.7217    Z=             -0.0001  Tot=              1.7231
 Quadrupole moment (field-independent basis, Debye-Ang):
   XX=            -40.9121   YY=            -52.3925   ZZ=            -51.4940
   XY=             -0.6865   XZ=             -0.0002   YZ=             -0.0001

  Exact polarizability: 112.609  -4.195  74.143   0.000   0.000  38.396
 Approx polarizability: 160.988 -15.984 131.216  -0.001  -0.000  59.277

 ******    1 imaginary frequencies (negative Signs) ******

                      1                      2                      3
                      A                      A                      A
 Frequencies --   -122.2862                38.3067               107.2254
 Red. masses --      3.4663                 3.2884                 2.9691
 Frc consts  --      0.0305                 0.0028                 0.0201
 IR Inten    --     12.7548                 0.0000                12.2128

                      4                      5                      6
                      A                      A                      A
 Frequencies --    113.4878               174.8455               223.0031
 Red. masses --      4.9093                 5.6413                 7.1857
 Frc consts  --      0.0373                 0.1016                 0.2105
 IR Inten    --      0.4185                 7.9026                 3.0139

                      7                      8                      9
                      A                      A                      A
 Frequencies --    276.6162               308.2396               332.6277
 Red. masses --      6.1282                 1.6593                 1.5643
 Frc consts  --      0.2763                 0.0929                 0.1020
 IR Inten    --      3.8926                80.8713                55.6016

                     10                     11                     12
                      A                      A                      A
 Frequencies --    374.7825               381.9772               441.5886
 Red. masses --      1.2904                 6.7324                 8.4966
 Frc consts  --      0.1068                 0.5788                 0.9762
 IR Inten    --      0.0004                 8.2623                 7.3897

                     13                     14                     15
                      A                      A                      A
 Frequencies --    525.4421               598.0259               613.8033
 Red. masses --      4.0960                 5.8790                 1.1982
 Frc consts  --      0.6663                 1.2388                 0.2660
 IR Inten    --     35.5766                49.2744                45.4992

                     16                     17                     18
                      A                      A                      A
 Frequencies --    664.9300               682.6575               882.7599
 Red. masses --      6.5668                 1.2570                 5.7972
 Frc consts  --      1.7106                 0.3451                 2.6617
 IR Inten    --     15.4658                44.3435                45.6969

                     19                     20                     21
                      A                      A                      A
 Frequencies --    969.4145               997.6419              1005.3134
 Red. masses --      4.6115                 6.1370                 1.6102
 Frc consts  --      2.5534                 3.5988                 0.9588
 IR Inten    --     59.4514               102.2525                 1.0778

                     22                     23                     24
                      A                      A                      A
 Frequencies --   1038.6008              1158.7556              1247.4386
 Red. masses --      1.8737                 4.3151                 1.0522
 Frc consts  --      1.1908                 3.4137                 0.9647
 IR Inten    --      0.0074                89.0385                 0.0196

                     25                     26                     27
                      A                      A                      A
 Frequencies --   1321.3508              1360.3193              1421.0728
 Red. masses --      1.4549                 1.3478                 1.4216
 Frc consts  --      1.4966                 1.4695                 1.6915
 IR Inten    --    101.3554               102.8322                15.1292

                     28                     29                     30
                      A                      A                      A
 Frequencies --   1446.3234              1498.9381              1512.1567
 Red. masses --      1.5430                 1.0713                 2.1983
 Frc consts  --      1.9018                 1.4181                 2.9616
 IR Inten    --      4.7128                17.8960               109.1792

                     31                     32                     33
                      A                      A                      A
 Frequencies --   1656.9708              1789.6109              2246.8619
 Red. masses --      5.1441                 9.9761                 5.8943
 Frc consts  --      8.3213                18.8246                17.5321
 IR Inten    --    155.4069               163.3221                 0.1790

                     34                     35                     36
                      A                      A                      A
 Frequencies --   3027.7584              3033.7417              3049.0648
 Red. masses --      1.0583                 1.0858                 1.1032
 Frc consts  --      5.7162                 5.8879                 6.0427
 IR Inten    --     17.6517                35.8375                10.7436

                     37                     38                     39
                      A                      A                      A
 Frequencies --   3504.9643              3641.8020              3834.6092
 Red. masses --      1.1638                 1.0760                 1.0681
 Frc consts  --      8.4235                 8.4079                 9.2534
 IR Inten    --     69.4951                41.3259               122.4683

 - Thermochemistry -
 -------------------
 Temperature   298.150 Kelvin.  Pressure   1.00000 Atm.
 Atom     1 has atomic number  6 and mass  12.00000

 Molecular mass:   126.04293 amu.
 Principal axes and moments of inertia in atomic units:
                           1         2         3
     Eigenvalues --   553.515402082.005602624.50848
           X            1.00000   0.00073  -0.00000
           Y           -0.00073   1.00000  -0.00000
           Z            0.00000   0.00000   1.00000
 This molecule is an asymmetric top.
 Rotational symmetry number  1.
 Warning -- assumption of classical behavior for rotation
           may cause significant error
 Rotational temperatures (Kelvin)      0.15648     0.04160     0.03300
 Rotational constants (GHZ):           3.26051     0.86683     0.68765
    1 imaginary frequencies ignored.
 Zero-point vibrational energy     284131.2 (Joules/Mol)
                                   67.90899 (Kcal/Mol)
 Warning -- explicit consideration of  14 degrees of freedom as
           vibrations may cause significant error
 Vibrational temperatures:     55.11   154.27   163.28   251.56   320.85
          (Kelvin)            397.99   443.49   478.58   539.23   549.58
                              635.35   755.99   860.43   883.13   956.69
                              982.19  1270.09  1394.77  1435.38  1446.42
                             1494.31  1667.19  1794.79  1901.13  1957.20
                             2044.61  2080.94  2156.64  2175.66  2384.01
                             2574.85  3232.73  4356.27  4364.88  4386.92
                             5042.86  5239.74  5517.15

 Zero-point correction=                           0.108220 (Hartree/Particle)
 Thermal correction to Energy=                    0.117693
 Thermal correction to Enthalpy=                  0.118638
 Thermal correction to Gibbs Free Energy=         0.073003
 Sum of electronic and zero-point Energies=           -453.855241
 Sum of electronic and thermal Energies=              -453.845767
 Sum of electronic and thermal Enthalpies=            -453.844823
 Sum of electronic and thermal Free Energies=         -453.890458

                     E (Thermal)             CV                S
                      KCal/Mol        Cal/Mol-Kelvin    Cal/Mol-Kelvin
 Total                   73.854             32.996             96.046
 Electronic               0.000              0.000              0.000
 Translational            0.889              2.981             40.408
 Rotational               0.889              2.981             29.493
 Vibrational             72.076             27.035             26.145
 Vibration     1          0.594              1.982              5.345
 Vibration     2          0.606              1.943              3.319
 Vibration     3          0.607              1.938              3.208
 Vibration     4          0.627              1.873              2.383
 Vibration     5          0.649              1.806              1.935
 Vibration     6          0.678              1.717              1.555
 Vibration     7          0.698              1.658              1.372
 Vibration     8          0.715              1.610              1.247
 Vibration     9          0.746              1.524              1.060
 Vibration    10          0.751              1.509              1.031
 Vibration    11          0.801              1.379              0.822
 Vibration    12          0.880              1.194              0.597
 Vibration    13          0.956              1.036              0.453
 Vibration    14          0.973              1.003              0.427

 Optimization completed.
    -- Stationary point found.
 Normal termination of Gaussian 16 at Sun Jul  3 12:44:46 2022.
