 Gaussian 16, Revision A.03,
 Gaussian 16:  ES64L-G16RevA.03 25-Dec-2016

 -----------------------------
 # opt freq b3lyp/6-31g(2df,p)
 -----------------------------

 -------------------
 Title Card Required
 -------------------
 Symbolic Z-matrix:
 Charge =  0 Multiplicity = 1

 SCF Done:  E(RB3LYP) =  -368.573962025     A.U. after   13 cycles
 SCF Done:  E(RB3LYP) =  -368.595223775     A.U. after   11 cycles
 SCF Done:  E(RB3LYP) =  -368.593926529     A.U. after   12 cycles
 SCF Done:  E(RB3LYP) =  -368.592952077     A.U. after   12 cycles
 SCF Done:  E(RB3LYP) =  -368.590819330     A.U. after   11 cycles
 SCF Done:  E(RB3LYP) =  -368.595557853     A.U. after    8 cycles
 SCF Done:  E(RB3LYP) =  -368.596469421     A.U. after   11 cycles
 SCF Done:  E(RB3LYP) =  -368.595875259     A.U. after   11 cycles
 SCF Done:  E(RB3LYP) =  -368.596264054     A.U. after   11 cycles
 SCF Done:  E(RB3LYP) =  -368.596511659     A.U. after   10 cycles
 SCF Done:  E(RB3LYP) =  -368.596539265     A.U. after    8 cycles
 SCF Done:  E(RB3LYP) =  -368.596544287     A.U. after    8 cycles
 SCF Done:  E(RB3LYP) =  -368.596544146     A.U. after    7 cycles
 SCF Done:  E(RB3LYP) =  -368.596543916     A.U. after    7 cycles
 SCF Done:  E(RB3LYP) =  -368.596546368     A.U. after    8 cycles
 SCF Done:  E(RB3LYP) =  -368.596546613     A.U. after    7 cycles
 Optimization completed.
    -- Stationary point found.
 Normal termination of Gaussian 16 at Thu Aug  4 12:40:40 2022.

 ----------------------------------------------------------------------
 #N Geom=AllCheck Guess=TCheck SCRF=Check GenChk RB3LYP/6-31G(2df,p) Fr
 eq
 ----------------------------------------------------------------------

 Structure from the checkpoint file:  "CtCCCCCCCN.chk"
 -------------------
 Title Card Required
 -------------------
 Charge =  0 Multiplicity = 1

                         Standard orientation:
 ---------------------------------------------------------------------
 Center     Atomic      Atomic             Coordinates (Angstroms)
 Number     Number       Type             X           Y           Z
 ---------------------------------------------------------------------
      1          6           0        5.112318   -0.587622    0.026057
      2          6           0        4.073679    0.017384    0.005462
      3          6           0        2.796872    0.720630   -0.018721
      4          6           0        1.581352   -0.228473    0.004434
      5          6           0        0.247234    0.522614   -0.020582
      6          6           0       -0.970604   -0.407488    0.001937
      7          6           0       -2.306133    0.341738   -0.026805
      8          6           0       -3.520825   -0.586163    0.003268
      9          7           0       -4.764791    0.188223   -0.065184
     10          1           0        6.035700   -1.110976    0.043908
     11          1           0        2.746836    1.354937   -0.913770
     12          1           0        2.741305    1.404938    0.838402
     13          1           0        1.640208   -0.858484    0.899955
     14          1           0        1.645217   -0.907598   -0.854024
     15          1           0        0.202482    1.157821   -0.916195
     16          1           0        0.197786    1.207066    0.837983
     17          1           0       -0.924368   -1.042341    0.897686
     18          1           0       -0.918468   -1.091944   -0.856162
     19          1           0       -2.369896    0.970754   -0.922945
     20          1           0       -2.357188    1.026791    0.832251
     21          1           0       -3.450561   -1.242189    0.889856
     22          1           0       -3.492074   -1.247073   -0.872471
     23          1           0       -4.864173    0.745236    0.779500
     24          1           0       -5.562630   -0.440219   -0.077988
 ---------------------------------------------------------------------

 SCF Done:  E(RB3LYP) =  -368.596546613     A.U. after    1 cycles

 The electronic state is 1-A.
 Alpha  occ. eigenvalues --  -14.30368 -10.20421 -10.20061 -10.18494 -10.18077
 Alpha  occ. eigenvalues --  -10.17886 -10.17544 -10.17476 -10.16407  -0.87396
 Alpha  occ. eigenvalues --   -0.81303  -0.77832  -0.73251  -0.69253  -0.63606
 Alpha  occ. eigenvalues --   -0.58645  -0.57827  -0.51985  -0.48722  -0.47515
 Alpha  occ. eigenvalues --   -0.45855  -0.45548  -0.43576  -0.41061  -0.40268
 Alpha  occ. eigenvalues --   -0.38544  -0.36541  -0.35210  -0.33369  -0.32943
 Alpha  occ. eigenvalues --   -0.32287  -0.32187  -0.25794  -0.25749  -0.23236
 Alpha virt. eigenvalues --    0.05910   0.06388   0.08367   0.09284   0.11088
 Alpha virt. eigenvalues --    0.11448   0.12475   0.13460   0.14125   0.14912
 Alpha virt. eigenvalues --    0.16369   0.18378   0.18824   0.19678   0.19744

 Mulliken charges:
               1
     1  C   -0.438533
     2  C    0.293429
     3  C   -0.356143
     4  C   -0.174635
     5  C   -0.178075
     6  C   -0.186206
     7  C   -0.154267
     8  C   -0.148277
     9  N   -0.509336
    10  H    0.191582
    11  H    0.128361
    12  H    0.127655
    13  H    0.107493
    14  H    0.108292
    15  H    0.095575
    16  H    0.093106
    17  H    0.093196
    18  H    0.095226
    19  H    0.105956
    20  H    0.085247
    21  H    0.075252
    22  H    0.100723
    23  H    0.220629
    24  H    0.223752
 Sum of Mulliken charges =  -0.00000

 Dipole moment (field-independent basis, Debye):
    X=             -0.9822    Y=             -0.4180    Z=              0.9636  Tot=              1.4381
 Quadrupole moment (field-independent basis, Debye-Ang):
   XX=            -57.1994   YY=            -56.7324   ZZ=            -57.0890
   XY=              2.2573   XZ=             -5.1046   YZ=              1.3661

  Exact polarizability: 129.436  -9.441  79.705  -0.003   0.933  70.925
 Approx polarizability: 150.451 -20.071 122.384   0.824   1.501 110.436

                      1                      2                      3
                      A                      A                      A
 Frequencies --     40.0705                63.7860                70.1293
 Red. masses --      3.6791                 4.1122                 1.8779
 Frc consts  --      0.0035                 0.0099                 0.0054
 IR Inten    --      0.6667                 0.1383                 2.1627

                      4                      5                      6
                      A                      A                      A
 Frequencies --    102.4354               139.9806               146.0735
 Red. masses --      2.4725                 1.9329                 3.8368
 Frc consts  --      0.0153                 0.0223                 0.0482
 IR Inten    --      0.7037                 1.3097                 0.0341

                      7                      8                      9
                      A                      A                      A
 Frequencies --    158.8787               245.8432               253.5693
 Red. masses --      2.1184                 2.2646                 1.6636
 Frc consts  --      0.0315                 0.0806                 0.0630
 IR Inten    --      0.4309                10.4276                20.1912

                     10                     11                     12
                      A                      A                      A
 Frequencies --    292.3458               349.9498               416.8584
 Red. masses --      2.9599                 3.2189                 3.2316
 Frc consts  --      0.1490                 0.2323                 0.3309
 IR Inten    --     10.2452                 2.9848                 4.0318

                     13                     14                     15
                      A                      A                      A
 Frequencies --    477.1422               541.3421               614.0133
 Red. masses --      3.8556                 4.1522                 1.1978
 Frc consts  --      0.5172                 0.7169                 0.2661
 IR Inten    --      8.8422                 1.7426                44.2605

                     16                     17                     18
                      A                      A                      A
 Frequencies --    633.0103               732.8276               746.9552
 Red. masses --      1.2169                 1.0665                 1.1038
 Frc consts  --      0.2873                 0.3375                 0.3629
 IR Inten    --     43.2615                 3.2264                 0.5153

                     19                     20                     21
                      A                      A                      A
 Frequencies --    791.5549               853.5104               893.9663
 Red. masses --      1.1724                 1.2448                 1.3130
 Frc consts  --      0.4328                 0.5343                 0.6182
 IR Inten    --      4.0558                81.6540                45.9947

                     22                     23                     24
                      A                      A                      A
 Frequencies --    943.4498               966.6050               995.3505
 Red. masses --      4.8843                 2.2389                 1.4252
 Frc consts  --      2.5615                 1.2325                 0.8319
 IR Inten    --      0.3085                 0.5888                 6.9953

                     25                     26                     27
                      A                      A                      A
 Frequencies --   1009.4475              1047.7813              1062.7543
 Red. masses --      3.7613                 2.7419                 2.4348
 Frc consts  --      2.2582                 1.7736                 1.6202
 IR Inten    --      1.0339                 1.6428                 2.0564

                     28                     29                     30
                      A                      A                      A
 Frequencies --   1069.4016              1093.0413              1134.6699
 Red. masses --      2.3537                 2.7635                 1.4715
 Frc consts  --      1.5859                 1.9452                 1.1162
 IR Inten    --      0.3003                 6.7355                 1.2300

                     31                     32                     33
                      A                      A                      A
 Frequencies --   1151.5533              1224.0368              1245.6454
 Red. masses --      1.4803                 1.3637                 1.4035
 Frc consts  --      1.1566                 1.2038                 1.2831
 IR Inten    --      4.7020                 4.0750                 2.2972

                     34                     35                     36
                      A                      A                      A
 Frequencies --   1274.9856              1298.0262              1316.5215
 Red. masses --      1.3478                 1.2663                 1.1609
 Frc consts  --      1.2909                 1.2570                 1.1855
 IR Inten    --      1.7672                 0.3403                 0.1962

                     37                     38                     39
                      A                      A                      A
 Frequencies --   1326.2860              1330.3042              1337.5604
 Red. masses --      1.1235                 1.0916                 1.1450
 Frc consts  --      1.1644                 1.1382                 1.2069
 IR Inten    --      1.5433                 0.4784                 2.3180

                     40                     41                     42
                      A                      A                      A
 Frequencies --   1358.4190              1388.6027              1402.4852
 Red. masses --      1.3757                 1.4848                 1.6277
 Frc consts  --      1.4957                 1.6868                 1.8864
 IR Inten    --      1.2243                 1.2152                 0.0229

                     43                     44                     45
                      A                      A                      A
 Frequencies --   1432.3440              1472.7290              1484.0438
 Red. masses --      1.4763                 1.0825                 1.0708
 Frc consts  --      1.7845                 1.3833                 1.3895
 IR Inten    --     17.1239                 0.9355                 0.1533

                     46                     47                     48
                      A                      A                      A
 Frequencies --   1485.7219              1496.4546              1509.6319
 Red. masses --      1.0808                 1.0912                 1.0958
 Frc consts  --      1.4057                 1.4398                 1.4714
 IR Inten    --      0.3618                 0.0546                 2.5922

                     49                     50                     51
                      A                      A                      A
 Frequencies --   1520.1899              1659.1274              2238.0443
 Red. masses --      1.0940                 1.0888                 5.9395
 Frc consts  --      1.4895                 1.7658                17.5282
 IR Inten    --      1.3393                21.6250                 5.2048

                     52                     53                     54
                      A                      A                      A
 Frequencies --   2932.1963              3000.3453              3000.8507
 Red. masses --      1.0727                 1.0644                 1.0577
 Frc consts  --      5.4337                 5.6456                 5.6118
 IR Inten    --     72.0797                 2.6258                 0.5044

                     55                     56                     57
                      A                      A                      A
 Frequencies --   3009.7585              3012.8547              3024.6849
 Red. masses --      1.0628                 1.0579                 1.0979
 Frc consts  --      5.6723                 5.6581                 5.9179
 IR Inten    --     45.6559                17.6058                 0.6464

                     58                     59                     60
                      A                      A                      A
 Frequencies --   3034.3548              3036.7962              3038.7123
 Red. masses --      1.0611                 1.0813                 1.0995
 Frc consts  --      5.7561                 5.8751                 5.9815
 IR Inten    --     29.4611                61.5110                 5.7516

                     61                     62                     63
                      A                      A                      A
 Frequencies --   3044.4092              3067.3099              3080.1253
 Red. masses --      1.1019                 1.1015                 1.1051
 Frc consts  --      6.0171                 6.1060                 6.1773
 IR Inten    --      0.6999                45.6148                87.1905

                     64                     65                     66
                      A                      A                      A
 Frequencies --   3482.6618              3508.2506              3560.2662
 Red. masses --      1.0496                 1.1618                 1.0916
 Frc consts  --      7.5006                 8.4248                 8.1525
 IR Inten    --      1.4023                68.6903                 0.2259

 - Thermochemistry -
 -------------------
 Temperature   298.150 Kelvin.  Pressure   1.00000 Atm.
 Atom     1 has atomic number  6 and mass  12.00000

 Molecular mass:   125.12045 amu.
 Principal axes and moments of inertia in atomic units:
                           1         2         3
     Eigenvalues --   178.462744779.202324886.10761
           X            0.99999   0.00246  -0.00233
           Y           -0.00243   0.99991   0.01300
           Z            0.00236  -0.01299   0.99991
 This molecule is an asymmetric top.
 Rotational symmetry number  1.
 Rotational temperatures (Kelvin)      0.48533     0.01812     0.01773
 Rotational constants (GHZ):          10.11271     0.37762     0.36936
 Zero-point vibrational energy     566270.5 (Joules/Mol)
                                  135.34190 (Kcal/Mol)
 Warning -- explicit consideration of  15 degrees of freedom as
           vibrations may cause significant error
 Vibrational temperatures:     57.65    91.77   100.90   147.38   201.40
          (Kelvin)            210.17   228.59   353.71   364.83   420.62
                              503.50   599.77   686.50   778.87   883.43
                              910.76  1054.38  1074.70  1138.87  1228.01
                             1286.22  1357.41  1390.73  1432.09  1452.37
                             1507.52  1529.07  1538.63  1572.64  1632.54
                             1656.83  1761.12  1792.21  1834.42  1867.57
                             1894.18  1908.23  1914.01  1924.45  1954.46
                             1997.89  2017.86  2060.82  2118.93  2135.21
                             2137.62  2153.06  2172.02  2187.21  2387.11
                             3220.05  4218.78  4316.83  4317.55  4330.37
                             4334.83  4351.85  4365.76  4369.27  4372.03
                             4380.23  4413.17  4431.61  5010.77  5047.59
                             5122.43

 Zero-point correction=                           0.215681 (Hartree/Particle)
 Thermal correction to Energy=                    0.227297
 Thermal correction to Enthalpy=                  0.228241
 Thermal correction to Gibbs Free Energy=         0.177514
 Sum of electronic and zero-point Energies=           -368.380866
 Sum of electronic and thermal Energies=              -368.369250
 Sum of electronic and thermal Enthalpies=            -368.368306
 Sum of electronic and thermal Free Energies=         -368.419032

                     E (Thermal)             CV                S
                      KCal/Mol        Cal/Mol-Kelvin    Cal/Mol-Kelvin
 Total                  142.631             40.929            106.763
 Electronic               0.000              0.000              0.000
 Translational            0.889              2.981             40.386
 Rotational               0.889              2.981             29.812
 Vibrational            140.853             34.967             36.565
 Vibration     1          0.594              1.981              5.256
 Vibration     2          0.597              1.972              4.336
 Vibration     3          0.598              1.968              4.150
 Vibration     4          0.605              1.947              3.407
 Vibration     5          0.615              1.913              2.804
 Vibration     6          0.617              1.907              2.723
 Vibration     7          0.621              1.893              2.563
 Vibration     8          0.660              1.770              1.760
 Vibration     9          0.665              1.757              1.706
 Vibration    10          0.688              1.688              1.460
 Vibration    11          0.727              1.575              1.166
 Vibration    12          0.780              1.434              0.903
 Vibration    13          0.834              1.301              0.718
 Vibration    14          0.896              1.159              0.562
 Vibration    15          0.973              1.002              0.426

 Optimization completed.
    -- Stationary point found.
 Normal termination of Gaussian 16 at Thu Aug  4 13:10:22 2022.
