 Gaussian 16, Revision A.03,
 Gaussian 16:  ES64L-G16RevA.03 25-Dec-2016

 -----------------------------
 # opt freq b3lyp/6-31g(2df,p)
 -----------------------------

 -------------------
 Title Card Required
 -------------------
 Symbolic Z-matrix:
 Charge =  0 Multiplicity = 1

 SCF Done:  E(RB3LYP) =  -352.544574314     A.U. after   13 cycles
 SCF Done:  E(RB3LYP) =  -352.563998387     A.U. after   11 cycles
 SCF Done:  E(RB3LYP) =  -352.564918647     A.U. after   11 cycles
 SCF Done:  E(RB3LYP) =  -352.559233348     A.U. after   13 cycles
 SCF Done:  E(RB3LYP) =  -352.564328792     A.U. after   11 cycles
 SCF Done:  E(RB3LYP) =  -352.565203747     A.U. after    9 cycles
 SCF Done:  E(RB3LYP) =  -352.563917385     A.U. after   11 cycles
 SCF Done:  E(RB3LYP) =  -352.565314035     A.U. after   10 cycles
 SCF Done:  E(RB3LYP) =  -352.565310495     A.U. after    9 cycles
 SCF Done:  E(RB3LYP) =  -352.565401930     A.U. after    9 cycles
 SCF Done:  E(RB3LYP) =  -352.565408288     A.U. after    8 cycles
 SCF Done:  E(RB3LYP) =  -352.565409226     A.U. after    7 cycles
 SCF Done:  E(RB3LYP) =  -352.565409412     A.U. after    7 cycles
 SCF Done:  E(RB3LYP) =  -352.565409434     A.U. after    6 cycles
 Optimization completed.
    -- Stationary point found.
 Normal termination of Gaussian 16 at Thu Aug  4 09:04:11 2022.

 ----------------------------------------------------------------------
 #N Geom=AllCheck Guess=TCheck SCRF=Check GenChk RB3LYP/6-31G(2df,p) Fr
 eq
 ----------------------------------------------------------------------

 Structure from the checkpoint file:  "CtCCpCCCpCCC.chk"
 -------------------
 Title Card Required
 -------------------
 Charge =  0 Multiplicity = 1

                         Standard orientation:
 ---------------------------------------------------------------------
 Center     Atomic      Atomic             Coordinates (Angstroms)
 Number     Number       Type             X           Y           Z
 ---------------------------------------------------------------------
      1          6           0       -0.920550    2.945949   -0.165467
      2          6           0       -0.500189    1.846511    0.082502
      3          6           0        0.034475    0.510646    0.349877
      4          6           0       -0.891239   -0.583447   -0.232884
      5          6           0       -2.304258   -0.586547    0.358903
      6          6           0       -3.195021   -1.678553   -0.239494
      7          6           0        1.490282    0.413131   -0.174157
      8          6           0        2.255819   -0.832178    0.288015
      9          6           0        3.715893   -0.824923   -0.175293
     10          1           0       -1.295803    3.917792   -0.370283
     11          1           0        0.065443    0.375132    1.441869
     12          1           0       -0.428052   -1.561335   -0.058345
     13          1           0       -0.946122   -0.451081   -1.321293
     14          1           0       -2.763418    0.395609    0.200083
     15          1           0       -2.239045   -0.721841    1.446978
     16          1           0       -3.306878   -1.548927   -1.321795
     17          1           0       -4.196363   -1.661548    0.201953
     18          1           0       -2.773487   -2.675798   -0.069218
     19          1           0        2.031599    1.306609    0.158156
     20          1           0        1.473936    0.457978   -1.270807
     21          1           0        1.766534   -1.739912   -0.083624
     22          1           0        2.219847   -0.892207    1.384182
     23          1           0        3.783770   -0.793602   -1.268386
     24          1           0        4.246404   -1.719446    0.165475
     25          1           0        4.250360    0.049035    0.213045
 ---------------------------------------------------------------------

 SCF Done:  E(RB3LYP) =  -352.565409434     A.U. after    1 cycles

 The electronic state is 1-A.
 Alpha  occ. eigenvalues --  -10.20631 -10.18166 -10.18125 -10.18052 -10.17528
 Alpha  occ. eigenvalues --  -10.17381 -10.17370 -10.17027 -10.16448  -0.82574
 Alpha  occ. eigenvalues --   -0.77779  -0.75335  -0.71261  -0.67402  -0.62738
 Alpha  occ. eigenvalues --   -0.58462  -0.57623  -0.51895  -0.47841  -0.46386
 Alpha  occ. eigenvalues --   -0.43915  -0.43591  -0.42520  -0.39537  -0.39069
 Alpha  occ. eigenvalues --   -0.37475  -0.36064  -0.35156  -0.33907  -0.33120
 Alpha  occ. eigenvalues --   -0.32686  -0.32294  -0.31584  -0.25811  -0.25636
 Alpha virt. eigenvalues --    0.05695   0.06242   0.09429   0.10711   0.11588
 Alpha virt. eigenvalues --    0.12113   0.12438   0.13529   0.15268   0.15819
 Alpha virt. eigenvalues --    0.16681   0.17594   0.18009   0.18669   0.19168

 Mulliken charges:
               1
     1  C   -0.469275
     2  C    0.330442
     3  C   -0.182232
     4  C   -0.166576
     5  C   -0.171228
     6  C   -0.381454
     7  C   -0.171903
     8  C   -0.175903
     9  C   -0.384481
    10  H    0.190781
    11  H    0.098374
    12  H    0.095565
    13  H    0.099765
    14  H    0.113222
    15  H    0.091315
    16  H    0.114465
    17  H    0.111681
    18  H    0.111027
    19  H    0.104248
    20  H    0.101715
    21  H    0.101944
    22  H    0.095050
    23  H    0.115802
    24  H    0.111864
    25  H    0.115792
 Sum of Mulliken charges =  -0.00000

 Dipole moment (field-independent basis, Debye):
    X=              0.3060    Y=             -0.5939    Z=              0.0768  Tot=              0.6725
 Quadrupole moment (field-independent basis, Debye-Ang):
   XX=            -58.0311   YY=            -56.4707   ZZ=            -58.0069
   XY=             -1.2693   XZ=              0.5190   YZ=             -0.9177

  Exact polarizability: 105.944  -6.847 106.838   0.943  -3.289  75.797
 Approx polarizability: 126.169 -14.537 156.257   3.290  -8.499 118.288

                      1                      2                      3
                      A                      A                      A
 Frequencies --     58.6770                73.4650                80.8412
 Red. masses --      1.5467                 1.8868                 3.0346
 Frc consts  --      0.0031                 0.0060                 0.0117
 IR Inten    --      0.0029                 0.0095                 0.0785

                      4                      5                      6
                      A                      A                      A
 Frequencies --     97.0062               124.0670               166.1424
 Red. masses --      2.3307                 3.6440                 2.4506
 Frc consts  --      0.0129                 0.0330                 0.0399
 IR Inten    --      0.0146                 0.0217                 0.0487

                      7                      8                      9
                      A                      A                      A
 Frequencies --    224.4358               245.2412               245.7907
 Red. masses --      2.7085                 1.1234                 1.1185
 Frc consts  --      0.0804                 0.0398                 0.0398
 IR Inten    --      0.5151                 0.0298                 0.0495

                     10                     11                     12
                      A                      A                      A
 Frequencies --    283.8790               304.8868               368.7358
 Red. masses --      3.1215                 3.3978                 2.9286
 Frc consts  --      0.1482                 0.1861                 0.2346
 IR Inten    --      0.6701                 0.3750                 0.1841

                     13                     14                     15
                      A                      A                      A
 Frequencies --    438.6960               534.8750               576.3871
 Red. masses --      4.1539                 3.1731                 3.8858
 Frc consts  --      0.4710                 0.5349                 0.7606
 IR Inten    --      1.7222                 0.8997                 2.8934

                     16                     17                     18
                      A                      A                      A
 Frequencies --    623.2476               632.0494               742.0660
 Red. masses --      1.2082                 1.2212                 1.1201
 Frc consts  --      0.2765                 0.2874                 0.3634
 IR Inten    --     41.8275                43.9019                 3.2705

                     19                     20                     21
                      A                      A                      A
 Frequencies --    746.0926               819.2341               855.7605
 Red. masses --      1.1572                 1.9278                 1.2845
 Frc consts  --      0.3795                 0.7623                 0.5542
 IR Inten    --      2.5961                 0.5619                 0.1522

                     22                     23                     24
                      A                      A                      A
 Frequencies --    902.9586               911.0781               932.9156
 Red. masses --      1.9330                 1.6023                 1.7418
 Frc consts  --      0.9286                 0.7836                 0.8932
 IR Inten    --      2.7343                 1.3901                 0.9530

                     25                     26                     27
                      A                      A                      A
 Frequencies --   1001.5300              1030.1543              1053.2297
 Red. masses --      2.0313                 3.0885                 1.9654
 Frc consts  --      1.2005                 1.9311                 1.2845
 IR Inten    --      0.4807                 0.0489                 0.2607

                     28                     29                     30
                      A                      A                      A
 Frequencies --   1068.8016              1073.1415              1126.0032
 Red. masses --      2.0113                 1.9842                 2.2837
 Frc consts  --      1.3537                 1.3463                 1.7060
 IR Inten    --      0.6116                 0.1164                 1.9078

                     31                     32                     33
                      A                      A                      A
 Frequencies --   1139.5005              1174.0425              1244.7321
 Red. masses --      1.7374                 2.1569                 1.4494
 Frc consts  --      1.3292                 1.7517                 1.3231
 IR Inten    --      3.2065                 1.1766                 1.5726

                     34                     35                     36
                      A                      A                      A
 Frequencies --   1260.1057              1296.0919              1306.0561
 Red. masses --      1.3235                 1.2313                 1.2758
 Frc consts  --      1.2382                 1.2187                 1.2822
 IR Inten    --      1.7666                 2.4483                 4.9021

                     37                     38                     39
                      A                      A                      A
 Frequencies --   1330.6834              1333.4128              1345.1201
 Red. masses --      1.1210                 1.1459                 1.2791
 Frc consts  --      1.1695                 1.2004                 1.3636
 IR Inten    --      1.0537                 0.1593                 0.5130

                     40                     41                     42
                      A                      A                      A
 Frequencies --   1357.6231              1391.9507              1397.4844
 Red. masses --      1.3735                 1.5246                 1.4918
 Frc consts  --      1.4916                 1.7404                 1.7165
 IR Inten    --      3.9764                 1.8581                 2.3347

                     43                     44                     45
                      A                      A                      A
 Frequencies --   1412.7093              1413.2618              1480.2585
 Red. masses --      1.2320                 1.2346                 1.0750
 Frc consts  --      1.4486                 1.4529                 1.3879
 IR Inten    --      0.6777                 1.3011                 0.4429

                     46                     47                     48
                      A                      A                      A
 Frequencies --   1484.9148              1493.4438              1494.3402
 Red. masses --      1.0742                 1.0619                 1.0578
 Frc consts  --      1.3956                 1.3954                 1.3917
 IR Inten    --      0.5658                 1.2439                 0.4110

                     49                     50                     51
                      A                      A                      A
 Frequencies --   1499.4959              1500.0359              1510.4086
 Red. masses --      1.0402                 1.0404                 1.0823
 Frc consts  --      1.3780                 1.3793                 1.4548
 IR Inten    --      4.8746                 5.7031                 2.0504

                     52                     53                     54
                      A                      A                      A
 Frequencies --   1511.1512              2229.1930              2986.9845
 Red. masses --      1.0842                 5.9481                 1.0801
 Frc consts  --      1.4588                17.4150                 5.6778
 IR Inten    --      2.8926                 3.3147                 8.2357

                     55                     56                     57
                      A                      A                      A
 Frequencies --   3014.0095              3016.0004              3024.2888
 Red. masses --      1.0617                 1.0645                 1.0555
 Frc consts  --      5.6823                 5.7050                 5.6879
 IR Inten    --      1.9901                14.1372                13.8143

                     58                     59                     60
                      A                      A                      A
 Frequencies --   3026.2388              3028.8895              3030.8306
 Red. masses --      1.0517                 1.0443                 1.0423
 Frc consts  --      5.6750                 5.6448                 5.6411
 IR Inten    --     24.8199                47.3274                55.4850

                     61                     62                     63
                      A                      A                      A
 Frequencies --   3046.9640              3057.0628              3071.1922
 Red. masses --      1.0968                 1.0938                 1.1033
 Frc consts  --      5.9994                 6.0225                 6.1313
 IR Inten    --      2.6076                 3.7975                29.2930

                     64                     65                     66
                      A                      A                      A
 Frequencies --   3074.9146              3096.2709              3098.1186
 Red. masses --      1.1011                 1.1023                 1.1023
 Frc consts  --      6.1338                 6.2261                 6.2335
 IR Inten    --     15.0919                69.2392                47.2441

                     67                     68                     69
                      A                      A                      A
 Frequencies --   3100.6613              3102.4038              3505.0257
 Red. masses --      1.1006                 1.1010                 1.1610
 Frc consts  --      6.2346                 6.2438                 8.4037
 IR Inten    --     38.1106                42.8243                66.8189

 - Thermochemistry -
 -------------------
 Temperature   298.150 Kelvin.  Pressure   1.00000 Atm.
 Atom     1 has atomic number  6 and mass  12.00000

 Molecular mass:   124.12520 amu.
 Principal axes and moments of inertia in atomic units:
                           1         2         3
     Eigenvalues --   959.791662140.548912959.43457
           X            0.99992   0.01246  -0.00010
           Y           -0.01246   0.99992   0.00004
           Z            0.00010  -0.00003   1.00000
 This molecule is an asymmetric top.
 Rotational symmetry number  1.
 Warning -- assumption of classical behavior for rotation
           may cause significant error
 Rotational temperatures (Kelvin)      0.09024     0.04046     0.02927
 Rotational constants (GHZ):           1.88035     0.84312     0.60983
 Zero-point vibrational energy     593510.8 (Joules/Mol)
                                  141.85249 (Kcal/Mol)
 Warning -- explicit consideration of  15 degrees of freedom as
           vibrations may cause significant error
 Vibrational temperatures:     84.42   105.70   116.31   139.57   178.50
          (Kelvin)            239.04   322.91   352.85   353.64   408.44
                              438.66   530.53   631.19   769.57   829.29
                              896.71   909.38  1067.67  1073.46  1178.70
                             1231.25  1299.16  1310.84  1342.26  1440.98
                             1482.16  1515.36  1537.77  1544.01  1620.07
                             1639.49  1689.19  1790.89  1813.01  1864.79
                             1879.12  1914.56  1918.48  1935.33  1953.32
                             2002.71  2010.67  2032.57  2033.37  2129.76
                             2136.46  2148.73  2150.02  2157.44  2158.22
                             2173.14  2174.21  3207.31  4297.60  4336.49
                             4339.35  4351.28  4354.08  4357.90  4360.69
                             4383.90  4398.43  4418.76  4424.12  4454.84
                             4457.50  4461.16  4463.67  5042.95

 Zero-point correction=                           0.226056 (Hartree/Particle)
 Thermal correction to Energy=                    0.237809
 Thermal correction to Enthalpy=                  0.238753
 Thermal correction to Gibbs Free Energy=         0.188225
 Sum of electronic and zero-point Energies=           -352.339353
 Sum of electronic and thermal Energies=              -352.327601
 Sum of electronic and thermal Enthalpies=            -352.326657
 Sum of electronic and thermal Free Energies=         -352.377184

                     E (Thermal)             CV                S
                      KCal/Mol        Cal/Mol-Kelvin    Cal/Mol-Kelvin
 Total                  149.227             42.154            106.344
 Electronic               0.000              0.000              0.000
 Translational            0.889              2.981             40.362
 Rotational               0.889              2.981             30.187
 Vibrational            147.450             36.192             35.795
 Vibration     1          0.596              1.974              4.501
 Vibration     2          0.599              1.967              4.058
 Vibration     3          0.600              1.962              3.870
 Vibration     4          0.603              1.951              3.514
 Vibration     5          0.610              1.929              3.036
 Vibration     6          0.624              1.884              2.479
 Vibration     7          0.649              1.804              1.923
 Vibration     8          0.660              1.771              1.765
 Vibration     9          0.660              1.770              1.761
 Vibration    10          0.682              1.704              1.510
 Vibration    11          0.696              1.664              1.390
 Vibration    12          0.741              1.536              1.085
 Vibration    13          0.799              1.386              0.831
 Vibration    14          0.890              1.173              0.576
 Vibration    15          0.933              1.082              0.492

 Optimization completed.
    -- Stationary point found.
 Normal termination of Gaussian 16 at Thu Aug  4 09:42:39 2022.
