 Gaussian 16, Revision A.03,
 Gaussian 16:  ES64L-G16RevA.03 25-Dec-2016

 -----------------------------
 # opt freq b3lyp/6-31g(2df,p)
 -----------------------------

 -------------------
 Title Card Required
 -------------------
 Symbolic Z-matrix:
 Charge =  0 Multiplicity = 1

 SCF Done:  E(RB3LYP) =  -388.434183676     A.U. after   14 cycles
 SCF Done:  E(RB3LYP) =  -388.453469764     A.U. after   12 cycles
 SCF Done:  E(RB3LYP) =  -388.453864151     A.U. after   12 cycles
 SCF Done:  E(RB3LYP) =  -388.450751799     A.U. after   13 cycles
 SCF Done:  E(RB3LYP) =  -388.453636788     A.U. after   12 cycles
 SCF Done:  E(RB3LYP) =  -388.454525611     A.U. after    9 cycles
 SCF Done:  E(RB3LYP) =  -388.454440311     A.U. after   10 cycles
 SCF Done:  E(RB3LYP) =  -388.454483189     A.U. after   12 cycles
 SCF Done:  E(RB3LYP) =  -388.454709978     A.U. after   11 cycles
 SCF Done:  E(RB3LYP) =  -388.454798057     A.U. after   10 cycles
 SCF Done:  E(RB3LYP) =  -388.454753121     A.U. after   10 cycles
 SCF Done:  E(RB3LYP) =  -388.454804244     A.U. after   10 cycles
 SCF Done:  E(RB3LYP) =  -388.454810693     A.U. after    8 cycles
 SCF Done:  E(RB3LYP) =  -388.454810830     A.U. after    7 cycles
 SCF Done:  E(RB3LYP) =  -388.454810890     A.U. after    6 cycles
 Optimization completed.
    -- Stationary point found.
 Normal termination of Gaussian 16 at Thu Aug  4 09:17:07 2022.

 ----------------------------------------------------------------------
 #N Geom=AllCheck Guess=TCheck SCRF=Check GenChk RB3LYP/6-31G(2df,p) Fr
 eq
 ----------------------------------------------------------------------

 Structure from the checkpoint file:  "CtCCpOCpCpCpCC.chk"
 -------------------
 Title Card Required
 -------------------
 Charge =  0 Multiplicity = 1

                         Standard orientation:
 ---------------------------------------------------------------------
 Center     Atomic      Atomic             Coordinates (Angstroms)
 Number     Number       Type             X           Y           Z
 ---------------------------------------------------------------------
      1          6           0       -2.513877    1.770845   -0.364738
      2          6           0       -1.663334    0.975679   -0.063950
      3          6           0       -0.640171   -0.021539    0.284800
      4          8           0       -0.927099   -1.273554   -0.321393
      5          6           0       -2.082436   -1.910323    0.182123
      6          6           0        0.779932    0.402728   -0.159901
      7          6           0        1.140956    1.781587    0.406538
      8          6           0        1.801267   -0.679699    0.238071
      9          6           0        3.189229   -0.491173   -0.382408
     10          1           0       -3.262355    2.477505   -0.626645
     11          1           0       -0.637409   -0.141266    1.383851
     12          1           0       -2.170303   -2.866127   -0.339464
     13          1           0       -2.988084   -1.316309    0.000525
     14          1           0       -1.999481   -2.100022    1.263757
     15          1           0        0.749909    0.465489   -1.255800
     16          1           0        1.174746    1.758148    1.502762
     17          1           0        0.412994    2.539722    0.108391
     18          1           0        2.123641    2.103190    0.052622
     19          1           0        1.403002   -1.653070   -0.059339
     20          1           0        1.888131   -0.698884    1.334004
     21          1           0        3.130571   -0.460794   -1.476298
     22          1           0        3.849695   -1.320566   -0.110484
     23          1           0        3.672335    0.432790   -0.049939
 ---------------------------------------------------------------------

 SCF Done:  E(RB3LYP) =  -388.454810890     A.U. after    1 cycles

 The electronic state is 1-A.
 Alpha  occ. eigenvalues --  -19.14376 -10.25233 -10.22207 -10.18835 -10.18161
 Alpha  occ. eigenvalues --  -10.17686 -10.17278 -10.17015 -10.16960  -1.03662
 Alpha  occ. eigenvalues --   -0.81532  -0.76026  -0.72283  -0.70406  -0.64793
 Alpha  occ. eigenvalues --   -0.63063  -0.56370  -0.53280  -0.49361  -0.48660
 Alpha  occ. eigenvalues --   -0.46809  -0.44738  -0.42216  -0.42148  -0.39710
 Alpha  occ. eigenvalues --   -0.37963  -0.37081  -0.35520  -0.33846  -0.32752
 Alpha  occ. eigenvalues --   -0.31955  -0.31486  -0.27600  -0.26547  -0.26151
 Alpha virt. eigenvalues --    0.03812   0.05099   0.09627   0.10862   0.12453
 Alpha virt. eigenvalues --    0.12843   0.13699   0.14534   0.15839   0.16431
 Alpha virt. eigenvalues --    0.16615   0.17450   0.17724   0.18183   0.19265

 Mulliken charges:
               1
     1  C   -0.460240
     2  C    0.334319
     3  C   -0.064895
     4  O   -0.234572
     5  C   -0.240072
     6  C    0.022569
     7  C   -0.410678
     8  C   -0.174457
     9  C   -0.396869
    10  H    0.196823
    11  H    0.086185
    12  H    0.127429
    13  H    0.120366
    14  H    0.103078
    15  H    0.087769
    16  H    0.110632
    17  H    0.129968
    18  H    0.117933
    19  H    0.117057
    20  H    0.084766
    21  H    0.115497
    22  H    0.111971
    23  H    0.115421
 Sum of Mulliken charges =   0.00000

 Dipole moment (field-independent basis, Debye):
    X=             -0.4231    Y=              0.1241    Z=              0.6791  Tot=              0.8097
 Quadrupole moment (field-independent basis, Debye-Ang):
   XX=            -52.7425   YY=            -54.1957   ZZ=            -56.8122
   XY=             -0.4176   XZ=              0.1741   YZ=             -1.7925

  Exact polarizability: 104.192  -8.304  93.138   3.144  -3.045  69.299
 Approx polarizability: 134.054 -18.917 131.360   7.349  -6.208 108.899

                      1                      2                      3
                      A                      A                      A
 Frequencies --     54.6914                70.1904                99.9996
 Red. masses --      2.6498                 2.1327                 2.4636
 Frc consts  --      0.0047                 0.0062                 0.0145
 IR Inten    --      0.0476                 0.1279                 2.6598

                      4                      5                      6
                      A                      A                      A
 Frequencies --    137.4636               180.6316               183.5365
 Red. masses --      3.5932                 1.3561                 1.8630
 Frc consts  --      0.0400                 0.0261                 0.0370
 IR Inten    --      0.1308                 0.1469                 1.2228

                      7                      8                      9
                      A                      A                      A
 Frequencies --    209.6665               248.0952               261.2233
 Red. masses --      1.0585                 2.1103                 1.9570
 Frc consts  --      0.0274                 0.0765                 0.0787
 IR Inten    --      0.0859                 3.4403                 2.3212

                     10                     11                     12
                      A                      A                      A
 Frequencies --    281.9159               346.6054               368.2705
 Red. masses --      2.3533                 3.3609                 2.7711
 Frc consts  --      0.1102                 0.2379                 0.2214
 IR Inten    --      0.0765                 1.5750                 2.1386

                     13                     14                     15
                      A                      A                      A
 Frequencies --    430.4654               443.3014               561.6405
 Red. masses --      2.4451                 4.8786                 3.2179
 Frc consts  --      0.2669                 0.5649                 0.5980
 IR Inten    --      1.3365                 0.9467                 1.3014

                     16                     17                     18
                      A                      A                      A
 Frequencies --    595.8469               623.7985               666.1835
 Red. masses --      5.7240                 1.2182                 1.2533
 Frc consts  --      1.1973                 0.2793                 0.3277
 IR Inten    --      6.4193                42.3325                34.7770

                     19                     20                     21
                      A                      A                      A
 Frequencies --    779.8329               849.3833               877.7852
 Red. masses --      1.2488                 1.9246                 2.3444
 Frc consts  --      0.4474                 0.8181                 1.0643
 IR Inten    --      4.0675                 0.2151                 7.5292

                     22                     23                     24
                      A                      A                      A
 Frequencies --    965.3814               975.4714               989.8130
 Red. masses --      2.4799                 1.5812                 1.8859
 Frc consts  --      1.3617                 0.8865                 1.0886
 IR Inten    --      8.4216                 8.7697                25.3009

                     25                     26                     27
                      A                      A                      A
 Frequencies --   1011.0282              1054.5863              1129.5213
 Red. masses --      2.0357                 2.8921                 3.4538
 Frc consts  --      1.2260                 1.8951                 2.5962
 IR Inten    --      6.8580                 2.1332               107.9577

                     28                     29                     30
                      A                      A                      A
 Frequencies --   1147.5844              1155.8604              1182.6051
 Red. masses --      2.3004                 2.7047                 1.7180
 Frc consts  --      1.7849                 2.1290                 1.4157
 IR Inten    --     15.8535                61.4190                 5.5944

                     31                     32                     33
                      A                      A                      A
 Frequencies --   1184.4653              1225.3689              1271.9191
 Red. masses --      1.3130                 1.5758                 1.3623
 Frc consts  --      1.0854                 1.3940                 1.2985
 IR Inten    --      2.7124                 9.1491                13.5858

                     34                     35                     36
                      A                      A                      A
 Frequencies --   1299.0331              1347.1819              1353.4878
 Red. masses --      1.2475                 1.2598                 1.2514
 Frc consts  --      1.2403                 1.3471                 1.3507
 IR Inten    --      0.5895                 5.0035                19.0878

                     37                     38                     39
                      A                      A                      A
 Frequencies --   1364.7480              1383.6791              1409.1167
 Red. masses --      1.3509                 1.4806                 1.2645
 Frc consts  --      1.4825                 1.6702                 1.4793
 IR Inten    --      3.0041                 0.2590                 3.3520

                     40                     41                     42
                      A                      A                      A
 Frequencies --   1415.6489              1477.6403              1484.3094
 Red. masses --      1.2183                 1.1473                 1.0483
 Frc consts  --      1.4385                 1.4760                 1.3608
 IR Inten    --      3.7664                 1.1806                 3.2164

                     43                     44                     45
                      A                      A                      A
 Frequencies --   1488.5253              1495.8463              1500.1350
 Red. masses --      1.0615                 1.0448                 1.0471
 Frc consts  --      1.3857                 1.3774                 1.3883
 IR Inten    --      0.3882                 4.8869                 2.2214

                     46                     47                     48
                      A                      A                      A
 Frequencies --   1509.0904              1511.2986              1511.5330
 Red. masses --      1.0720                 1.0555                 1.0447
 Frc consts  --      1.4384                 1.4203                 1.4064
 IR Inten    --      4.0179                 9.6998                 4.1598

                     49                     50                     51
                      A                      A                      A
 Frequencies --   2225.8884              2933.1395              2981.3083
 Red. masses --      5.9034                 1.0794                 1.0413
 Frc consts  --     17.2330                 5.4712                 5.4530
 IR Inten    --      0.9220                27.1671                61.0011

                     52                     53                     54
                      A                      A                      A
 Frequencies --   3006.2984              3024.9596              3032.7689
 Red. masses --      1.0710                 1.0708                 1.0385
 Frc consts  --      5.7030                 5.7730                 5.6277
 IR Inten    --     13.0505                 9.2390                33.6295

                     55                     56                     57
                      A                      A                      A
 Frequencies --   3035.1498              3043.9660              3086.4743
 Red. masses --      1.0494                 1.0964                 1.0931
 Frc consts  --      5.6955                 5.9852                 6.1355
 IR Inten    --     39.0687                38.9237                 3.0985

                     58                     59                     60
                      A                      A                      A
 Frequencies --   3098.0682              3103.9713              3110.4807
 Red. masses --      1.1009                 1.0946                 1.0976
 Frc consts  --      6.2256                 6.2135                 6.2565
 IR Inten    --     29.7244                31.5125                45.2829

                     61                     62                     63
                      A                      A                      A
 Frequencies --   3118.9310              3126.1289              3501.6126
 Red. masses --      1.0982                 1.1010                 1.1620
 Frc consts  --      6.2941                 6.3396                 8.3942
 IR Inten    --     25.8050                21.0187                63.1552

 - Thermochemistry -
 -------------------
 Temperature   298.150 Kelvin.  Pressure   1.00000 Atm.
 Atom     1 has atomic number  6 and mass  12.00000

 Molecular mass:   126.10447 amu.
 Principal axes and moments of inertia in atomic units:
                           1         2         3
     Eigenvalues --   817.065691657.810162322.80605
           X            0.99970   0.02387  -0.00559
           Y           -0.02390   0.99970  -0.00562
           Z            0.00545   0.00576   0.99997
 This molecule is an asymmetric top.
 Rotational symmetry number  1.
 Warning -- assumption of classical behavior for rotation
           may cause significant error
 Rotational temperatures (Kelvin)      0.10601     0.05225     0.03729
 Rotational constants (GHZ):           2.20881     1.08863     0.77697
 Zero-point vibrational energy     529614.0 (Joules/Mol)
                                  126.58079 (Kcal/Mol)
 Warning -- explicit consideration of  16 degrees of freedom as
           vibrations may cause significant error
 Vibrational temperatures:     78.69   100.99   143.88   197.78   259.89
          (Kelvin)            264.07   301.66   356.95   375.84   405.61
                              498.69   529.86   619.34   637.81   808.08
                              857.29   897.51   958.49  1122.01  1222.07
                             1262.94  1388.97  1403.49  1424.12  1454.64
                             1517.31  1625.13  1651.12  1663.03  1701.50
                             1704.18  1763.03  1830.01  1869.02  1938.29
                             1947.37  1963.57  1990.81  2027.40  2036.80
                             2125.99  2135.59  2141.66  2152.19  2158.36
                             2171.24  2174.42  2174.76  3202.56  4220.13
                             4289.44  4325.39  4352.24  4363.48  4366.90
                             4379.59  4440.75  4457.43  4465.92  4475.29
                             4487.45  4497.80  5038.04

 Zero-point correction=                           0.201719 (Hartree/Particle)
 Thermal correction to Energy=                    0.213195
 Thermal correction to Enthalpy=                  0.214139
 Thermal correction to Gibbs Free Energy=         0.164793
 Sum of electronic and zero-point Energies=           -388.253092
 Sum of electronic and thermal Energies=              -388.241616
 Sum of electronic and thermal Enthalpies=            -388.240672
 Sum of electronic and thermal Free Energies=         -388.290017

                     E (Thermal)             CV                S
                      KCal/Mol        Cal/Mol-Kelvin    Cal/Mol-Kelvin
 Total                  133.782             41.119            103.857
 Electronic               0.000              0.000              0.000
 Translational            0.889              2.981             40.409
 Rotational               0.889              2.981             29.532
 Vibrational            132.004             35.158             33.915
 Vibration     1          0.596              1.976              4.640
 Vibration     2          0.598              1.968              4.148
 Vibration     3          0.604              1.949              3.454
 Vibration     4          0.614              1.916              2.839
 Vibration     5          0.630              1.866              2.322
 Vibration     6          0.631              1.862              2.292
 Vibration     7          0.642              1.826              2.047
 Vibration     8          0.662              1.766              1.744
 Vibration     9          0.669              1.744              1.654
 Vibration    10          0.681              1.707              1.522
 Vibration    11          0.725              1.582              1.182
 Vibration    12          0.741              1.537              1.087
 Vibration    13          0.792              1.404              0.857
 Vibration    14          0.803              1.376              0.816
 Vibration    15          0.917              1.114              0.521
 Vibration    16          0.954              1.041              0.457

 Optimization completed.
    -- Stationary point found.
 Normal termination of Gaussian 16 at Thu Aug  4 09:53:48 2022.
