 Gaussian 16, Revision A.03,
 Gaussian 16:  ES64L-G16RevA.03 25-Dec-2016

 -----------------------------
 # opt freq b3lyp/6-31g(2df,p)
 -----------------------------

 -------------------
 Title Card Required
 -------------------
 Symbolic Z-matrix:
 Charge =  0 Multiplicity = 1

 SCF Done:  E(RB3LYP) =  -421.850942198     A.U. after   15 cycles
 SCF Done:  E(RB3LYP) =  -421.887394017     A.U. after   13 cycles
 SCF Done:  E(RB3LYP) =  -421.890612870     A.U. after   13 cycles
 SCF Done:  E(RB3LYP) =  -421.877069475     A.U. after   15 cycles
 SCF Done:  E(RB3LYP) =  -421.888900895     A.U. after   13 cycles
 SCF Done:  E(RB3LYP) =  -421.890900437     A.U. after   11 cycles
 SCF Done:  E(RB3LYP) =  -421.890664052     A.U. after   13 cycles
 SCF Done:  E(RB3LYP) =  -421.891236766     A.U. after   12 cycles
 SCF Done:  E(RB3LYP) =  -421.891433417     A.U. after   12 cycles
 SCF Done:  E(RB3LYP) =  -421.891453857     A.U. after   12 cycles
 SCF Done:  E(RB3LYP) =  -421.892650366     A.U. after   14 cycles
 SCF Done:  E(RB3LYP) =  -421.894199625     A.U. after   13 cycles
 SCF Done:  E(RB3LYP) =  -421.895849284     A.U. after   12 cycles
 SCF Done:  E(RB3LYP) =  -421.896175854     A.U. after   13 cycles
 SCF Done:  E(RB3LYP) =  -421.895216102     A.U. after   13 cycles
 SCF Done:  E(RB3LYP) =  -421.896753311     A.U. after   12 cycles
 SCF Done:  E(RB3LYP) =  -421.896771305     A.U. after   10 cycles
 SCF Done:  E(RB3LYP) =  -421.896772885     A.U. after    8 cycles
 SCF Done:  E(RB3LYP) =  -421.896773072     A.U. after    7 cycles
 Optimization completed.
    -- Stationary point found.
 Normal termination of Gaussian 16 at Thu Aug  4 11:27:46 2022.

 ----------------------------------------------------------------------
 #N Geom=AllCheck Guess=TCheck SCRF=Check GenChk RB3LYP/6-31G(2df,p) Fr
 eq
 ----------------------------------------------------------------------

 Structure from the checkpoint file:  "CtCCtCCCpOpCO.chk"
 -------------------
 Title Card Required
 -------------------
 Charge =  0 Multiplicity = 1

                         Standard orientation:
 ---------------------------------------------------------------------
 Center     Atomic      Atomic             Coordinates (Angstroms)
 Number     Number       Type             X           Y           Z
 ---------------------------------------------------------------------
      1          6           0        4.740790   -0.475678   -0.283419
      2          6           0        3.592402   -0.131164   -0.138566
      3          6           0        2.299319    0.260273    0.023540
      4          6           0        1.148454    0.604412    0.167302
      5          6           0       -0.231979    1.030624    0.326146
      6          6           0       -1.253445   -0.012100   -0.157148
      7          8           0       -1.174092   -1.136532    0.690489
      8          6           0       -2.679474    0.547249   -0.138992
      9          8           0       -3.618628   -0.493410   -0.391247
     10          1           0        5.749510   -0.781723   -0.407930
     11          1           0       -0.389825    1.967909   -0.224619
     12          1           0       -0.436928    1.239801    1.383892
     13          1           0       -1.001080   -0.290493   -1.196803
     14          1           0       -2.009332   -1.609193    0.573227
     15          1           0       -2.788218    1.375701   -0.853133
     16          1           0       -2.915068    0.921376    0.863012
     17          1           0       -3.563698   -0.725528   -1.324755
 ---------------------------------------------------------------------

 SCF Done:  E(RB3LYP) =  -421.896773072     A.U. after    1 cycles

 The electronic state is 1-A.
 Alpha  occ. eigenvalues --  -19.16222 -19.13575 -10.24558 -10.24264 -10.21828
 Alpha  occ. eigenvalues --  -10.19722 -10.19546 -10.19033 -10.18633  -1.04789
 Alpha  occ. eigenvalues --   -1.01586  -0.81154  -0.77828  -0.73483  -0.69693
 Alpha  occ. eigenvalues --   -0.62085  -0.59615  -0.53564  -0.51515  -0.50734
 Alpha  occ. eigenvalues --   -0.49361  -0.45520  -0.43996  -0.41809  -0.39938
 Alpha  occ. eigenvalues --   -0.35286  -0.34702  -0.33479  -0.33313  -0.30376
 Alpha  occ. eigenvalues --   -0.26883  -0.23996  -0.23909
 Alpha virt. eigenvalues --   -0.00877  -0.00634   0.05401   0.09233   0.11666
 Alpha virt. eigenvalues --    0.12137   0.12251   0.14178   0.15302   0.16242
 Alpha virt. eigenvalues --    0.16398   0.18908   0.20818   0.22367   0.23114

 Mulliken charges:
               1
     1  C   -0.561914
     2  C    0.295895
     3  C   -0.218347
     4  C    0.371923
     5  C   -0.394370
     6  C    0.122550
     7  O   -0.430112
     8  C   -0.096310
     9  O   -0.422184
    10  H    0.188198
    11  H    0.131484
    12  H    0.145571
    13  H    0.067685
    14  H    0.288831
    15  H    0.097907
    16  H    0.122004
    17  H    0.291192
 Sum of Mulliken charges =  -0.00000

 Dipole moment (field-independent basis, Debye):
    X=             -1.6980    Y=              1.0084    Z=             -1.7936  Tot=              2.6678
 Quadrupole moment (field-independent basis, Debye-Ang):
   XX=            -46.9236   YY=            -50.6893   ZZ=            -50.3558
   XY=             -2.7152   XZ=              3.3184   YZ=              2.2689

  Exact polarizability: 147.233 -17.238  60.949  -6.051   2.149  54.184
 Approx polarizability: 234.436 -41.756  93.908 -17.115   4.509  82.893

                      1                      2                      3
                      A                      A                      A
 Frequencies --     47.3391                59.7236               132.9140
 Red. masses --      5.2534                 5.6309                 3.3185
 Frc consts  --      0.0069                 0.0118                 0.0345
 IR Inten    --      1.9230                 0.1955                 5.4819

                      4                      5                      6
                      A                      A                      A
 Frequencies --    157.3227               193.0687               248.5781
 Red. masses --      3.6642                 3.8757                 5.2292
 Frc consts  --      0.0534                 0.0851                 0.1904
 IR Inten    --      2.3189                 2.7843                 1.6995

                      7                      8                      9
                      A                      A                      A
 Frequencies --    327.7030               348.4161               352.8564
 Red. masses --      1.6501                 1.9840                 3.7503
 Frc consts  --      0.1044                 0.1419                 0.2751
 IR Inten    --     21.8072                58.8135                 1.3410

                     10                     11                     12
                      A                      A                      A
 Frequencies --    389.8513               472.2488               512.4998
 Red. masses --      6.7111                 2.1511                 1.4667
 Frc consts  --      0.6010                 0.2826                 0.2270
 IR Inten    --      1.1498                 6.5644                92.9943

                     13                     14                     15
                      A                      A                      A
 Frequencies --    528.8188               533.9237               578.9561
 Red. masses --      2.3735                 3.3922                 1.7015
 Frc consts  --      0.3911                 0.5698                 0.3360
 IR Inten    --     42.9109                16.1122                39.3482

                     16                     17                     18
                      A                      A                      A
 Frequencies --    589.7460               602.6404               738.5623
 Red. masses --      1.6150                 2.2031                 5.1629
 Frc consts  --      0.3309                 0.4714                 1.6593
 IR Inten    --     26.3505                27.3417                 0.5746

                     19                     20                     21
                      A                      A                      A
 Frequencies --    869.9274               901.0120              1000.7231
 Red. masses --      2.6581                 1.7891                 2.9396
 Frc consts  --      1.1852                 0.8557                 1.7345
 IR Inten    --     14.7505                12.8022                67.2120

                     22                     23                     24
                      A                      A                      A
 Frequencies --   1044.3788              1082.6438              1133.9604
 Red. masses --      2.1734                 3.4438                 3.3520
 Frc consts  --      1.3967                 2.3783                 2.5395
 IR Inten    --     18.7470                26.2281                65.2377

                     25                     26                     27
                      A                      A                      A
 Frequencies --   1177.8103              1182.3317              1250.0100
 Red. masses --      1.2720                 3.2041                 1.2461
 Frc consts  --      1.0397                 2.6390                 1.1472
 IR Inten    --     25.3418                 2.1647                 7.1437

                     28                     29                     30
                      A                      A                      A
 Frequencies --   1293.8905              1318.7513              1373.4033
 Red. masses --      1.1765                 1.2494                 1.3213
 Frc consts  --      1.1605                 1.2802                 1.4684
 IR Inten    --     11.0248                76.5470                16.4070

                     31                     32                     33
                      A                      A                      A
 Frequencies --   1389.1346              1409.7371              1439.5640
 Red. masses --      1.2986                 1.2032                 1.4538
 Frc consts  --      1.4764                 1.4088                 1.7751
 IR Inten    --      2.3205                51.1954                28.1524

                     34                     35                     36
                      A                      A                      A
 Frequencies --   1452.4289              1492.3609              2183.0466
 Red. masses --      1.1872                 1.0874                 6.6657
 Frc consts  --      1.4756                 1.4269                18.7163
 IR Inten    --      5.0391                 1.2449                 1.2420

                     37                     38                     39
                      A                      A                      A
 Frequencies --   2367.2517              2933.7997              3006.0098
 Red. masses --     10.6990                 1.0817                 1.0637
 Frc consts  --     35.3250                 5.4853                 5.6630
 IR Inten    --     23.4946                49.5993                27.0895

                     40                     41                     42
                      A                      A                      A
 Frequencies --   3015.3213              3054.9581              3083.4477
 Red. masses --      1.0595                 1.1002                 1.0999
 Frc consts  --      5.6758                 6.0495                 6.1614
 IR Inten    --     37.6801                 6.5799                30.8619

                     43                     44                     45
                      A                      A                      A
 Frequencies --   3507.0963              3755.4345              3806.4641
 Red. masses --      1.1546                 1.0649                 1.0662
 Frc consts  --      8.3674                 8.8490                 9.1019
 IR Inten    --    113.5673                63.8096                25.1845

 - Thermochemistry -
 -------------------
 Temperature   298.150 Kelvin.  Pressure   1.00000 Atm.
 Atom     1 has atomic number  6 and mass  12.00000

 Molecular mass:   124.05243 amu.
 Principal axes and moments of inertia in atomic units:
                           1         2         3
     Eigenvalues --   291.281713317.724053462.46584
           X            0.99997  -0.00748   0.00178
           Y            0.00741   0.99924   0.03833
           Z           -0.00207  -0.03831   0.99926
 This molecule is an asymmetric top.
 Rotational symmetry number  1.
 Rotational temperatures (Kelvin)      0.29735     0.02611     0.02502
 Rotational constants (GHZ):           6.19586     0.54397     0.52123
 Zero-point vibrational energy     348951.1 (Joules/Mol)
                                   83.40131 (Kcal/Mol)
 Warning -- explicit consideration of  17 degrees of freedom as
           vibrations may cause significant error
 Vibrational temperatures:     68.11    85.93   191.23   226.35   277.78
          (Kelvin)            357.65   471.49   501.29   507.68   560.91
                              679.46   737.37   760.85   768.20   832.99
                              848.51   867.07  1062.63  1251.63  1296.36
                             1439.82  1502.63  1557.68  1631.52  1694.61
                             1701.11  1798.49  1861.62  1897.39  1976.02
                             1998.65  2028.30  2071.21  2089.72  2147.17
                             3140.92  3405.95  4221.08  4324.98  4338.37
                             4395.40  4436.39  5045.93  5403.23  5476.65

 Zero-point correction=                           0.132908 (Hartree/Particle)
 Thermal correction to Energy=                    0.142990
 Thermal correction to Enthalpy=                  0.143934
 Thermal correction to Gibbs Free Energy=         0.097169
 Sum of electronic and zero-point Energies=           -421.763865
 Sum of electronic and thermal Energies=              -421.753784
 Sum of electronic and thermal Enthalpies=            -421.752839
 Sum of electronic and thermal Free Energies=         -421.799604

                     E (Thermal)             CV                S
                      KCal/Mol        Cal/Mol-Kelvin    Cal/Mol-Kelvin
 Total                   89.727             36.205             98.424
 Electronic               0.000              0.000              0.000
 Translational            0.889              2.981             40.360
 Rotational               0.889              2.981             29.594
 Vibrational             87.950             30.243             28.470
 Vibration     1          0.595              1.979              4.926
 Vibration     2          0.597              1.974              4.466
 Vibration     3          0.613              1.920              2.903
 Vibration     4          0.621              1.894              2.582
 Vibration     5          0.635              1.849              2.198
 Vibration     6          0.662              1.765              1.741
 Vibration     7          0.711              1.620              1.271
 Vibration     8          0.726              1.578              1.173
 Vibration     9          0.729              1.569              1.153
 Vibration    10          0.758              1.492              1.001
 Vibration    11          0.829              1.312              0.731
 Vibration    12          0.868              1.222              0.628
 Vibration    13          0.884              1.186              0.590
 Vibration    14          0.889              1.175              0.579
 Vibration    15          0.936              1.077              0.487
 Vibration    16          0.947              1.054              0.468
 Vibration    17          0.961              1.026              0.445

 Optimization completed.
    -- Stationary point found.
 Normal termination of Gaussian 16 at Thu Aug  4 11:48:10 2022.
