 Gaussian 16, Revision A.03,
 Gaussian 16:  ES64L-G16RevA.03 25-Dec-2016

 -----------------------------
 # opt freq b3lyp/6-31g(2df,p)
 -----------------------------

 -------------------
 Title Card Required
 -------------------
 Symbolic Z-matrix:
 Charge =  0 Multiplicity = 1

 SCF Done:  E(RB3LYP) =  -421.921856910     A.U. after   15 cycles
 SCF Done:  E(RB3LYP) =  -421.946800754     A.U. after   12 cycles
 SCF Done:  E(RB3LYP) =  -421.946808560     A.U. after   14 cycles
 SCF Done:  E(RB3LYP) =  -421.945521927     A.U. after   14 cycles
 SCF Done:  E(RB3LYP) =  -421.948142830     A.U. after   11 cycles
 SCF Done:  E(RB3LYP) =  -421.947608939     A.U. after   11 cycles
 SCF Done:  E(RB3LYP) =  -421.948265625     A.U. after    9 cycles
 SCF Done:  E(RB3LYP) =  -421.948267302     A.U. after    8 cycles
 SCF Done:  E(RB3LYP) =  -421.948267566     A.U. after    7 cycles
 SCF Done:  E(RB3LYP) =  -421.948267535     A.U. after    7 cycles
 SCF Done:  E(RB3LYP) =  -421.948267606     A.U. after    6 cycles
 Optimization completed.
    -- Stationary point found.
 Normal termination of Gaussian 16 at Sun Jul  3 14:52:05 2022.

 ----------------------------------------------------------------------
 #N Geom=AllCheck Guess=TCheck SCRF=Check GenChk RB3LYP/6-31G(2df,p) Fr
 eq
 ----------------------------------------------------------------------

 Structure from the checkpoint file:  "CtCCpdCpCOCpCpdO.chk"
 -------------------
 Title Card Required
 -------------------
 Charge =  0 Multiplicity = 1

                         Standard orientation:
 ---------------------------------------------------------------------
 Center     Atomic      Atomic             Coordinates (Angstroms)
 Number     Number       Type             X           Y           Z
 ---------------------------------------------------------------------
      1          6           0        3.681776   -1.063778    0.000031
      2          6           0        2.715614   -0.344292   -0.000033
      3          6           0        1.524600    0.437290   -0.000016
      4          6           0        1.532205    1.773897    0.000002
      5          6           0        0.253418   -0.388041   -0.000022
      6          8           0       -0.870162    0.482673   -0.000005
      7          6           0       -2.154110    0.034855   -0.000010
      8          6           0       -2.426382   -1.459830   -0.000002
      9          8           0       -3.037462    0.845904    0.000032
     10          1           0        4.550890   -1.674164    0.000124
     11          1           0        2.465524    2.323062    0.000005
     12          1           0        0.605057    2.331404    0.000013
     13          1           0        0.246248   -1.036075    0.885974
     14          1           0        0.246240   -1.036050   -0.886036
     15          1           0       -1.546610   -2.100856   -0.000006
     16          1           0       -3.034546   -1.688276   -0.879030
     17          1           0       -3.034533   -1.688270    0.879036
 ---------------------------------------------------------------------

 SCF Done:  E(RB3LYP) =  -421.948267606     A.U. after    1 cycles

 The electronic state is 1-A.
 Alpha  occ. eigenvalues --  -19.18660 -19.12050 -10.31327 -10.26322 -10.22514
 Alpha  occ. eigenvalues --  -10.20446 -10.19562 -10.19324 -10.18993  -1.10152
 Alpha  occ. eigenvalues --   -1.02016  -0.83270  -0.75513  -0.74389  -0.71567
 Alpha  occ. eigenvalues --   -0.62831  -0.56798  -0.53111  -0.50801  -0.50078
 Alpha  occ. eigenvalues --   -0.49683  -0.45908  -0.44707  -0.43134  -0.41249
 Alpha  occ. eigenvalues --   -0.38462  -0.38096  -0.35227  -0.33428  -0.29627
 Alpha  occ. eigenvalues --   -0.28750  -0.26925  -0.24863
 Alpha virt. eigenvalues --   -0.02862   0.00568   0.03658   0.07833   0.10144
 Alpha virt. eigenvalues --    0.11672   0.12277   0.13864   0.14427   0.15600
 Alpha virt. eigenvalues --    0.16676   0.17198   0.18277   0.19317   0.25084

 Mulliken charges:
               1
     1  C   -0.439502
     2  C    0.261322
     3  C    0.143025
     4  C   -0.368562
     5  C   -0.166807
     6  O   -0.220092
     7  C    0.417420
     8  C   -0.517392
     9  O   -0.315923
    10  H    0.202954
    11  H    0.122411
    12  H    0.150523
    13  H    0.132908
    14  H    0.132907
    15  H    0.134309
    16  H    0.165248
    17  H    0.165250
 Sum of Mulliken charges =  -0.00000

 Dipole moment (field-independent basis, Debye):
    X=              1.9647    Y=             -3.0460    Z=              0.0000  Tot=              3.6247
 Quadrupole moment (field-independent basis, Debye-Ang):
   XX=            -55.2373   YY=            -49.2822   ZZ=            -52.3008
   XY=              5.5709   XZ=              0.0007   YZ=             -0.0003

  Exact polarizability: 106.210 -13.829  89.370   0.000   0.000  45.519
 Approx polarizability: 144.403 -39.143 150.376   0.001  -0.001  69.956

 ******    1 imaginary frequencies (negative Signs) ******

                      1                      2                      3
                      A                      A                      A
 Frequencies --   -139.2827                48.8594                66.0790
 Red. masses --      1.0252                 4.5832                 4.9534
 Frc consts  --      0.0117                 0.0064                 0.0127
 IR Inten    --      0.5070                 4.6834                 0.1371

                      4                      5                      6
                      A                      A                      A
 Frequencies --    103.7357               142.4713               202.7968
 Red. masses --      4.4556                 3.0366                 4.4693
 Frc consts  --      0.0282                 0.0363                 0.1083
 IR Inten    --      1.5580                 0.7118                 2.7353

                      7                      8                      9
                      A                      A                      A
 Frequencies --    281.8993               292.3412               401.3097
 Red. masses --      3.3629                 3.8442                 4.4680
 Frc consts  --      0.1575                 0.1936                 0.4240
 IR Inten    --      6.5132                 0.1465                 0.3570

                     10                     11                     12
                      A                      A                      A
 Frequencies --    487.9281               539.2032               554.1632
 Red. masses --      3.3906                 2.7081                 4.4572
 Frc consts  --      0.4756                 0.4639                 0.8065
 IR Inten    --      1.9226                 3.2221                 0.3546

                     13                     14                     15
                      A                      A                      A
 Frequencies --    592.1994               608.7713               612.2881
 Red. masses --      2.6851                 1.2164                 5.6506
 Frc consts  --      0.5548                 0.2656                 1.2481
 IR Inten    --      5.6264                37.8572                27.4457

                     16                     17                     18
                      A                      A                      A
 Frequencies --    656.0976               762.2503               818.1226
 Red. masses --      1.2299                 1.2025                 5.1204
 Frc consts  --      0.3119                 0.4117                 2.0192
 IR Inten    --     38.2243                 0.1445                 3.1861

                     19                     20                     21
                      A                      A                      A
 Frequencies --    868.6213               961.1693               965.1308
 Red. masses --      4.0558                 1.3257                 1.8341
 Frc consts  --      1.8030                 0.7216                 1.0066
 IR Inten    --      2.1148                32.3304                 0.3285

                     22                     23                     24
                      A                      A                      A
 Frequencies --   1028.3332              1043.5517              1057.1243
 Red. masses --      1.6812                 1.7225                 1.7266
 Frc consts  --      1.0474                 1.1052                 1.1368
 IR Inten    --     42.2437                 1.3333                 7.8644

                     25                     26                     27
                      A                      A                      A
 Frequencies --   1106.9188              1243.0641              1254.5154
 Red. masses --      8.7555                 3.6762                 3.1651
 Frc consts  --      6.3207                 3.3468                 2.9349
 IR Inten    --     79.3078               492.9024                68.2105

                     28                     29                     30
                      A                      A                      A
 Frequencies --   1265.8488              1392.0122              1409.3874
 Red. masses --      1.0600                 1.2721                 1.4208
 Frc consts  --      1.0007                 1.4523                 1.6628
 IR Inten    --      0.5814                28.0865                19.7997

                     31                     32                     33
                      A                      A                      A
 Frequencies --   1434.8112              1479.0815              1480.9419
 Red. masses --      1.1699                 1.0450                 1.0775
 Frc consts  --      1.4190                 1.3469                 1.3923
 IR Inten    --      9.0410                 3.1199                14.3200

                     34                     35                     36
                      A                      A                      A
 Frequencies --   1502.7857              1687.8560              1848.2697
 Red. masses --      1.0907                 5.4707                12.2036
 Frc consts  --      1.4513                 9.1825                24.5623
 IR Inten    --      2.2871                 6.9971               327.9847

                     37                     38                     39
                      A                      A                      A
 Frequencies --   2222.6810              3008.8379              3049.4282
 Red. masses --      6.0818                 1.0551                 1.1066
 Frc consts  --     17.7027                 5.6277                 6.0630
 IR Inten    --      0.2127                19.7134                19.3047

                     40                     41                     42
                      A                      A                      A
 Frequencies --   3066.7135              3130.4262              3167.4541
 Red. masses --      1.0371                 1.0994                 1.1012
 Frc consts  --      5.7465                 6.3479                 6.5092
 IR Inten    --      1.5218                 1.7139                13.2950

                     43                     44                     45
                      A                      A                      A
 Frequencies --   3176.0880              3273.8416              3502.0808
 Red. masses --      1.0598                 1.1165                 1.1591
 Frc consts  --      6.2989                 7.0508                 8.3758
 IR Inten    --      2.6340                 0.8861                79.3001

 - Thermochemistry -
 -------------------
 Temperature   298.150 Kelvin.  Pressure   1.00000 Atm.
 Atom     1 has atomic number  6 and mass  12.00000

 Molecular mass:   124.05243 amu.
 Principal axes and moments of inertia in atomic units:
                           1         2         3
     Eigenvalues --   451.388652306.563742735.52764
           X            0.99972   0.02383   0.00000
           Y           -0.02383   0.99972  -0.00000
           Z           -0.00000   0.00000   1.00000
 This molecule is an asymmetric top.
 Rotational symmetry number  1.
 Warning -- assumption of classical behavior for rotation
           may cause significant error
 Rotational temperatures (Kelvin)      0.19188     0.03755     0.03166
 Rotational constants (GHZ):           3.99820     0.78244     0.65974
    1 imaginary frequencies ignored.
 Zero-point vibrational energy     345705.8 (Joules/Mol)
                                   82.62566 (Kcal/Mol)
 Warning -- explicit consideration of  14 degrees of freedom as
           vibrations may cause significant error
 Vibrational temperatures:     70.30    95.07   149.25   204.98   291.78
          (Kelvin)            405.59   420.61   577.40   702.02   775.79
                              797.32   852.04   875.89   880.95   943.98
                             1096.71  1177.10  1249.75  1382.91  1388.61
                             1479.54  1501.44  1520.97  1592.61  1788.49
                             1804.97  1821.27  2002.80  2027.79  2064.37
                             2128.07  2130.75  2162.17  2428.45  2659.25
                             3197.94  4329.05  4387.45  4412.32  4503.99
                             4557.26  4569.68  4710.33  5038.71

 Zero-point correction=                           0.131672 (Hartree/Particle)
 Thermal correction to Energy=                    0.140994
 Thermal correction to Enthalpy=                  0.141939
 Thermal correction to Gibbs Free Energy=         0.096370
 Sum of electronic and zero-point Energies=           -421.816595
 Sum of electronic and thermal Energies=              -421.807273
 Sum of electronic and thermal Enthalpies=            -421.806329
 Sum of electronic and thermal Free Energies=         -421.851898

                     E (Thermal)             CV                S
                      KCal/Mol        Cal/Mol-Kelvin    Cal/Mol-Kelvin
 Total                   88.475             33.132             95.908
 Electronic               0.000              0.000              0.000
 Translational            0.889              2.981             40.360
 Rotational               0.889              2.981             29.434
 Vibrational             86.698             27.170             26.114
 Vibration     1          0.595              1.978              4.863
 Vibration     2          0.597              1.970              4.267
 Vibration     3          0.605              1.946              3.383
 Vibration     4          0.616              1.911              2.770
 Vibration     5          0.639              1.836              2.108
 Vibration     6          0.681              1.707              1.522
 Vibration     7          0.688              1.688              1.460
 Vibration     8          0.767              1.467              0.958
 Vibration     9          0.844              1.277              0.689
 Vibration    10          0.894              1.163              0.567
 Vibration    11          0.910              1.131              0.536
 Vibration    12          0.950              1.048              0.463
 Vibration    13          0.968              1.013              0.435
 Vibration    14          0.972              1.006              0.429

 Optimization completed.
    -- Stationary point found.
 Normal termination of Gaussian 16 at Sun Jul  3 15:12:31 2022.
