 Gaussian 16, Revision A.03,
 Gaussian 16:  ES64L-G16RevA.03 25-Dec-2016

 -----------------------------
 # opt freq b3lyp/6-31g(2df,p)
 -----------------------------

 -------------------
 Title Card Required
 -------------------
 Symbolic Z-matrix:
 Charge =  0 Multiplicity = 1

 SCF Done:  E(RB3LYP) =  -403.286480586     A.U. after   15 cycles
 SCF Done:  E(RB3LYP) =  -403.307731899     A.U. after   12 cycles
 SCF Done:  E(RB3LYP) =  -403.309089301     A.U. after   13 cycles
 SCF Done:  E(RB3LYP) =  -403.304714464     A.U. after   14 cycles
 SCF Done:  E(RB3LYP) =  -403.308953276     A.U. after   13 cycles
 SCF Done:  E(RB3LYP) =  -403.309488440     A.U. after   10 cycles
 SCF Done:  E(RB3LYP) =  -403.308703520     A.U. after   13 cycles
 SCF Done:  E(RB3LYP) =  -403.310132442     A.U. after   13 cycles
 SCF Done:  E(RB3LYP) =  -403.310397428     A.U. after   13 cycles
 SCF Done:  E(RB3LYP) =  -403.310924387     A.U. after   13 cycles
 SCF Done:  E(RB3LYP) =  -403.311509001     A.U. after   12 cycles
 SCF Done:  E(RB3LYP) =  -403.311627214     A.U. after   14 cycles
 SCF Done:  E(RB3LYP) =  -403.311817537     A.U. after   13 cycles
 SCF Done:  E(RB3LYP) =  -403.311911244     A.U. after   13 cycles
 SCF Done:  E(RB3LYP) =  -403.311919514     A.U. after   10 cycles
 SCF Done:  E(RB3LYP) =  -403.311922263     A.U. after   10 cycles
 SCF Done:  E(RB3LYP) =  -403.311925734     A.U. after   10 cycles
 SCF Done:  E(RB3LYP) =  -403.311926906     A.U. after    8 cycles
 SCF Done:  E(RB3LYP) =  -403.311926984     A.U. after    7 cycles
 Optimization completed.
    -- Stationary point found.
 Normal termination of Gaussian 16 at Thu Aug  4 00:37:25 2022.

 ----------------------------------------------------------------------
 #N Geom=AllCheck Guess=TCheck SCRF=Check GenChk RB3LYP/6-31G(2df,p) Fr
 eq
 ----------------------------------------------------------------------

 Structure from the checkpoint file:  "CtCCpCCCpNCdO.chk"
 -------------------
 Title Card Required
 -------------------
 Charge =  0 Multiplicity = 1

                         Standard orientation:
 ---------------------------------------------------------------------
 Center     Atomic      Atomic             Coordinates (Angstroms)
 Number     Number       Type             X           Y           Z
 ---------------------------------------------------------------------
      1          6           0       -0.171342    2.846284   -0.110285
      2          6           0        0.000860    1.671165    0.073439
      3          6           0        0.207577    0.229301    0.253716
      4          6           0       -0.978880   -0.597365   -0.292906
      5          6           0       -2.313773   -0.297813    0.394858
      6          6           0       -3.462892   -1.143963   -0.160075
      7          7           0        1.468347   -0.193809   -0.343078
      8          6           0        2.532182   -0.689585    0.348911
      9          8           0        3.594916   -0.997853   -0.139546
     10          1           0       -0.313196    3.888643   -0.258137
     11          1           0        0.297008    0.023384    1.328849
     12          1           0       -0.717795   -1.655047   -0.171059
     13          1           0       -1.064634   -0.413658   -1.371428
     14          1           0       -2.548007    0.766577    0.282097
     15          1           0       -2.213134   -0.477728    1.473661
     16          1           0       -3.608870   -0.959673   -1.230062
     17          1           0       -4.403966   -0.914101    0.348360
     18          1           0       -3.267665   -2.214401   -0.032633
     19          1           0        1.614340   -0.020890   -1.328345
     20          1           0        2.305760   -0.791761    1.430672
 ---------------------------------------------------------------------

 SCF Done:  E(RB3LYP) =  -403.311926984     A.U. after    1 cycles

 The electronic state is 1-A.
 Alpha  occ. eigenvalues --  -19.10655 -14.36163 -10.27939 -10.26344 -10.19924
 Alpha  occ. eigenvalues --  -10.19478 -10.19156 -10.18886 -10.18210  -1.03360
 Alpha  occ. eigenvalues --   -0.93767  -0.81412  -0.76928  -0.72643  -0.66195
 Alpha  occ. eigenvalues --   -0.63156  -0.59865  -0.55138  -0.51230  -0.50201
 Alpha  occ. eigenvalues --   -0.47168  -0.46119  -0.43691  -0.41271  -0.40709
 Alpha  occ. eigenvalues --   -0.39540  -0.38086  -0.35970  -0.34852  -0.34016
 Alpha  occ. eigenvalues --   -0.29272  -0.28141  -0.25746  -0.25290
 Alpha virt. eigenvalues --    0.01929   0.03723   0.04178   0.08465   0.09365
 Alpha virt. eigenvalues --    0.10728   0.11917   0.13335   0.13664   0.14459
 Alpha virt. eigenvalues --    0.16959   0.17601   0.18016   0.18358   0.20436

 Mulliken charges:
               1
     1  C   -0.463194
     2  C    0.339527
     3  C   -0.173221
     4  C   -0.169272
     5  C   -0.174966
     6  C   -0.381955
     7  N   -0.240377
     8  C    0.160676
     9  O   -0.327791
    10  H    0.206369
    11  H    0.123190
    12  H    0.107104
    13  H    0.104328
    14  H    0.116460
    15  H    0.097489
    16  H    0.118199
    17  H    0.117108
    18  H    0.117222
    19  H    0.254262
    20  H    0.068843
 Sum of Mulliken charges =  -0.00000

 Dipole moment (field-independent basis, Debye):
    X=             -3.7791    Y=              1.0579    Z=              0.2297  Tot=              3.9311
 Quadrupole moment (field-independent basis, Debye-Ang):
   XX=            -70.7334   YY=            -51.4577   ZZ=            -51.6305
   XY=              4.4440   XZ=              1.2688   YZ=             -1.9687

  Exact polarizability:  96.730  -7.585  90.196   0.039  -3.499  65.597
 Approx polarizability: 124.473 -18.160 137.044  -1.762  -7.989 101.543

                      1                      2                      3
                      A                      A                      A
 Frequencies --     35.6263                81.2253                87.4534
 Red. masses --      5.3740                 1.9379                 2.4929
 Frc consts  --      0.0040                 0.0075                 0.0112
 IR Inten    --      1.3615                 0.0035                 1.0333

                      4                      5                      6
                      A                      A                      A
 Frequencies --    122.1504               136.1099               200.1781
 Red. masses --      3.2678                 2.0607                 2.9588
 Frc consts  --      0.0287                 0.0225                 0.0699
 IR Inten    --      0.6361                 0.3035                 0.5993

                      7                      8                      9
                      A                      A                      A
 Frequencies --    232.0896               248.2175               313.2383
 Red. masses --      3.7612                 1.1363                 4.3333
 Frc consts  --      0.1194                 0.0412                 0.2505
 IR Inten    --      0.1824                 0.0981                 7.9671

                     10                     11                     12
                      A                      A                      A
 Frequencies --    345.3642               393.4345               495.0479
 Red. masses --      5.0106                 3.7820                 6.6716
 Frc consts  --      0.3521                 0.3449                 0.9633
 IR Inten    --      3.9250                 1.3855                 2.1253

                     13                     14                     15
                      A                      A                      A
 Frequencies --    569.8861               605.9980               640.9869
 Red. masses --      3.1013                 1.3599                 1.2089
 Frc consts  --      0.5934                 0.2942                 0.2926
 IR Inten    --      2.9297               104.8188                44.7608

                     16                     17                     18
                      A                      A                      A
 Frequencies --    656.9925               672.8320               748.0784
 Red. masses --      1.5754                 2.5024                 1.1370
 Frc consts  --      0.4007                 0.6675                 0.3749
 IR Inten    --     17.0969                56.6117                 1.8171

                     19                     20                     21
                      A                      A                      A
 Frequencies --    838.0951               907.2135               944.1871
 Red. masses --      1.7217                 1.7595                 1.6996
 Frc consts  --      0.7125                 0.8532                 0.8927
 IR Inten    --      3.6067                 1.9247                 2.5327

                     22                     23                     24
                      A                      A                      A
 Frequencies --   1029.2255              1046.0148              1068.3107
 Red. masses --      3.1914                 1.5527                 2.3163
 Frc consts  --      1.9918                 1.0010                 1.5575
 IR Inten    --      4.3285                 0.3138                 3.3100

                     25                     26                     27
                      A                      A                      A
 Frequencies --   1092.2892              1129.7620              1147.8423
 Red. masses --      3.0198                 1.6576                 3.0026
 Frc consts  --      2.1228                 1.2465                 2.3309
 IR Inten    --      9.1142                 0.1365                30.9905

                     28                     29                     30
                      A                      A                      A
 Frequencies --   1248.2297              1265.2198              1296.2513
 Red. masses --      1.4370                 1.9775                 1.5138
 Frc consts  --      1.3191                 1.8651                 1.4986
 IR Inten    --      5.9373               134.3637                52.6514

                     31                     32                     33
                      A                      A                      A
 Frequencies --   1320.8479              1330.1037              1343.3970
 Red. masses --      1.2670                 1.2129                 1.2049
 Frc consts  --      1.3023                 1.2643                 1.2812
 IR Inten    --     10.7961                 4.4399                 2.5257

                     34                     35                     36
                      A                      A                      A
 Frequencies --   1393.9228              1414.5053              1425.8144
 Red. masses --      1.5255                 1.2277                 1.1854
 Frc consts  --      1.7464                 1.4473                 1.4198
 IR Inten    --      2.2876                 0.7520                24.7864

                     37                     38                     39
                      A                      A                      A
 Frequencies --   1480.9880              1484.4041              1494.0570
 Red. masses --      1.3041                 1.3370                 1.0620
 Frc consts  --      1.6852                 1.7358                 1.3967
 IR Inten    --     17.5729                19.4340                 1.8968

                     40                     41                     42
                      A                      A                      A
 Frequencies --   1500.3832              1510.8603              1821.7533
 Red. masses --      1.0405                 1.0841                 7.6728
 Frc consts  --      1.3800                 1.4581                15.0032
 IR Inten    --      6.5300                 2.7626               522.5203

                     43                     44                     45
                      A                      A                      A
 Frequencies --   2234.9573              2918.4141              3017.2392
 Red. masses --      5.8942                 1.0832                 1.0648
 Frc consts  --     17.3464                 5.4359                 5.7111
 IR Inten    --      0.5271                75.1335                 7.0808

                     46                     47                     48
                      A                      A                      A
 Frequencies --   3021.0591              3029.4401              3033.1558
 Red. masses --      1.0758                 1.0531                 1.0479
 Frc consts  --      5.7849                 5.6944                 5.6800
 IR Inten    --      3.4624                19.4358                50.7164

                     49                     50                     51
                      A                      A                      A
 Frequencies --   3059.2468              3078.5512              3100.4893
 Red. masses --      1.0950                 1.1031                 1.1024
 Frc consts  --      6.0378                 6.1596                 6.2440
 IR Inten    --      2.3363                14.1738                55.1946

                     52                     53                     54
                      A                      A                      A
 Frequencies --   3106.2014              3501.2927              3602.4082
 Red. masses --      1.1009                 1.1629                 1.0758
 Frc consts  --      6.2581                 8.3996                 8.2253
 IR Inten    --     31.8926                67.7923                22.8898

 - Thermochemistry -
 -------------------
 Temperature   298.150 Kelvin.  Pressure   1.00000 Atm.
 Atom     1 has atomic number  6 and mass  12.00000

 Molecular mass:   125.08406 amu.
 Principal axes and moments of inertia in atomic units:
                           1         2         3
     Eigenvalues --   784.143042203.754362851.27675
           X            0.99949   0.03167   0.00367
           Y           -0.03166   0.99949  -0.00406
           Z           -0.00380   0.00394   0.99999
 This molecule is an asymmetric top.
 Rotational symmetry number  1.
 Warning -- assumption of classical behavior for rotation
           may cause significant error
 Rotational temperatures (Kelvin)      0.11046     0.03930     0.03038
 Rotational constants (GHZ):           2.30155     0.81894     0.63296
 Zero-point vibrational energy     441547.9 (Joules/Mol)
                                  105.53248 (Kcal/Mol)
 Warning -- explicit consideration of  14 degrees of freedom as
           vibrations may cause significant error
 Vibrational temperatures:     51.26   116.87   125.83   175.75   195.83
          (Kelvin)            288.01   333.93   357.13   450.68   496.90
                              566.06   712.26   819.94   871.90   922.24
                              945.27   968.06  1076.32  1205.83  1305.28
                             1358.47  1480.83  1504.98  1537.06  1571.56
                             1625.48  1651.49  1795.92  1820.37  1865.02
                             1900.41  1913.72  1932.85  2005.54  2035.16
                             2051.43  2130.81  2135.73  2149.61  2158.72
                             2173.79  2621.10  3215.61  4198.95  4341.13
                             4346.63  4358.69  4364.03  4401.57  4429.35
                             4460.91  4469.13  5037.58  5183.06

 Zero-point correction=                           0.168177 (Hartree/Particle)
 Thermal correction to Energy=                    0.178906
 Thermal correction to Enthalpy=                  0.179850
 Thermal correction to Gibbs Free Energy=         0.131065
 Sum of electronic and zero-point Energies=           -403.143750
 Sum of electronic and thermal Energies=              -403.133021
 Sum of electronic and thermal Enthalpies=            -403.132077
 Sum of electronic and thermal Free Energies=         -403.180862

                     E (Thermal)             CV                S
                      KCal/Mol        Cal/Mol-Kelvin    Cal/Mol-Kelvin
 Total                  112.265             37.585            102.678
 Electronic               0.000              0.000              0.000
 Translational            0.889              2.981             40.385
 Rotational               0.889              2.981             29.978
 Vibrational            110.488             31.623             32.315
 Vibration     1          0.594              1.982              5.489
 Vibration     2          0.600              1.962              3.861
 Vibration     3          0.601              1.958              3.716
 Vibration     4          0.610              1.931              3.066
 Vibration     5          0.614              1.917              2.858
 Vibration     6          0.638              1.840              2.131
 Vibration     7          0.653              1.792              1.863
 Vibration     8          0.662              1.766              1.743
 Vibration     9          0.701              1.648              1.345
 Vibration    10          0.724              1.585              1.187
 Vibration    11          0.761              1.484              0.987
 Vibration    12          0.851              1.261              0.671
 Vibration    13          0.926              1.096              0.504
 Vibration    14          0.965              1.019              0.439

 Optimization completed.
    -- Stationary point found.
 Normal termination of Gaussian 16 at Thu Aug  4 01:04:57 2022.
