 Gaussian 16, Revision A.03,
 Gaussian 16:  ES64L-G16RevA.03 25-Dec-2016

 -----------------------------
 # opt freq b3lyp/6-31g(2df,p)
 -----------------------------

 -------------------
 Title Card Required
 -------------------
 Symbolic Z-matrix:
 Charge =  0 Multiplicity = 1

 SCF Done:  E(RB3LYP) =  -455.216172878     A.U. after   15 cycles
 SCF Done:  E(RB3LYP) =  -455.239762440     A.U. after   15 cycles
 SCF Done:  E(RB3LYP) =  -455.242874521     A.U. after   12 cycles
 SCF Done:  E(RB3LYP) =  -455.248209923     A.U. after   14 cycles
 SCF Done:  E(RB3LYP) =  -455.242353174     A.U. after   14 cycles
 SCF Done:  E(RB3LYP) =  -455.250426854     A.U. after   12 cycles
 SCF Done:  E(RB3LYP) =  -455.251458820     A.U. after   12 cycles
 SCF Done:  E(RB3LYP) =  -455.251289424     A.U. after   15 cycles
 SCF Done:  E(RB3LYP) =  -455.254994878     A.U. after   13 cycles
 SCF Done:  E(RB3LYP) =  -455.257579659     A.U. after   13 cycles
 SCF Done:  E(RB3LYP) =  -455.265925973     A.U. after   11 cycles
 SCF Done:  E(RB3LYP) =  -455.266087770     A.U. after   11 cycles
 SCF Done:  E(RB3LYP) =  -455.266133084     A.U. after   12 cycles
 SCF Done:  E(RB3LYP) =  -455.266115494     A.U. after   12 cycles
 SCF Done:  E(RB3LYP) =  -455.266147544     A.U. after   11 cycles
 SCF Done:  E(RB3LYP) =  -455.266150575     A.U. after    9 cycles
 SCF Done:  E(RB3LYP) =  -455.266150349     A.U. after   10 cycles
 SCF Done:  E(RB3LYP) =  -455.266151435     A.U. after    9 cycles
 SCF Done:  E(RB3LYP) =  -455.266151461     A.U. after    7 cycles
 Optimization completed.
    -- Stationary point found.
 Normal termination of Gaussian 16 at Sun Jul  3 20:06:38 2022.

 ----------------------------------------------------------------------
 #N Geom=AllCheck Guess=TCheck SCRF=Check GenChk RB3LYP/6-31G(2df,p) Fr
 eq
 ----------------------------------------------------------------------

 Structure from the checkpoint file:  "CtCCNpCOpCpNpdO.chk"
 -------------------
 Title Card Required
 -------------------
 Charge =  0 Multiplicity = 1

                         Standard orientation:
 ---------------------------------------------------------------------
 Center     Atomic      Atomic             Coordinates (Angstroms)
 Number     Number       Type             X           Y           Z
 ---------------------------------------------------------------------
      1          6           0        3.131148   -0.781693    0.466116
      2          6           0        1.982563   -0.902564    0.133400
      3          6           0        0.600460   -1.058543   -0.315239
      4          7           0       -0.274243    0.020546    0.136773
      5          6           0        0.293601    1.349693    0.319456
      6          8           0        0.934369    1.827069   -0.843707
      7          6           0       -1.651955   -0.118834    0.142729
      8          7           0       -2.127733   -1.358032   -0.283513
      9          8           0       -2.403806    0.746405    0.552890
     10          1           0        4.142629   -0.692931    0.779296
     11          1           0        0.211999   -2.007322    0.071050
     12          1           0        0.610529   -1.134795   -1.415013
     13          1           0        0.989965    1.333180    1.165014
     14          1           0       -0.545391    2.005201    0.546168
     15          1           0        1.835184    1.485546   -0.839311
     16          1           0       -1.676143   -1.799663   -1.070490
     17          1           0       -3.134348   -1.342962   -0.361764
 ---------------------------------------------------------------------

 SCF Done:  E(RB3LYP) =  -455.266151461     A.U. after    1 cycles

 The electronic state is 1-A.
 Alpha  occ. eigenvalues --  -19.13938 -19.09315 -14.35529 -14.34671 -10.30072
 Alpha  occ. eigenvalues --  -10.26084 -10.25416 -10.20903 -10.20025  -1.04557
 Alpha  occ. eigenvalues --   -1.02400  -0.93476  -0.89220  -0.79222  -0.72524
 Alpha  occ. eigenvalues --   -0.68189  -0.58009  -0.55866  -0.54948  -0.51519
 Alpha  occ. eigenvalues --   -0.51220  -0.48857  -0.47353  -0.43736  -0.42443
 Alpha  occ. eigenvalues --   -0.40851  -0.39891  -0.34355  -0.30643  -0.29441
 Alpha  occ. eigenvalues --   -0.28711  -0.27851  -0.25402  -0.24307
 Alpha virt. eigenvalues --    0.01995   0.03117   0.05104   0.07386   0.08695
 Alpha virt. eigenvalues --    0.10950   0.12205   0.14001   0.15462   0.16563
 Alpha virt. eigenvalues --    0.17164   0.19555   0.21223   0.23392   0.24739

 Mulliken charges:
               1
     1  C   -0.401079
     2  C    0.262273
     3  C   -0.335983
     4  N   -0.115912
     5  C   -0.067097
     6  O   -0.415601
     7  C    0.460221
     8  N   -0.570500
     9  O   -0.399706
    10  H    0.210925
    11  H    0.162482
    12  H    0.140107
    13  H    0.107313
    14  H    0.157500
    15  H    0.288198
    16  H    0.254818
    17  H    0.262042
 Sum of Mulliken charges =  -0.00000

 Dipole moment (field-independent basis, Debye):
    X=              2.6313    Y=             -3.1326    Z=             -1.2309  Tot=              4.2722
 Quadrupole moment (field-independent basis, Debye-Ang):
   XX=            -46.8370   YY=            -53.7129   ZZ=            -52.4070
   XY=              6.2211   XZ=              6.0596   YZ=              4.3394

  Exact polarizability:  99.682   1.398  65.252   3.789   5.402  50.010
 Approx polarizability: 144.595  -0.142  96.241   5.931   9.036  78.099

                      1                      2                      3
                      A                      A                      A
 Frequencies --     48.7947                82.9543               109.5570
 Red. masses --      4.1329                 4.8175                 5.1758
 Frc consts  --      0.0058                 0.0195                 0.0366
 IR Inten    --      4.7127                 3.9715                 3.1512

                      4                      5                      6
                      A                      A                      A
 Frequencies --    150.0102               160.9456               269.8983
 Red. masses --      3.5296                 3.7407                 4.4475
 Frc consts  --      0.0468                 0.0571                 0.1909
 IR Inten    --      4.3235                 0.2278                 2.8044

                      7                      8                      9
                      A                      A                      A
 Frequencies --    334.3896               345.6488               408.9985
 Red. masses --      2.8629                 2.7290                 1.6332
 Frc consts  --      0.1886                 0.1921                 0.1610
 IR Inten    --      7.2206                 6.6920                44.8319

                     10                     11                     12
                      A                      A                      A
 Frequencies --    415.0623               441.6665               484.8584
 Red. masses --      1.1099                 2.3115                 6.5293
 Frc consts  --      0.1127                 0.2657                 0.9044
 IR Inten    --     54.8728                37.9329                 6.3474

                     13                     14                     15
                      A                      A                      A
 Frequencies --    560.9071               595.5149               630.6391
 Red. masses --      3.7220                 1.4106                 1.2107
 Frc consts  --      0.6899                 0.2947                 0.2837
 IR Inten    --      9.9283               164.1177                43.2741

                     16                     17                     18
                      A                      A                      A
 Frequencies --    644.9802               680.5889               783.4114
 Red. masses --      3.7515                 1.2433                 6.8090
 Frc consts  --      0.9195                 0.3393                 2.4622
 IR Inten    --     37.6978                42.8948                53.6321

                     19                     20                     21
                      A                      A                      A
 Frequencies --    818.6677               961.1350               993.3838
 Red. masses --      3.9842                 3.5525                 1.9515
 Frc consts  --      1.5733                 1.9335                 1.1346
 IR Inten    --      9.0533                 5.2716                22.0463

                     22                     23                     24
                      A                      A                      A
 Frequencies --   1006.9503              1061.4936              1091.8437
 Red. masses --      1.6560                 5.5282                 2.2906
 Frc consts  --      0.9893                 3.6700                 1.6088
 IR Inten    --     23.3996               136.7842                16.7508

                     25                     26                     27
                      A                      A                      A
 Frequencies --   1136.1513              1224.2978              1266.4418
 Red. masses --      1.5414                 3.5104                 1.1269
 Frc consts  --      1.1723                 3.1001                 1.0649
 IR Inten    --     83.2275                26.5691                13.3226

                     28                     29                     30
                      A                      A                      A
 Frequencies --   1304.3677              1387.6268              1408.1501
 Red. masses --      1.6371                 1.3931                 1.1979
 Frc consts  --      1.6410                 1.5804                 1.3995
 IR Inten    --    156.6882                 6.2182                39.7091

                     31                     32                     33
                      A                      A                      A
 Frequencies --   1427.0521              1439.3426              1496.1093
 Red. masses --      1.5547                 2.2277                 1.0858
 Frc consts  --      1.8654                 2.7192                 1.4320
 IR Inten    --    127.7291               181.5949                 0.9097

                     34                     35                     36
                      A                      A                      A
 Frequencies --   1508.0921              1629.1985              1789.8269
 Red. masses --      1.0809                 1.1843                 7.8190
 Frc consts  --      1.4484                 1.8521                14.7578
 IR Inten    --     17.8971               126.3207               356.0900

                     37                     38                     39
                      A                      A                      A
 Frequencies --   2238.3461              2963.6236              3042.0329
 Red. masses --      5.9005                 1.0713                 1.0691
 Frc consts  --     17.4178                 5.5437                 5.8292
 IR Inten    --      0.4206                30.2682                43.3196

                     40                     41                     42
                      A                      A                      A
 Frequencies --   3057.3320              3159.9337              3500.3844
 Red. masses --      1.0870                 1.0966                 1.1633
 Frc consts  --      5.9863                 6.4512                 8.3978
 IR Inten    --      4.5139                 1.9663                74.4063

                     43                     44                     45
                      A                      A                      A
 Frequencies --   3569.7378              3677.5540              3804.4680
 Red. masses --      1.0470                 1.0989                 1.0662
 Frc consts  --      7.8611                 8.7566                 9.0919
 IR Inten    --     22.2231                27.0130                33.3374

 - Thermochemistry -
 -------------------
 Temperature   298.150 Kelvin.  Pressure   1.00000 Atm.
 Atom     1 has atomic number  6 and mass  12.00000

 Molecular mass:   128.05858 amu.
 Principal axes and moments of inertia in atomic units:
                           1         2         3
     Eigenvalues --   674.616381565.025102031.05174
           X            0.99964   0.02375   0.01257
           Y           -0.02420   0.99903   0.03667
           Z           -0.01169  -0.03696   0.99925
 This molecule is an asymmetric top.
 Rotational symmetry number  1.
 Warning -- assumption of classical behavior for rotation
           may cause significant error
 Rotational temperatures (Kelvin)      0.12839     0.05534     0.04264
 Rotational constants (GHZ):           2.67521     1.15317     0.88857
 Zero-point vibrational energy     353570.5 (Joules/Mol)
                                   84.50537 (Kcal/Mol)
 Warning -- explicit consideration of  14 degrees of freedom as
           vibrations may cause significant error
 Vibrational temperatures:     70.20   119.35   157.63   215.83   231.56
          (Kelvin)            388.32   481.11   497.31   588.46   597.18
                              635.46   697.60   807.02   856.81   907.35
                              927.98   979.22  1127.15  1177.88  1382.86
                             1429.26  1448.78  1527.25  1570.92  1634.67
                             1761.49  1822.13  1876.69  1996.49  2026.01
                             2053.21  2070.89  2152.57  2169.81  2344.05
                             2575.16  3220.48  4263.99  4376.81  4398.82
                             4546.44  5036.27  5136.06  5291.18  5473.78

 Zero-point correction=                           0.134668 (Hartree/Particle)
 Thermal correction to Energy=                    0.144574
 Thermal correction to Enthalpy=                  0.145518
 Thermal correction to Gibbs Free Energy=         0.099266
 Sum of electronic and zero-point Energies=           -455.131484
 Sum of electronic and thermal Energies=              -455.121578
 Sum of electronic and thermal Enthalpies=            -455.120634
 Sum of electronic and thermal Free Energies=         -455.166885

                     E (Thermal)             CV                S
                      KCal/Mol        Cal/Mol-Kelvin    Cal/Mol-Kelvin
 Total                   90.721             35.493             97.345
 Electronic               0.000              0.000              0.000
 Translational            0.889              2.981             40.455
 Rotational               0.889              2.981             29.152
 Vibrational             88.944             29.532             27.738
 Vibration     1          0.595              1.978              4.866
 Vibration     2          0.600              1.961              3.820
 Vibration     3          0.606              1.942              3.277
 Vibration     4          0.618              1.903              2.672
 Vibration     5          0.622              1.890              2.539
 Vibration     6          0.674              1.729              1.597
 Vibration     7          0.716              1.607              1.239
 Vibration     8          0.724              1.584              1.186
 Vibration     9          0.773              1.451              0.930
 Vibration    10          0.778              1.438              0.909
 Vibration    11          0.801              1.379              0.821
 Vibration    12          0.841              1.284              0.697
 Vibration    13          0.917              1.116              0.522
 Vibration    14          0.953              1.041              0.457

                           ! Non-Optimized Parameters !
 Normal termination of Gaussian 16 at Sun Jul  3 20:29:41 2022.
