 Gaussian 16, Revision A.03,
 Gaussian 16:  ES64L-G16RevA.03 25-Dec-2016

 -----------------------------
 # opt freq b3lyp/6-31g(2df,p)
 -----------------------------

 -------------------
 Title Card Required
 -------------------
 Symbolic Z-matrix:
 Charge =  0 Multiplicity = 1

 SCF Done:  E(RB3LYP) =  -382.108024258     A.U. after   13 cycles
 SCF Done:  E(RB3LYP) =  -382.126148777     A.U. after   11 cycles
 SCF Done:  E(RB3LYP) =  -382.125720805     A.U. after   14 cycles
 SCF Done:  E(RB3LYP) =  -382.131508693     A.U. after   12 cycles
 SCF Done:  E(RB3LYP) =  -382.129792394     A.U. after   12 cycles
 SCF Done:  E(RB3LYP) =  -382.132072313     A.U. after   12 cycles
 SCF Done:  E(RB3LYP) =  -382.132341681     A.U. after   10 cycles
 SCF Done:  E(RB3LYP) =  -382.132463859     A.U. after   10 cycles
 SCF Done:  E(RB3LYP) =  -382.132491469     A.U. after   10 cycles
 SCF Done:  E(RB3LYP) =  -382.132515331     A.U. after    8 cycles
 SCF Done:  E(RB3LYP) =  -382.132522682     A.U. after    9 cycles
 SCF Done:  E(RB3LYP) =  -382.132524857     A.U. after    9 cycles
 SCF Done:  E(RB3LYP) =  -382.132525446     A.U. after    8 cycles
 SCF Done:  E(RB3LYP) =  -382.132525654     A.U. after    7 cycles
 SCF Done:  E(RB3LYP) =  -382.132525721     A.U. after    6 cycles
 SCF Done:  E(RB3LYP) =  -382.132525758     A.U. after    7 cycles
 Optimization completed.
    -- Stationary point found.
 Normal termination of Gaussian 16 at Mon Jul  4 00:59:26 2022.

 ----------------------------------------------------------------------
 #N Geom=AllCheck Guess=TCheck SCRF=Check GenChk RB3LYP/6-31G(2df,p) Fr
 eq
 ----------------------------------------------------------------------

 Structure from the checkpoint file:  "CtCC1NC1NC1CC1.chk"
 -------------------
 Title Card Required
 -------------------
 Charge =  0 Multiplicity = 1

                         Standard orientation:
 ---------------------------------------------------------------------
 Center     Atomic      Atomic             Coordinates (Angstroms)
 Number     Number       Type             X           Y           Z
 ---------------------------------------------------------------------
      1          6           0        3.131626    1.462108    0.181305
      2          6           0        2.336457    0.621185   -0.148846
      3          6           0        1.390671   -0.383797   -0.536332
      4          7           0        1.310318   -1.663757    0.218673
      5          6           0        0.221321   -0.705133    0.349710
      6          7           0       -0.998730   -1.130374   -0.250653
      7          6           0       -2.075516   -0.176692   -0.368998
      8          6           0       -2.566811    0.719218    0.752066
      9          6           0       -1.823320    1.300626   -0.433782
     10          1           0        3.834018    2.205809    0.465974
     11          1           0        1.231598   -0.516267   -1.602111
     12          1           0        1.917921   -1.601027    1.032466
     13          1           0        0.178243   -0.143539    1.287754
     14          1           0       -1.316210   -1.988589    0.187797
     15          1           0       -2.848167   -0.550105   -1.035228
     16          1           0       -2.042755    0.692428    1.701642
     17          1           0       -3.633379    0.895964    0.839624
     18          1           0       -0.814219    1.657000   -0.260693
     19          1           0       -2.374728    1.882148   -1.164112
 ---------------------------------------------------------------------

 SCF Done:  E(RB3LYP) =  -382.132525758     A.U. after    1 cycles

 The electronic state is 1-A.
 Alpha  occ. eigenvalues --  -14.33666 -14.32213 -10.24781 -10.23356 -10.21705
 Alpha  occ. eigenvalues --  -10.18746 -10.18423 -10.18095 -10.17966  -0.98084
 Alpha  occ. eigenvalues --   -0.90363  -0.82169  -0.75737  -0.67068  -0.63904
 Alpha  occ. eigenvalues --   -0.60108  -0.57091  -0.56069  -0.51612  -0.50438
 Alpha  occ. eigenvalues --   -0.48669  -0.46616  -0.43156  -0.39517  -0.37397
 Alpha  occ. eigenvalues --   -0.36099  -0.35407  -0.32368  -0.29558  -0.29135
 Alpha  occ. eigenvalues --   -0.27490  -0.24807  -0.21284
 Alpha virt. eigenvalues --    0.03111   0.04273   0.08653   0.09324   0.10611
 Alpha virt. eigenvalues --    0.12213   0.12395   0.13850   0.15582   0.16102
 Alpha virt. eigenvalues --    0.16608   0.17392   0.19845   0.20935   0.22881

 Mulliken charges:
               1
     1  C   -0.448448
     2  C    0.328359
     3  C   -0.184766
     4  N   -0.341241
     5  C   -0.025462
     6  N   -0.275565
     7  C    0.052328
     8  C   -0.281397
     9  C   -0.270777
    10  H    0.200510
    11  H    0.125437
    12  H    0.240161
    13  H    0.094406
    14  H    0.227273
    15  H    0.094773
    16  H    0.111216
    17  H    0.110002
    18  H    0.129536
    19  H    0.113655
 Sum of Mulliken charges =  -0.00000

 Dipole moment (field-independent basis, Debye):
    X=             -0.6703    Y=              0.8465    Z=              1.3557  Tot=              1.7331
 Quadrupole moment (field-independent basis, Debye-Ang):
   XX=            -48.9602   YY=            -55.0367   ZZ=            -52.1774
   XY=              4.0403   XZ=              2.8076   YZ=             -2.1352

  Exact polarizability: 102.483  12.889  82.121   2.352   0.651  64.735
 Approx polarizability: 135.372  27.617 131.771   5.439   4.390 101.076

                      1                      2                      3
                      A                      A                      A
 Frequencies --     48.8769                73.5394               109.7179
 Red. masses --      3.8025                 2.5879                 3.5311
 Frc consts  --      0.0054                 0.0082                 0.0250
 IR Inten    --      0.3008                 0.5747                 0.4546

                      4                      5                      6
                      A                      A                      A
 Frequencies --    176.0595               210.8534               328.1992
 Red. masses --      3.6202                 3.8342                 3.1823
 Frc consts  --      0.0661                 0.1004                 0.2020
 IR Inten    --      0.3983                 0.7344                 3.0362

                      7                      8                      9
                      A                      A                      A
 Frequencies --    372.0945               414.1872               498.0494
 Red. masses --      3.8397                 2.2073                 4.5753
 Frc consts  --      0.3132                 0.2231                 0.6687
 IR Inten    --      0.3690                11.2496                 4.8773

                     10                     11                     12
                      A                      A                      A
 Frequencies --    536.3506               561.8409               599.8701
 Red. masses --      4.0917                 3.7594                 1.2024
 Frc consts  --      0.6935                 0.6992                 0.2549
 IR Inten    --     10.9411                10.7329                46.7206

                     13                     14                     15
                      A                      A                      A
 Frequencies --    663.9845               688.2366               762.7180
 Red. masses --      1.2458                 1.5196                 1.3901
 Frc consts  --      0.3236                 0.4241                 0.4765
 IR Inten    --     33.7043                97.7437                 0.9461

                     16                     17                     18
                      A                      A                      A
 Frequencies --    803.5254               821.0215               831.2549
 Red. masses --      1.4364                 4.8829                 1.8012
 Frc consts  --      0.5464                 1.9393                 0.7333
 IR Inten    --      8.2300                50.6677                 3.0734

                     19                     20                     21
                      A                      A                      A
 Frequencies --    889.2946               913.5924               967.5258
 Red. masses --      4.3268                 2.8625                 2.3515
 Frc consts  --      2.0161                 1.4077                 1.2970
 IR Inten    --     16.3203                 7.2232                17.8969

                     22                     23                     24
                      A                      A                      A
 Frequencies --   1015.4914              1036.6213              1056.8908
 Red. masses --      1.6630                 1.3251                 1.9312
 Frc consts  --      1.0104                 0.8390                 1.2710
 IR Inten    --     12.8517                 9.5952                 9.9343

                     25                     26                     27
                      A                      A                      A
 Frequencies --   1080.4080              1082.4809              1110.6524
 Red. masses --      1.4010                 1.8450                 1.3418
 Frc consts  --      0.9635                 1.2738                 0.9752
 IR Inten    --      2.0256                 6.6574                 6.0006

                     28                     29                     30
                      A                      A                      A
 Frequencies --   1138.7294              1167.5408              1195.2984
 Red. masses --      1.2038                 1.3428                 1.3871
 Frc consts  --      0.9197                 1.0784                 1.1677
 IR Inten    --      6.5523                 8.5825                 0.6047

                     31                     32                     33
                      A                      A                      A
 Frequencies --   1211.8670              1230.0035              1265.9011
 Red. masses --      1.8452                 1.5757                 1.9552
 Frc consts  --      1.5966                 1.4045                 1.8461
 IR Inten    --     52.6765                26.1310                 5.8918

                     34                     35                     36
                      A                      A                      A
 Frequencies --   1295.6327              1342.3113              1397.5015
 Red. masses --      1.6267                 1.3029                 1.5734
 Frc consts  --      1.6088                 1.3831                 1.8105
 IR Inten    --     25.7178                18.7421                53.7278

                     37                     38                     39
                      A                      A                      A
 Frequencies --   1451.1835              1464.7226              1471.2995
 Red. masses --      1.6279                 1.2783                 1.2287
 Frc consts  --      2.0198                 1.6159                 1.5672
 IR Inten    --     15.5036                18.0552                 9.9578

                     40                     41                     42
                      A                      A                      A
 Frequencies --   1509.9834              2232.5025              3047.0009
 Red. masses --      1.4051                 6.0155                 1.0854
 Frc consts  --      1.8875                17.6648                 5.9371
 IR Inten    --     15.8516                 7.4401                29.1888

                     43                     44                     45
                      A                      A                      A
 Frequencies --   3130.4026              3138.3036              3142.7248
 Red. masses --      1.0528                 1.0681                 1.0771
 Frc consts  --      6.0786                 6.1982                 6.2680
 IR Inten    --     15.2635                17.0718                13.9028

                     46                     47                     48
                      A                      A                      A
 Frequencies --   3159.0299              3210.3406              3226.8850
 Red. masses --      1.0872                 1.1175                 1.1149
 Frc consts  --      6.3925                 6.7859                 6.8398
 IR Inten    --      4.5074                 4.1798                20.4896

                     49                     50                     51
                      A                      A                      A
 Frequencies --   3503.7915              3505.7958              3520.1200
 Red. masses --      1.1463                 1.0877                 1.0737
 Frc consts  --      8.2916                 7.8767                 7.8387
 IR Inten    --     68.1916                14.3889                 1.0838

 - Thermochemistry -
 -------------------
 Temperature   298.150 Kelvin.  Pressure   1.00000 Atm.
 Atom     1 has atomic number  6 and mass  12.00000

 Molecular mass:   122.08440 amu.
 Principal axes and moments of inertia in atomic units:
                           1         2         3
     Eigenvalues --   609.606971781.119492179.91519
           X            0.99998  -0.00512   0.00251
           Y            0.00513   0.99998  -0.00403
           Z           -0.00248   0.00404   0.99999
 This molecule is an asymmetric top.
 Rotational symmetry number  1.
 Warning -- assumption of classical behavior for rotation
           may cause significant error
 Rotational temperatures (Kelvin)      0.14208     0.04863     0.03973
 Rotational constants (GHZ):           2.96050     1.01326     0.82790
 Zero-point vibrational energy     416373.5 (Joules/Mol)
                                   99.51565 (Kcal/Mol)
 Warning -- explicit consideration of  12 degrees of freedom as
           vibrations may cause significant error
 Vibrational temperatures:     70.32   105.81   157.86   253.31   303.37
          (Kelvin)            472.21   535.36   595.92   716.58   771.69
                              808.36   863.08   955.33   990.22  1097.38
                             1156.09  1181.27  1195.99  1279.50  1314.46
                             1392.05  1461.07  1491.47  1520.63  1554.47
                             1557.45  1597.98  1638.38  1679.83  1719.77
                             1743.61  1769.70  1821.35  1864.13  1931.29
                             2010.69  2087.93  2107.41  2116.87  2172.53
                             3212.07  4383.95  4503.95  4515.32  4521.68
                             4545.14  4618.96  4642.77  5041.17  5044.06
                             5064.67

 Zero-point correction=                           0.158588 (Hartree/Particle)
 Thermal correction to Energy=                    0.167720
 Thermal correction to Enthalpy=                  0.168664
 Thermal correction to Gibbs Free Energy=         0.123857
 Sum of electronic and zero-point Energies=           -381.973937
 Sum of electronic and thermal Energies=              -381.964806
 Sum of electronic and thermal Enthalpies=            -381.963862
 Sum of electronic and thermal Free Energies=         -382.008669

                     E (Thermal)             CV                S
                      KCal/Mol        Cal/Mol-Kelvin    Cal/Mol-Kelvin
 Total                  105.246             34.274             94.304
 Electronic               0.000              0.000              0.000
 Translational            0.889              2.981             40.313
 Rotational               0.889              2.981             29.250
 Vibrational            103.468             28.313             24.741
 Vibration     1          0.595              1.978              4.862
 Vibration     2          0.599              1.966              4.056
 Vibration     3          0.606              1.941              3.274
 Vibration     4          0.628              1.872              2.370
 Vibration     5          0.643              1.824              2.036
 Vibration     6          0.711              1.619              1.269
 Vibration     7          0.744              1.529              1.071
 Vibration     8          0.778              1.439              0.912
 Vibration     9          0.854              1.254              0.663
 Vibration    10          0.891              1.170              0.573
 Vibration    11          0.918              1.114              0.520
 Vibration    12          0.958              1.032              0.450

                           ! Non-Optimized Parameters !
 Normal termination of Gaussian 16 at Mon Jul  4 01:27:25 2022.
