 Gaussian 16, Revision A.03,
 Gaussian 16:  ES64L-G16RevA.03 25-Dec-2016

 -----------------------------
 # opt freq b3lyp/6-31g(2df,p)
 -----------------------------

 -------------------
 Title Card Required
 -------------------
 Symbolic Z-matrix:
 Charge =  0 Multiplicity = 1

 SCF Done:  E(RB3LYP) =  -387.191591053     A.U. after   14 cycles
 SCF Done:  E(RB3LYP) =  -387.216107514     A.U. after   12 cycles
 SCF Done:  E(RB3LYP) =  -387.216354169     A.U. after   12 cycles
 SCF Done:  E(RB3LYP) =  -387.212270573     A.U. after   14 cycles
 SCF Done:  E(RB3LYP) =  -387.218267572     A.U. after   11 cycles
 SCF Done:  E(RB3LYP) =  -387.217036594     A.U. after   13 cycles
 SCF Done:  E(RB3LYP) =  -387.219206513     A.U. after   11 cycles
 SCF Done:  E(RB3LYP) =  -387.219951850     A.U. after   11 cycles
 SCF Done:  E(RB3LYP) =  -387.220161124     A.U. after   12 cycles
 SCF Done:  E(RB3LYP) =  -387.220632729     A.U. after   11 cycles
 SCF Done:  E(RB3LYP) =  -387.220914985     A.U. after   10 cycles
 SCF Done:  E(RB3LYP) =  -387.220961454     A.U. after    9 cycles
 SCF Done:  E(RB3LYP) =  -387.220992953     A.U. after    9 cycles
 SCF Done:  E(RB3LYP) =  -387.221012616     A.U. after   10 cycles
 SCF Done:  E(RB3LYP) =  -387.221022860     A.U. after    9 cycles
 SCF Done:  E(RB3LYP) =  -387.221026309     A.U. after    9 cycles
 SCF Done:  E(RB3LYP) =  -387.221029720     A.U. after    9 cycles
 SCF Done:  E(RB3LYP) =  -387.221030392     A.U. after    7 cycles
 SCF Done:  E(RB3LYP) =  -387.221030451     A.U. after    6 cycles
 Optimization completed.
    -- Stationary point found.
 Normal termination of Gaussian 16 at Thu Aug  4 11:57:03 2022.

 ----------------------------------------------------------------------
 #N Geom=AllCheck Guess=TCheck SCRF=Check GenChk RB3LYP/6-31G(2df,p) Fr
 eq
 ----------------------------------------------------------------------

 Structure from the checkpoint file:  "CtCCC1pCpCC1CO.chk"
 -------------------
 Title Card Required
 -------------------
 Charge =  0 Multiplicity = 1

                         Standard orientation:
 ---------------------------------------------------------------------
 Center     Atomic      Atomic             Coordinates (Angstroms)
 Number     Number       Type             X           Y           Z
 ---------------------------------------------------------------------
      1          6           0       -2.768401    1.349022   -0.170596
      2          6           0       -2.201220    0.291118   -0.244999
      3          6           0       -1.473363   -0.972585   -0.335052
      4          6           0       -0.035319   -0.861472    0.179438
      5          6           0        0.067310   -0.620072    1.673278
      6          6           0        1.008212   -1.710802   -0.505825
      7          6           0        0.950434   -0.221057   -0.772549
      8          6           0        2.022736    0.730747   -0.296988
      9          8           0        1.493124    1.945413    0.220831
     10          1           0       -3.289479    2.271560   -0.100635
     11          1           0       -1.466212   -1.308480   -1.379513
     12          1           0       -2.010167   -1.746437    0.230340
     13          1           0       -0.409982   -1.438798    2.224904
     14          1           0       -0.427012    0.314431    1.952882
     15          1           0        1.105485   -0.559289    2.006166
     16          1           0        0.705251   -2.388968   -1.297148
     17          1           0        1.828541   -2.080346    0.101895
     18          1           0        0.528432    0.058354   -1.737211
     19          1           0        2.724375    0.930029   -1.123283
     20          1           0        2.609450    0.287435    0.514150
     21          1           0        0.733990    2.187807   -0.319422
 ---------------------------------------------------------------------

 SCF Done:  E(RB3LYP) =  -387.221030451     A.U. after    1 cycles

 The electronic state is 1-A.
 Alpha  occ. eigenvalues --  -19.12606 -10.22473 -10.21107 -10.20494 -10.19096
 Alpha  occ. eigenvalues --  -10.18913 -10.18362 -10.17344 -10.17245  -1.00717
 Alpha  occ. eigenvalues --   -0.87621  -0.77915  -0.72083  -0.69573  -0.68382
 Alpha  occ. eigenvalues --   -0.59341  -0.55175  -0.52768  -0.49390  -0.48720
 Alpha  occ. eigenvalues --   -0.46203  -0.44469  -0.42996  -0.42198  -0.39577
 Alpha  occ. eigenvalues --   -0.38659  -0.38429  -0.35768  -0.32373  -0.29407
 Alpha  occ. eigenvalues --   -0.27748  -0.26637  -0.26560  -0.25603
 Alpha virt. eigenvalues --    0.04704   0.05479   0.07946   0.09522   0.10792
 Alpha virt. eigenvalues --    0.12326   0.12655   0.13968   0.14986   0.15720
 Alpha virt. eigenvalues --    0.16001   0.17672   0.18411   0.18819   0.20415

 Mulliken charges:
               1
     1  C   -0.463101
     2  C    0.322558
     3  C   -0.429763
     4  C    0.361076
     5  C   -0.453967
     6  C   -0.365068
     7  C   -0.064995
     8  C   -0.075495
     9  O   -0.422485
    10  H    0.197341
    11  H    0.124469
    12  H    0.128243
    13  H    0.107699
    14  H    0.138520
    15  H    0.118428
    16  H    0.108370
    17  H    0.112429
    18  H    0.083207
    19  H    0.087524
    20  H    0.101674
    21  H    0.283335
 Sum of Mulliken charges =  -0.00000

 Dipole moment (field-independent basis, Debye):
    X=             -0.4336    Y=             -1.2335    Z=             -1.0301  Tot=              1.6645
 Quadrupole moment (field-independent basis, Debye-Ang):
   XX=            -56.1567   YY=            -53.4592   ZZ=            -54.6024
   XY=             -4.5636   XZ=             -0.7912   YZ=             -2.0324

  Exact polarizability:  89.331 -11.000  90.972  -1.880   0.691  70.934
 Approx polarizability: 119.731 -20.800 143.511  -2.513   2.294 104.342

                      1                      2                      3
                      A                      A                      A
 Frequencies --     43.6048                83.8671               104.6794
 Red. masses --      3.4688                 3.4915                 2.9108
 Frc consts  --      0.0039                 0.0145                 0.0188
 IR Inten    --      5.2168                 2.8028                 0.9280

                      4                      5                      6
                      A                      A                      A
 Frequencies --    162.7648               172.6731               206.8645
 Red. masses --      1.9970                 1.3701                 1.4018
 Frc consts  --      0.0312                 0.0241                 0.0353
 IR Inten    --      1.0292                73.1990                53.0059

                      7                      8                      9
                      A                      A                      A
 Frequencies --    244.4266               330.0968               340.6763
 Red. masses --      1.9680                 3.6961                 2.9560
 Frc consts  --      0.0693                 0.2373                 0.2021
 IR Inten    --      2.2162                 2.1865                 0.1514

                     10                     11                     12
                      A                      A                      A
 Frequencies --    356.6570               387.2021               418.6139
 Red. masses --      2.1650                 3.1654                 2.2719
 Frc consts  --      0.1623                 0.2796                 0.2346
 IR Inten    --      4.0293                 6.6666                 0.2219

                     13                     14                     15
                      A                      A                      A
 Frequencies --    497.8561               577.3917               621.1053
 Red. masses --      3.3725                 3.6806                 1.2047
 Frc consts  --      0.4925                 0.7229                 0.2738
 IR Inten    --      6.3147                 2.3195                42.9768

                     16                     17                     18
                      A                      A                      A
 Frequencies --    639.9123               716.5420               798.3248
 Red. masses --      1.2353                 3.2921                 1.9466
 Frc consts  --      0.2980                 0.9959                 0.7309
 IR Inten    --     39.1472                 4.1525                 1.4611

                     19                     20                     21
                      A                      A                      A
 Frequencies --    878.6514               900.8829               934.1914
 Red. masses --      1.7319                 1.7490                 1.9712
 Frc consts  --      0.7878                 0.8363                 1.0136
 IR Inten    --      0.4429                 0.4916                 2.0077

                     22                     23                     24
                      A                      A                      A
 Frequencies --    967.8980               978.6390               998.8653
 Red. masses --      1.8278                 2.2360                 1.6748
 Frc consts  --      1.0089                 1.2617                 0.9845
 IR Inten    --      7.6920                 3.6142                 6.7520

                     25                     26                     27
                      A                      A                      A
 Frequencies --   1033.2288              1054.7578              1071.6519
 Red. masses --      2.0374                 2.9794                 1.5498
 Frc consts  --      1.2815                 1.9529                 1.0487
 IR Inten    --     38.5853                29.3996                19.0720

                     28                     29                     30
                      A                      A                      A
 Frequencies --   1107.8898              1122.9022              1155.6775
 Red. masses --      1.8416                 1.5328                 1.5656
 Frc consts  --      1.3318                 1.1387                 1.2320
 IR Inten    --      1.3493                12.3892                 0.3253

                     31                     32                     33
                      A                      A                      A
 Frequencies --   1210.7049              1235.6797              1277.6971
 Red. masses --      1.2104                 1.4855                 1.7870
 Frc consts  --      1.0454                 1.3364                 1.7188
 IR Inten    --      0.5888                12.1406                 7.7900

                     34                     35                     36
                      A                      A                      A
 Frequencies --   1324.3140              1342.0304              1364.0687
 Red. masses --      1.5738                 1.2503                 1.5413
 Frc consts  --      1.6262                 1.3268                 1.6898
 IR Inten    --      6.5742                 0.1220                 8.5579

                     37                     38                     39
                      A                      A                      A
 Frequencies --   1413.5786              1421.6594              1440.3742
 Red. masses --      1.4101                 1.2829                 1.4987
 Frc consts  --      1.6601                 1.5277                 1.8320
 IR Inten    --     17.6239                 4.9516                34.2711

                     40                     41                     42
                      A                      A                      A
 Frequencies --   1466.8131              1488.0407              1489.3769
 Red. masses --      1.0846                 1.1142                 1.0646
 Frc consts  --      1.3750                 1.4536                 1.3914
 IR Inten    --      3.6750                 4.5669                 6.2047

                     43                     44                     45
                      A                      A                      A
 Frequencies --   1504.9316              1521.2036              2232.6805
 Red. masses --      1.3321                 1.0874                 5.9347
 Frc consts  --      1.7776                 1.4826                17.4301
 IR Inten    --      0.7878                 2.3461                 1.3551

                     46                     47                     48
                      A                      A                      A
 Frequencies --   2971.1060              3013.1864              3032.8265
 Red. masses --      1.0728                 1.0596                 1.0416
 Frc consts  --      5.5798                 5.6681                 5.6449
 IR Inten    --     81.9301                19.9477                26.2380

                     49                     50                     51
                      A                      A                      A
 Frequencies --   3048.1509              3064.5847              3100.3052
 Red. masses --      1.1002                 1.0887                 1.0946
 Frc consts  --      6.0226                 6.0242                 6.1988
 IR Inten    --     13.6860                20.6104                19.3308

                     52                     53                     54
                      A                      A                      A
 Frequencies --   3110.7169              3121.9355              3128.0559
 Red. masses --      1.0870                 1.0577                 1.0978
 Frc consts  --      6.1971                 6.0737                 6.3285
 IR Inten    --     21.8681                11.0710                25.0353

                     55                     56                     57
                      A                      A                      A
 Frequencies --   3205.1467              3505.4243              3813.8338
 Red. masses --      1.1163                 1.1616                 1.0664
 Frc consts  --      6.7564                 8.4100                 9.1387
 IR Inten    --     11.3781                64.8683                17.7030

 - Thermochemistry -
 -------------------
 Temperature   298.150 Kelvin.  Pressure   1.00000 Atm.
 Atom     1 has atomic number  6 and mass  12.00000

 Molecular mass:   124.08882 amu.
 Principal axes and moments of inertia in atomic units:
                           1         2         3
     Eigenvalues --   886.837001398.069221787.10374
           X            0.99979  -0.01974  -0.00464
           Y            0.01968   0.99973  -0.01238
           Z            0.00488   0.01228   0.99991
 This molecule is an asymmetric top.
 Rotational symmetry number  1.
 Warning -- assumption of classical behavior for rotation
           may cause significant error
 Rotational temperatures (Kelvin)      0.09767     0.06195     0.04847
 Rotational constants (GHZ):           2.03503     1.29088     1.00987
 Zero-point vibrational energy     471071.0 (Joules/Mol)
                                  112.58867 (Kcal/Mol)
 Warning -- explicit consideration of  14 degrees of freedom as
           vibrations may cause significant error
 Vibrational temperatures:     62.74   120.67   150.61   234.18   248.44
          (Kelvin)            297.63   351.68   474.94   490.16   513.15
                              557.10   602.29   716.30   830.74   893.63
                              920.69  1030.94  1148.61  1264.18  1296.17
                             1344.09  1392.59  1408.04  1437.14  1486.59
                             1517.56  1541.87  1594.01  1615.61  1662.76
                             1741.93  1777.87  1838.32  1905.39  1930.88
                             1962.59  2033.82  2045.45  2072.38  2110.42
                             2140.96  2142.88  2165.26  2188.67  3212.33
                             4274.76  4335.30  4363.56  4385.61  4409.25
                             4460.65  4475.63  4491.77  4500.57  4611.49
                             5043.52  5487.26

 Zero-point correction=                           0.179421 (Hartree/Particle)
 Thermal correction to Energy=                    0.190012
 Thermal correction to Enthalpy=                  0.190956
 Thermal correction to Gibbs Free Energy=         0.143482
 Sum of electronic and zero-point Energies=           -387.041609
 Sum of electronic and thermal Energies=              -387.031019
 Sum of electronic and thermal Enthalpies=            -387.030075
 Sum of electronic and thermal Free Energies=         -387.077549

                     E (Thermal)             CV                S
                      KCal/Mol        Cal/Mol-Kelvin    Cal/Mol-Kelvin
 Total                  119.234             38.655             99.917
 Electronic               0.000              0.000              0.000
 Translational            0.889              2.981             40.361
 Rotational               0.889              2.981             29.184
 Vibrational            117.457             32.694             30.372
 Vibration     1          0.595              1.980              5.088
 Vibration     2          0.601              1.960              3.798
 Vibration     3          0.605              1.945              3.365
 Vibration     4          0.623              1.888              2.517
 Vibration     5          0.626              1.876              2.406
 Vibration     6          0.641              1.830              2.071
 Vibration     7          0.660              1.772              1.770
 Vibration     8          0.713              1.615              1.260
 Vibration     9          0.720              1.594              1.209
 Vibration    10          0.732              1.562              1.137
 Vibration    11          0.756              1.498              1.011
 Vibration    12          0.781              1.430              0.897
 Vibration    13          0.853              1.255              0.664
 Vibration    14          0.934              1.080              0.490

                           ! Non-Optimized Parameters !
 Normal termination of Gaussian 16 at Thu Aug  4 12:35:14 2022.
