 Gaussian 16, Revision A.03,
 Gaussian 16:  ES64L-G16RevA.03 25-Dec-2016

 -----------------------------
 # opt freq b3lyp/6-31g(2df,p)
 -----------------------------

 -------------------
 Title Card Required
 -------------------
 Symbolic Z-matrix:
 Charge =  0 Multiplicity = 1

 SCF Done:  E(RB3LYP) =  -383.791476153     A.U. after   14 cycles
 SCF Done:  E(RB3LYP) =  -383.797109455     A.U. after   13 cycles
 SCF Done:  E(RB3LYP) =  -383.794146360     A.U. after   12 cycles
 SCF Done:  E(RB3LYP) =  -383.797699324     A.U. after   12 cycles
 SCF Done:  E(RB3LYP) =  -383.798966826     A.U. after   12 cycles
 SCF Done:  E(RB3LYP) =  -383.799210891     A.U. after   11 cycles
 SCF Done:  E(RB3LYP) =  -383.799716127     A.U. after   11 cycles
 SCF Done:  E(RB3LYP) =  -383.799815657     A.U. after   11 cycles
 SCF Done:  E(RB3LYP) =  -383.799940829     A.U. after   10 cycles
 SCF Done:  E(RB3LYP) =  -383.800009083     A.U. after   10 cycles
 SCF Done:  E(RB3LYP) =  -383.800057955     A.U. after   11 cycles
 SCF Done:  E(RB3LYP) =  -383.800083564     A.U. after   10 cycles
 SCF Done:  E(RB3LYP) =  -383.800086875     A.U. after   10 cycles
 SCF Done:  E(RB3LYP) =  -383.800087104     A.U. after    8 cycles
 SCF Done:  E(RB3LYP) =  -383.800087107     A.U. after    7 cycles
 Optimization completed.
    -- Stationary point found.
 Normal termination of Gaussian 16 at Thu Aug  4 01:38:17 2022.

 ----------------------------------------------------------------------
 #N Geom=AllCheck Guess=TCheck SCRF=Check GenChk RB3LYP/6-31G(2df,p) Fr
 eq
 ----------------------------------------------------------------------

 Structure from the checkpoint file:  "CtCC1OCC1CO.chk"
 -------------------
 Title Card Required
 -------------------
 Charge =  0 Multiplicity = 1

                         Standard orientation:
 ---------------------------------------------------------------------
 Center     Atomic      Atomic             Coordinates (Angstroms)
 Number     Number       Type             X           Y           Z
 ---------------------------------------------------------------------
      1          6           0        2.734474   -1.270469   -0.289342
      2          6           0        1.764016   -0.666018    0.082307
      3          6           0        0.580203    0.056618    0.517022
      4          8           0        0.777501    1.494564    0.590232
      5          6           0       -0.202073    1.736995   -0.440555
      6          6           0       -0.559655    0.238822   -0.526842
      7          6           0       -1.944539   -0.153525   -0.034718
      8          8           0       -2.052240   -1.539962    0.239104
      9          1           0        3.597289   -1.802822   -0.605861
     10          1           0        0.231621   -0.341679    1.477928
     11          1           0        0.249899    2.167061   -1.342061
     12          1           0       -1.005989    2.398739   -0.093775
     13          1           0       -0.345420   -0.225603   -1.493003
     14          1           0       -2.705849    0.181137   -0.757819
     15          1           0       -2.156686    0.352180    0.914286
     16          1           0       -1.901515   -2.020369   -0.581619
 ---------------------------------------------------------------------

 SCF Done:  E(RB3LYP) =  -383.800087107     A.U. after    1 cycles

 The electronic state is 1-A.
 Alpha  occ. eigenvalues --  -19.14547 -19.13908 -10.25708 -10.23884 -10.23710
 Alpha  occ. eigenvalues --  -10.20368 -10.18379 -10.17997  -1.04455  -1.02587
 Alpha  occ. eigenvalues --   -0.78504  -0.76145  -0.69683  -0.66698  -0.58377
 Alpha  occ. eigenvalues --   -0.53998  -0.51682  -0.50584  -0.48542  -0.45309
 Alpha  occ. eigenvalues --   -0.43097  -0.42169  -0.40513  -0.36163  -0.33069
 Alpha  occ. eigenvalues --   -0.31908  -0.28646  -0.27297  -0.26652  -0.25620
 Alpha virt. eigenvalues --    0.02118   0.04673   0.06648   0.10052   0.11304
 Alpha virt. eigenvalues --    0.11751   0.12504   0.14812   0.15726   0.15887
 Alpha virt. eigenvalues --    0.17511   0.18924   0.21655   0.24068   0.25275

 Mulliken charges:
               1
     1  C   -0.449158
     2  C    0.332027
     3  C   -0.055996
     4  O   -0.276653
     5  C   -0.090988
     6  C   -0.079865
     7  C   -0.078702
     8  O   -0.413871
     9  H    0.201373
    10  H    0.116019
    11  H    0.109294
    12  H    0.103235
    13  H    0.085376
    14  H    0.092744
    15  H    0.119128
    16  H    0.286037
 Sum of Mulliken charges =  -0.00000

 Dipole moment (field-independent basis, Debye):
    X=             -1.0064    Y=             -0.4762    Z=             -2.3123  Tot=              2.5664
 Quadrupole moment (field-independent basis, Debye-Ang):
   XX=            -45.9921   YY=            -46.7522   ZZ=            -45.6578
   XY=             -5.8030   XZ=              0.6981   YZ=              1.5029

  Exact polarizability:  79.422 -13.512  67.853  -3.955   1.180  52.975
 Approx polarizability: 110.097 -22.474  98.310  -9.632   6.045  82.887

                      1                      2                      3
                      A                      A                      A
 Frequencies --     42.3382               102.1334               154.8864
 Red. masses --      4.1743                 3.4897                 3.5681
 Frc consts  --      0.0044                 0.0214                 0.0504
 IR Inten    --      1.7035                 1.7683                 1.3389

                      4                      5                      6
                      A                      A                      A
 Frequencies --    190.7109               228.4016               305.9505
 Red. masses --      2.7751                 4.0077                 1.2066
 Frc consts  --      0.0595                 0.1232                 0.0665
 IR Inten    --      1.9505                 4.5899               107.8606

                      7                      8                      9
                      A                      A                      A
 Frequencies --    361.6048               463.8718               499.2823
 Red. masses --      2.5133                 3.7273                 5.2383
 Frc consts  --      0.1936                 0.4725                 0.7694
 IR Inten    --     11.3959                13.6586                 6.9565

                     10                     11                     12
                      A                      A                      A
 Frequencies --    536.2248               621.0742               670.4970
 Red. masses --      7.0756                 1.2225                 1.2576
 Frc consts  --      1.1987                 0.2778                 0.3331
 IR Inten    --      4.0777                42.0886                34.5648

                     13                     14                     15
                      A                      A                      A
 Frequencies --    789.1071               848.1101               888.5059
 Red. masses --      4.3306                 2.1406                 1.5289
 Frc consts  --      1.5888                 0.9072                 0.7111
 IR Inten    --      3.9115                 7.6371                10.0731

                     16                     17                     18
                      A                      A                      A
 Frequencies --    944.1906              1014.5949              1024.1444
 Red. masses --      4.0972                 4.5357                 4.3112
 Frc consts  --      2.1520                 2.7509                 2.6642
 IR Inten    --     29.5916                55.9191                38.2781

                     19                     20                     21
                      A                      A                      A
 Frequencies --   1046.5413              1082.2910              1092.4046
 Red. masses --      3.1089                 2.7929                 2.5533
 Frc consts  --      2.0062                 1.9275                 1.7953
 IR Inten    --     68.6222                70.6131                 0.6776

                     22                     23                     24
                      A                      A                      A
 Frequencies --   1113.9009              1157.9069              1194.4290
 Red. masses --      1.9078                 1.1457                 1.3407
 Frc consts  --      1.3947                 0.9051                 1.1269
 IR Inten    --      4.7436                 3.8205                 7.7134

                     25                     26                     27
                      A                      A                      A
 Frequencies --   1241.9669              1263.4134              1330.2030
 Red. masses --      1.3141                 1.4362                 1.2294
 Frc consts  --      1.1943                 1.3507                 1.2817
 IR Inten    --      1.8774                10.7741                12.5848

                     28                     29                     30
                      A                      A                      A
 Frequencies --   1356.7300              1370.1928              1396.3511
 Red. masses --      1.3515                 1.3424                 1.4565
 Frc consts  --      1.4657                 1.4849                 1.6732
 IR Inten    --      6.2699                 3.9721                15.6660

                     31                     32                     33
                      A                      A                      A
 Frequencies --   1420.8032              1506.4283              1525.8414
 Red. masses --      1.2808                 1.0848                 1.0994
 Frc consts  --      1.5234                 1.4505                 1.5081
 IR Inten    --     39.0546                 0.9764                 0.9263

                     34                     35                     36
                      A                      A                      A
 Frequencies --   2233.6532              2975.3987              3013.7422
 Red. masses --      5.9285                 1.0695                 1.0560
 Frc consts  --     17.4272                 5.5788                 5.6511
 IR Inten    --      1.4948                55.0178                84.3695

                     37                     38                     39
                      A                      A                      A
 Frequencies --   3029.9048              3055.0406              3059.4238
 Red. masses --      1.0833                 1.1050                 1.0933
 Frc consts  --      5.8594                 6.0765                 6.0293
 IR Inten    --     12.9454                26.8272                 3.5078

                     40                     41                     42
                      A                      A                      A
 Frequencies --   3082.5208              3502.4034              3812.1820
 Red. masses --      1.0914                 1.1621                 1.0662
 Frc consts  --      6.1099                 8.3993                 9.1289
 IR Inten    --     51.0812                64.0419                18.9305

 - Thermochemistry -
 -------------------
 Temperature   298.150 Kelvin.  Pressure   1.00000 Atm.
 Atom     1 has atomic number  6 and mass  12.00000

 Molecular mass:   112.05243 amu.
 Principal axes and moments of inertia in atomic units:
                           1         2         3
     Eigenvalues --   636.961161116.587491576.43230
           X            0.99909  -0.04267  -0.00095
           Y            0.04266   0.99907  -0.00659
           Z            0.00123   0.00654   0.99998
 This molecule is an asymmetric top.
 Rotational symmetry number  1.
 Warning -- assumption of classical behavior for rotation
           may cause significant error
 Rotational temperatures (Kelvin)      0.13598     0.07757     0.05494
 Rotational constants (GHZ):           2.83336     1.61630     1.14483
 Zero-point vibrational energy     338239.9 (Joules/Mol)
                                   80.84129 (Kcal/Mol)
 Warning -- explicit consideration of  10 degrees of freedom as
           vibrations may cause significant error
 Vibrational temperatures:     60.92   146.95   222.85   274.39   328.62
          (Kelvin)            440.19   520.27   667.41   718.36   771.51
                              893.59   964.70  1135.35  1220.24  1278.36
                             1358.48  1459.78  1473.52  1505.74  1557.18
                             1571.73  1602.65  1665.97  1718.52  1786.91
                             1817.77  1913.87  1952.03  1971.40  2009.04
                             2044.22  2167.41  2195.35  3213.73  4280.94
                             4336.10  4359.36  4395.52  4401.83  4435.06
                             5039.18  5484.88

 Zero-point correction=                           0.128829 (Hartree/Particle)
 Thermal correction to Energy=                    0.137221
 Thermal correction to Enthalpy=                  0.138165
 Thermal correction to Gibbs Free Energy=         0.095182
 Sum of electronic and zero-point Energies=           -383.671258
 Sum of electronic and thermal Energies=              -383.662866
 Sum of electronic and thermal Enthalpies=            -383.661922
 Sum of electronic and thermal Free Energies=         -383.704905

                     E (Thermal)             CV                S
                      KCal/Mol        Cal/Mol-Kelvin    Cal/Mol-Kelvin
 Total                   86.107             29.886             90.467
 Electronic               0.000              0.000              0.000
 Translational            0.889              2.981             40.057
 Rotational               0.889              2.981             28.507
 Vibrational             84.330             23.925             21.902
 Vibration     1          0.595              1.980              5.147
 Vibration     2          0.604              1.947              3.413
 Vibration     3          0.620              1.897              2.611
 Vibration     4          0.634              1.853              2.221
 Vibration     5          0.651              1.798              1.891
 Vibration     6          0.696              1.662              1.384
 Vibration     7          0.736              1.551              1.115
 Vibration     8          0.821              1.330              0.755
 Vibration     9          0.855              1.252              0.660
 Vibration    10          0.891              1.170              0.573

 Optimization completed.
    -- Stationary point found.
 Normal termination of Gaussian 16 at Thu Aug  4 01:56:14 2022.
