 Gaussian 16, Revision A.03,
 Gaussian 16:  ES64L-G16RevA.03 25-Dec-2016

 -----------------------------
 # opt freq b3lyp/6-31g(2df,p)
 -----------------------------

 -------------------
 Title Card Required
 -------------------
 Symbolic Z-matrix:
 Charge =  0 Multiplicity = 1

 SCF Done:  E(RB3LYP) =  -349.123143424     A.U. after   14 cycles
 SCF Done:  E(RB3LYP) =  -349.144057263     A.U. after   12 cycles
 SCF Done:  E(RB3LYP) =  -349.145844822     A.U. after   12 cycles
 SCF Done:  E(RB3LYP) =  -349.134543884     A.U. after   14 cycles
 SCF Done:  E(RB3LYP) =  -349.145750207     A.U. after   12 cycles
 SCF Done:  E(RB3LYP) =  -349.146569575     A.U. after   10 cycles
 SCF Done:  E(RB3LYP) =  -349.146694478     A.U. after   11 cycles
 SCF Done:  E(RB3LYP) =  -349.146417644     A.U. after   12 cycles
 SCF Done:  E(RB3LYP) =  -349.147030454     A.U. after   10 cycles
 SCF Done:  E(RB3LYP) =  -349.147167173     A.U. after   10 cycles
 SCF Done:  E(RB3LYP) =  -349.147180777     A.U. after    9 cycles
 SCF Done:  E(RB3LYP) =  -349.147186326     A.U. after    9 cycles
 SCF Done:  E(RB3LYP) =  -349.147189847     A.U. after    8 cycles
 SCF Done:  E(RB3LYP) =  -349.147190349     A.U. after    7 cycles
 Optimization completed.
    -- Stationary point found.
 Normal termination of Gaussian 16 at Thu Aug  4 10:57:10 2022.

 ----------------------------------------------------------------------
 #N Geom=AllCheck Guess=TCheck SCRF=Check GenChk RB3LYP/6-31G(2df,p) Fr
 eq
 ----------------------------------------------------------------------

 Structure from the checkpoint file:  "CtCCpOpCCpCpC.chk"
 -------------------
 Title Card Required
 -------------------
 Charge =  0 Multiplicity = 1

                         Standard orientation:
 ---------------------------------------------------------------------
 Center     Atomic      Atomic             Coordinates (Angstroms)
 Number     Number       Type             X           Y           Z
 ---------------------------------------------------------------------
      1          6           0        3.350310   -0.859782   -0.248698
      2          6           0        2.304330   -0.369945    0.085476
      3          6           0        1.015552    0.240758    0.433005
      4          8           0        1.001188    1.625498    0.087276
      5          6           0       -0.149956   -0.566969   -0.176263
      6          6           0       -1.560209   -0.170291    0.303686
      7          6           0       -2.049966    1.159298   -0.289416
      8          6           0       -2.555964   -1.296433   -0.011564
      9          1           0        4.281721   -1.290195   -0.523116
     10          1           0        0.905127    0.233783    1.525022
     11          1           0        1.237189    1.691910   -0.844984
     12          1           0        0.031564   -1.619050    0.074952
     13          1           0       -0.088854   -0.501546   -1.271754
     14          1           0       -1.516667   -0.059377    1.397361
     15          1           0       -2.119549    1.089634   -1.382518
     16          1           0       -1.372997    1.978972   -0.046011
     17          1           0       -3.048924    1.404489    0.086888
     18          1           0       -2.617765   -1.472412   -1.092378
     19          1           0       -3.561480   -1.040736    0.338305
     20          1           0       -2.263449   -2.239265    0.462664
 ---------------------------------------------------------------------

 SCF Done:  E(RB3LYP) =  -349.147190349     A.U. after    1 cycles

 The electronic state is 1-A.
 Alpha  occ. eigenvalues --  -19.14436 -10.25720 -10.18783 -10.18465 -10.18343
 Alpha  occ. eigenvalues --  -10.17895 -10.17133 -10.16365  -1.02673  -0.81034
 Alpha  occ. eigenvalues --   -0.76886  -0.71663  -0.67699  -0.64173  -0.56857
 Alpha  occ. eigenvalues --   -0.54435  -0.50170  -0.47524  -0.45679  -0.43604
 Alpha  occ. eigenvalues --   -0.42329  -0.39271  -0.37862  -0.36426  -0.35726
 Alpha  occ. eigenvalues --   -0.33521  -0.32481  -0.32086  -0.28778  -0.27158
 Alpha  occ. eigenvalues --   -0.26357
 Alpha virt. eigenvalues --    0.03387   0.05129   0.08495   0.10226   0.11656
 Alpha virt. eigenvalues --    0.12557   0.14278   0.15169   0.15776   0.16213
 Alpha virt. eigenvalues --    0.17476   0.18610   0.19342   0.21427   0.22633

 Mulliken charges:
               1
     1  C   -0.447799
     2  C    0.302909
     3  C   -0.069789
     4  O   -0.405837
     5  C   -0.186644
     6  C    0.043876
     7  C   -0.390071
     8  C   -0.395320
     9  H    0.198925
    10  H    0.118361
    11  H    0.284289
    12  H    0.106848
    13  H    0.092860
    14  H    0.072273
    15  H    0.101797
    16  H    0.137473
    17  H    0.104310
    18  H    0.112022
    19  H    0.110871
    20  H    0.108646
 Sum of Mulliken charges =  -0.00000

 Dipole moment (field-independent basis, Debye):
    X=             -0.0047    Y=             -0.9043    Z=             -0.8476  Tot=              1.2394
 Quadrupole moment (field-independent basis, Debye-Ang):
   XX=            -47.4158   YY=            -52.1146   ZZ=            -48.0524
   XY=             -1.9315   XZ=             -2.8805   YZ=             -1.9682

  Exact polarizability:  99.643  -8.539  71.166  -4.850   0.368  62.091
 Approx polarizability: 129.628 -17.217 103.065 -11.331   3.253  97.818

                      1                      2                      3
                      A                      A                      A
 Frequencies --     41.9711               107.5708               124.8308
 Red. masses --      3.3657                 2.4851                 3.6097
 Frc consts  --      0.0035                 0.0169                 0.0331
 IR Inten    --      0.3081                 0.2083                 0.8991

                      4                      5                      6
                      A                      A                      A
 Frequencies --    208.1730               233.4569               250.5979
 Red. masses --      1.9879                 1.2581                 1.6867
 Frc consts  --      0.0508                 0.0404                 0.0624
 IR Inten    --      3.6028                 3.7018                 9.9553

                      7                      8                      9
                      A                      A                      A
 Frequencies --    269.5238               298.9560               323.1073
 Red. masses --      1.4267                 2.3727                 1.7547
 Frc consts  --      0.0611                 0.1249                 0.1079
 IR Inten    --     11.7811                15.9209                79.1816

                     10                     11                     12
                      A                      A                      A
 Frequencies --    351.1553               422.1957               464.6306
 Red. masses --      2.4829                 1.8577                 2.7642
 Frc consts  --      0.1804                 0.1951                 0.3516
 IR Inten    --      0.2980                 0.9563                 5.0832

                     13                     14                     15
                      A                      A                      A
 Frequencies --    553.1738               575.5299               632.3232
 Red. masses --      3.3463                 5.3897                 1.2235
 Frc consts  --      0.6033                 1.0518                 0.2882
 IR Inten    --     13.0141                11.7871                45.6983

                     16                     17                     18
                      A                      A                      A
 Frequencies --    669.8257               825.5944               854.8675
 Red. masses --      1.2484                 2.7889                 2.7391
 Frc consts  --      0.3300                 1.1200                 1.1794
 IR Inten    --     35.7769                 0.5815                 8.8332

                     19                     20                     21
                      A                      A                      A
 Frequencies --    914.9132               932.3005               956.0829
 Red. masses --      1.8719                 1.1873                 2.3033
 Frc consts  --      0.9232                 0.6080                 1.2405
 IR Inten    --     11.7920                 3.5993                13.7929

                     22                     23                     24
                      A                      A                      A
 Frequencies --    967.5807              1016.4858              1079.8973
 Red. masses --      1.5253                 2.3339                 4.0737
 Frc consts  --      0.8414                 1.4208                 2.7990
 IR Inten    --      0.3154                25.5681                56.4704

                     25                     26                     27
                      A                      A                      A
 Frequencies --   1123.6366              1146.1533              1195.1211
 Red. masses --      1.5198                 2.1946                 1.7309
 Frc consts  --      1.1306                 1.6986                 1.4566
 IR Inten    --     21.5950                16.5182                 6.5872

                     28                     29                     30
                      A                      A                      A
 Frequencies --   1233.2804              1273.0762              1317.3101
 Red. masses --      1.4177                 1.2773                 1.2631
 Frc consts  --      1.2704                 1.2197                 1.2914
 IR Inten    --      8.2934                11.3447                 1.5457

                     31                     32                     33
                      A                      A                      A
 Frequencies --   1348.2526              1366.3910              1381.6026
 Red. masses --      1.3198                 1.3812                 1.4632
 Frc consts  --      1.4135                 1.5194                 1.6456
 IR Inten    --      1.9043                 3.4852                 6.6753

                     34                     35                     36
                      A                      A                      A
 Frequencies --   1399.6885              1416.4467              1424.2499
 Red. masses --      1.2506                 1.1951                 1.2448
 Frc consts  --      1.4435                 1.4127                 1.4877
 IR Inten    --      5.2224                41.9997                13.3060

                     37                     38                     39
                      A                      A                      A
 Frequencies --   1470.7983              1491.0609              1494.2853
 Red. masses --      1.0882                 1.0444                 1.0574
 Frc consts  --      1.3869                 1.3680                 1.3910
 IR Inten    --      2.3848                 0.9781                 2.4024

                     40                     41                     42
                      A                      A                      A
 Frequencies --   1504.0579              1517.3863              2230.7558
 Red. masses --      1.0497                 1.0523                 5.9070
 Frc consts  --      1.3991                 1.4275                17.3188
 IR Inten    --      4.7020                 6.5070                 0.6859

                     43                     44                     45
                      A                      A                      A
 Frequencies --   2991.7761              3011.9398              3021.5949
 Red. masses --      1.0811                 1.0630                 1.0375
 Frc consts  --      5.7014                 5.6816                 5.5812
 IR Inten    --     11.7832                11.0367                20.6524

                     46                     47                     48
                      A                      A                      A
 Frequencies --   3026.8927              3032.1228              3060.9548
 Red. masses --      1.0439                 1.0778                 1.0998
 Frc consts  --      5.6349                 5.8382                 6.0714
 IR Inten    --     33.7415                27.9071                24.8595

                     49                     50                     51
                      A                      A                      A
 Frequencies --   3083.1811              3090.5635              3098.7030
 Red. masses --      1.0990                 1.0999                 1.1014
 Frc consts  --      6.1552                 6.1900                 6.2312
 IR Inten    --     13.2134                62.7700                41.2607

                     52                     53                     54
                      A                      A                      A
 Frequencies --   3143.2693              3503.0496              3802.1189
 Red. masses --      1.0972                 1.1623                 1.0661
 Frc consts  --      6.3870                 8.4032                 9.0802
 IR Inten    --      8.4743                65.3012                22.4921

 - Thermochemistry -
 -------------------
 Temperature   298.150 Kelvin.  Pressure   1.00000 Atm.
 Atom     1 has atomic number  6 and mass  12.00000

 Molecular mass:   112.08882 amu.
 Principal axes and moments of inertia in atomic units:
                           1         2         3
     Eigenvalues --   474.979041657.405012017.59781
           X            1.00000   0.00105  -0.00106
           Y           -0.00106   0.99993  -0.01179
           Z            0.00105   0.01180   0.99993
 This molecule is an asymmetric top.
 Rotational symmetry number  1.
 Warning -- assumption of classical behavior for rotation
           may cause significant error
 Rotational temperatures (Kelvin)      0.18235     0.05226     0.04293
 Rotational constants (GHZ):           3.79962     1.08890     0.89450
 Zero-point vibrational energy     456222.6 (Joules/Mol)
                                  109.03982 (Kcal/Mol)
 Warning -- explicit consideration of  14 degrees of freedom as
           vibrations may cause significant error
 Vibrational temperatures:     60.39   154.77   179.60   299.51   335.89
          (Kelvin)            360.55   387.78   430.13   464.88   505.23
                              607.45   668.50   795.89   828.06   909.77
                              963.73  1187.85  1229.96  1316.36  1341.37
                             1375.59  1392.13  1462.50  1553.73  1616.66
                             1649.06  1719.51  1774.42  1831.67  1895.32
                             1939.83  1965.93  1987.82  2013.84  2037.95
                             2049.18  2116.15  2145.30  2149.94  2164.00
                             2183.18  3209.56  4304.50  4333.51  4347.40
                             4355.02  4362.55  4404.03  4436.01  4446.63
                             4458.34  4522.46  5040.11  5470.40

 Zero-point correction=                           0.173766 (Hartree/Particle)
 Thermal correction to Energy=                    0.183757
 Thermal correction to Enthalpy=                  0.184701
 Thermal correction to Gibbs Free Energy=         0.138929
 Sum of electronic and zero-point Energies=           -348.973424
 Sum of electronic and thermal Energies=              -348.963433
 Sum of electronic and thermal Enthalpies=            -348.962489
 Sum of electronic and thermal Free Energies=         -349.008261

                     E (Thermal)             CV                S
                      KCal/Mol        Cal/Mol-Kelvin    Cal/Mol-Kelvin
 Total                  115.309             36.475             96.336
 Electronic               0.000              0.000              0.000
 Translational            0.889              2.981             40.058
 Rotational               0.889              2.981             28.853
 Vibrational            113.532             30.514             27.424
 Vibration     1          0.595              1.980              5.164
 Vibration     2          0.606              1.943              3.312
 Vibration     3          0.610              1.928              3.024
 Vibration     4          0.641              1.828              2.060
 Vibration     5          0.654              1.790              1.852
 Vibration     6          0.663              1.762              1.726
 Vibration     7          0.674              1.729              1.599
 Vibration     8          0.692              1.676              1.423
 Vibration     9          0.708              1.629              1.294
 Vibration    10          0.728              1.573              1.161
 Vibration    11          0.785              1.422              0.885
 Vibration    12          0.822              1.329              0.753
 Vibration    13          0.909              1.133              0.538
 Vibration    14          0.932              1.084              0.494

 Optimization completed.
    -- Stationary point found.
 Normal termination of Gaussian 16 at Thu Aug  4 11:20:53 2022.
