 Gaussian 16, Revision A.03,
 Gaussian 16:  ES64L-G16RevA.03 25-Dec-2016

 -----------------------------
 # opt freq b3lyp/6-31g(2df,p)
 -----------------------------

 -------------------
 Title Card Required
 -------------------
 Symbolic Z-matrix:
 Charge =  0 Multiplicity = 1

 SCF Done:  E(RB3LYP) =  -344.170222570     A.U. after   15 cycles
 SCF Done:  E(RB3LYP) =  -344.199083831     A.U. after   14 cycles
 SCF Done:  E(RB3LYP) =  -344.194174271     A.U. after   17 cycles
 SCF Done:  E(RB3LYP) =  -344.203324347     A.U. after   14 cycles
 SCF Done:  E(RB3LYP) =  -344.203510914     A.U. after   16 cycles
 SCF Done:  E(RB3LYP) =  -344.204314819     A.U. after   12 cycles
 SCF Done:  E(RB3LYP) =  -344.204742436     A.U. after   14 cycles
 SCF Done:  E(RB3LYP) =  -344.204629134     A.U. after   13 cycles
 SCF Done:  E(RB3LYP) =  -344.205000016     A.U. after   13 cycles
 SCF Done:  E(RB3LYP) =  -344.205120963     A.U. after   12 cycles
 SCF Done:  E(RB3LYP) =  -344.204976162     A.U. after   13 cycles
 SCF Done:  E(RB3LYP) =  -344.205160878     A.U. after   13 cycles
 SCF Done:  E(RB3LYP) =  -344.205279689     A.U. after   12 cycles
 SCF Done:  E(RB3LYP) =  -344.205294879     A.U. after   12 cycles
 SCF Done:  E(RB3LYP) =  -344.205297245     A.U. after    9 cycles
 Optimization completed.
    -- Stationary point found.
 Normal termination of Gaussian 16 at Sun Jul  3 23:24:10 2022.

 ----------------------------------------------------------------------
 #N Geom=AllCheck Guess=TCheck SCRF=Check GenChk RB3LYP/6-31G(2df,p) Fr
 eq
 ----------------------------------------------------------------------

 Structure from the checkpoint file:  "CtCCtCC1CC1dO.chk"
 -------------------
 Title Card Required
 -------------------
 Charge =  0 Multiplicity = 1

                         Standard orientation:
 ---------------------------------------------------------------------
 Center     Atomic      Atomic             Coordinates (Angstroms)
 Number     Number       Type             X           Y           Z
 ---------------------------------------------------------------------
      1          6           0       -4.004117    0.301807   -0.250432
      2          6           0       -2.830312    0.100227   -0.048078
      3          6           0       -1.510235   -0.127826    0.178371
      4          6           0       -0.333293   -0.335044    0.381373
      5          6           0        1.055629   -0.555399    0.601322
      6          6           0        1.993119   -1.023459   -0.591674
      7          6           0        2.090248    0.326501   -0.044540
      8          8           0        2.581771    1.409074   -0.074268
      9          1           0       -5.035516    0.482145   -0.426118
     10          1           0        1.334149   -0.966640    1.570222
     11          1           0        1.527396   -1.150737   -1.564792
     12          1           0        2.753564   -1.758202   -0.343221
 ---------------------------------------------------------------------

 SCF Done:  E(RB3LYP) =  -344.205297245     A.U. after    1 cycles

 The electronic state is 1-A.
 Alpha  occ. eigenvalues --  -19.17258 -10.30595 -10.24188 -10.22716 -10.20905
 Alpha  occ. eigenvalues --  -10.20599 -10.20407 -10.19619  -1.07775  -0.89153
 Alpha  occ. eigenvalues --   -0.79814  -0.74734  -0.67420  -0.61223  -0.57614
 Alpha  occ. eigenvalues --   -0.53457  -0.51574  -0.48834  -0.44620  -0.43055
 Alpha  occ. eigenvalues --   -0.39565  -0.38159  -0.34993  -0.33561  -0.27860
 Alpha  occ. eigenvalues --   -0.25028  -0.23164
 Alpha virt. eigenvalues --   -0.05150  -0.02505  -0.01408   0.08873   0.10400
 Alpha virt. eigenvalues --    0.11551   0.13773   0.15043   0.16559   0.18677
 Alpha virt. eigenvalues --    0.21134   0.23167   0.24829   0.28032   0.31113

 Mulliken charges:
               1
     1  C   -0.555997
     2  C    0.300202
     3  C   -0.241359
     4  C    0.408000
     5  C   -0.379625
     6  C   -0.393016
     7  C    0.454228
     8  O   -0.259888
     9  H    0.193844
    10  H    0.149127
    11  H    0.166520
    12  H    0.157964
 Sum of Mulliken charges =  -0.00000

 Dipole moment (field-independent basis, Debye):
    X=              0.0219    Y=             -2.3817    Z=             -0.1376  Tot=              2.3858
 Quadrupole moment (field-independent basis, Debye-Ang):
   XX=            -37.7584   YY=            -46.9547   ZZ=            -42.8984
   XY=             -8.5943   XZ=              2.2289   YZ=             -0.2542

  Exact polarizability: 148.000 -10.339  51.518   5.399  -0.050  44.987
 Approx polarizability: 259.521 -20.445  84.828  20.103  -2.767  69.204

                      1                      2                      3
                      A                      A                      A
 Frequencies --     68.9889                96.9576               177.3790
 Red. masses --      7.5248                 4.0400                 5.9505
 Frc consts  --      0.0211                 0.0224                 0.1103
 IR Inten    --      1.8024                 2.7712                 4.7925

                      4                      5                      6
                      A                      A                      A
 Frequencies --    234.5611               356.4241               394.2421
 Red. masses --      4.4179                 3.6110                 5.2314
 Frc consts  --      0.1432                 0.2703                 0.4791
 IR Inten    --      1.8481                 2.2722                 0.0130

                      7                      8                      9
                      A                      A                      A
 Frequencies --    458.8031               519.0527               545.6202
 Red. masses --      4.9368                 4.0417                 4.8401
 Frc consts  --      0.6123                 0.6416                 0.8490
 IR Inten    --      3.3747                11.0147                 4.5703

                     10                     11                     12
                      A                      A                      A
 Frequencies --    556.9559               589.8978               607.8613
 Red. masses --      1.7534                 2.0077                 1.3949
 Frc consts  --      0.3205                 0.4116                 0.3037
 IR Inten    --     13.8868                19.6563                35.4326

                     13                     14                     15
                      A                      A                      A
 Frequencies --    650.2802               698.1157               809.5066
 Red. masses --      2.8747                 3.1080                 2.5986
 Frc consts  --      0.7162                 0.8925                 1.0033
 IR Inten    --      1.6349                13.7789                 2.8404

                     16                     17                     18
                      A                      A                      A
 Frequencies --    911.9377               981.0737              1040.3868
 Red. masses --      4.1738                 2.2463                 1.7394
 Frc consts  --      2.0451                 1.2739                 1.1093
 IR Inten    --    184.2665                27.9493                22.9930

                     19                     20                     21
                      A                      A                      A
 Frequencies --   1065.2255              1080.6960              1207.7097
 Red. masses --      1.8032                 1.5329                 1.8137
 Frc consts  --      1.2055                 1.0548                 1.5587
 IR Inten    --     15.1882                 7.3085                16.3245

                     22                     23                     24
                      A                      A                      A
 Frequencies --   1332.9654              1411.7030              1962.8125
 Red. masses --      2.4999                 1.1316                12.7966
 Frc consts  --      2.6171                 1.3288                29.0470
 IR Inten    --      2.8506                 8.2550               390.5740

                     25                     26                     27
                      A                      A                      A
 Frequencies --   2180.4852              2349.6149              3120.1990
 Red. masses --      6.7169                10.6216                 1.0544
 Frc consts  --     18.8160                34.5489                 6.0481
 IR Inten    --      0.2284                36.0504                 0.5383

                     28                     29                     30
                      A                      A                      A
 Frequencies --   3121.6460              3213.9057              3504.8636
 Red. masses --      1.0835                 1.1152                 1.1544
 Frc consts  --      6.2210                 6.7871                 8.3550
 IR Inten    --      9.5038                 0.2027               123.0356

 - Thermochemistry -
 -------------------
 Temperature   298.150 Kelvin.  Pressure   1.00000 Atm.
 Atom     1 has atomic number  6 and mass  12.00000

 Molecular mass:   104.02621 amu.
 Principal axes and moments of inertia in atomic units:
                           1         2         3
     Eigenvalues --   264.925492112.822392257.79300
           X            0.99980  -0.01981   0.00129
           Y            0.01979   0.99966   0.01682
           Z           -0.00162  -0.01679   0.99986
 This molecule is an asymmetric top.
 Rotational symmetry number  1.
 Rotational temperatures (Kelvin)      0.32694     0.04099     0.03836
 Rotational constants (GHZ):           6.81226     0.85419     0.79934
 Zero-point vibrational energy     210841.0 (Joules/Mol)
                                   50.39222 (Kcal/Mol)
 Warning -- explicit consideration of  12 degrees of freedom as
           vibrations may cause significant error
 Vibrational temperatures:     99.26   139.50   255.21   337.48   512.81
          (Kelvin)            567.23   660.12   746.80   785.03   801.34
                              848.73   874.58   935.61  1004.43  1164.70
                             1312.07  1411.55  1496.88  1532.62  1554.88
                             1737.62  1917.84  2031.13  2824.05  3137.23
                             3380.57  4489.27  4491.35  4624.09  5042.72

 Zero-point correction=                           0.080305 (Hartree/Particle)
 Thermal correction to Energy=                    0.088150
 Thermal correction to Enthalpy=                  0.089095
 Thermal correction to Gibbs Free Energy=         0.047633
 Sum of electronic and zero-point Energies=           -344.124992
 Sum of electronic and thermal Energies=              -344.117147
 Sum of electronic and thermal Enthalpies=            -344.116203
 Sum of electronic and thermal Free Energies=         -344.157664

                     E (Thermal)             CV                S
                      KCal/Mol        Cal/Mol-Kelvin    Cal/Mol-Kelvin
 Total                   55.315             28.154             87.264
 Electronic               0.000              0.000              0.000
 Translational            0.889              2.981             39.836
 Rotational               0.889              2.981             28.626
 Vibrational             53.538             22.192             18.802
 Vibration     1          0.598              1.969              4.182
 Vibration     2          0.603              1.951              3.515
 Vibration     3          0.628              1.870              2.356
 Vibration     4          0.654              1.788              1.844
 Vibration     5          0.732              1.562              1.138
 Vibration     6          0.761              1.482              0.984
 Vibration     7          0.817              1.341              0.770
 Vibration     8          0.874              1.208              0.612
 Vibration     9          0.901              1.149              0.553
 Vibration    10          0.912              1.124              0.530
 Vibration    11          0.947              1.053              0.467
 Vibration    12          0.967              1.015              0.436

                           ! Non-Optimized Parameters !
 Normal termination of Gaussian 16 at Sun Jul  3 23:36:26 2022.
