 Gaussian 16, Revision A.03,
 Gaussian 16:  ES64L-G16RevA.03 25-Dec-2016

 -----------------------------
 # opt freq b3lyp/6-31g(2df,p)
 -----------------------------

 -------------------
 Title Card Required
 -------------------
 Symbolic Z-matrix:
 Charge =  0 Multiplicity = 1

 SCF Done:  E(RB3LYP) =  -418.057795696     A.U. after   15 cycles
 SCF Done:  E(RB3LYP) =  -418.080564376     A.U. after   13 cycles
 SCF Done:  E(RB3LYP) =  -418.082522408     A.U. after   14 cycles
 SCF Done:  E(RB3LYP) =  -418.071771005     A.U. after   15 cycles
 SCF Done:  E(RB3LYP) =  -418.082832085     A.U. after   12 cycles
 SCF Done:  E(RB3LYP) =  -418.080258686     A.U. after   13 cycles
 SCF Done:  E(RB3LYP) =  -418.082806175     A.U. after   12 cycles
 SCF Done:  E(RB3LYP) =  -418.083089654     A.U. after    9 cycles
 SCF Done:  E(RB3LYP) =  -418.082866509     A.U. after   12 cycles
 SCF Done:  E(RB3LYP) =  -418.083127115     A.U. after   12 cycles
 SCF Done:  E(RB3LYP) =  -418.083098143     A.U. after   12 cycles
 SCF Done:  E(RB3LYP) =  -418.083186092     A.U. after   11 cycles
 SCF Done:  E(RB3LYP) =  -418.083188991     A.U. after    9 cycles
 SCF Done:  E(RB3LYP) =  -418.083189353     A.U. after    7 cycles
 SCF Done:  E(RB3LYP) =  -418.083189415     A.U. after    7 cycles
 Optimization completed.
    -- Stationary point found.
 Normal termination of Gaussian 16 at Sun Jul  3 13:39:09 2022.

 ----------------------------------------------------------------------
 #N Geom=AllCheck Guess=TCheck SCRF=Check GenChk RB3LYP/6-31G(2df,p) Fr
 eq
 ----------------------------------------------------------------------

 Structure from the checkpoint file:  "CtCCNCCpdNpCdO.chk"
 -------------------
 Title Card Required
 -------------------
 Charge =  0 Multiplicity = 1

                         Standard orientation:
 ---------------------------------------------------------------------
 Center     Atomic      Atomic             Coordinates (Angstroms)
 Number     Number       Type             X           Y           Z
 ---------------------------------------------------------------------
      1          6           0       -4.312772    0.604670    0.208061
      2          6           0       -3.311809   -0.026384    0.002752
      3          6           0       -2.091708   -0.794520   -0.214879
      4          7           0       -0.898396    0.019184    0.037571
      5          6           0        0.343377   -0.725504   -0.041321
      6          6           0        1.547209    0.205927   -0.066132
      7          7           0        1.505725    1.462763   -0.236481
      8          6           0        2.888484   -0.475266    0.117760
      9          8           0        3.946266    0.091910    0.153872
     10          1           0       -5.200803    1.161935    0.378100
     11          1           0       -2.052975   -1.139184   -1.256822
     12          1           0       -2.127250   -1.706438    0.409132
     13          1           0       -0.983984    0.460591    0.947958
     14          1           0        0.340393   -1.311573   -0.972638
     15          1           0        0.476013   -1.467947    0.768976
     16          1           0        0.526609    1.744337   -0.370481
     17          1           0        2.823872   -1.584172    0.219716
 ---------------------------------------------------------------------

 SCF Done:  E(RB3LYP) =  -418.083189415     A.U. after    1 cycles

 The electronic state is 1-A.
 Alpha  occ. eigenvalues --  -19.15161 -14.34827 -14.33084 -10.27959 -10.25253
 Alpha  occ. eigenvalues --  -10.24435 -10.24013 -10.19596 -10.18828  -1.05748
 Alpha  occ. eigenvalues --   -0.94791  -0.90690  -0.78540  -0.73853  -0.69759
 Alpha  occ. eigenvalues --   -0.64482  -0.55647  -0.55139  -0.51950  -0.49691
 Alpha  occ. eigenvalues --   -0.48588  -0.45667  -0.45280  -0.44529  -0.42222
 Alpha  occ. eigenvalues --   -0.41831  -0.39811  -0.32079  -0.28775  -0.28652
 Alpha  occ. eigenvalues --   -0.28265  -0.25862  -0.25406
 Alpha virt. eigenvalues --   -0.07639   0.02444   0.04278   0.04854   0.07876
 Alpha virt. eigenvalues --    0.09961   0.10648   0.11829   0.13780   0.14098
 Alpha virt. eigenvalues --    0.17307   0.17598   0.19525   0.20259   0.22946

 Mulliken charges:
               1
     1  C   -0.406639
     2  C    0.266036
     3  C   -0.277354
     4  N   -0.308780
     5  C   -0.226101
     6  C    0.199440
     7  N   -0.416930
     8  C    0.132897
     9  O   -0.217077
    10  H    0.204753
    11  H    0.143223
    12  H    0.118954
    13  H    0.235244
    14  H    0.135977
    15  H    0.105601
    16  H    0.238013
    17  H    0.072741
 Sum of Mulliken charges =  -0.00000

 Dipole moment (field-independent basis, Debye):
    X=             -3.8309    Y=             -2.8580    Z=              0.5877  Tot=              4.8155
 Quadrupole moment (field-independent basis, Debye-Ang):
   XX=            -64.8282   YY=            -52.2268   ZZ=            -50.7871
   XY=             -8.4379   XZ=             -1.3040   YZ=              1.6794

  Exact polarizability: 108.789 -10.117  75.648  -1.366   0.156  48.968
 Approx polarizability: 142.297 -17.825 127.028  -3.621   0.990  76.899

                      1                      2                      3
                      A                      A                      A
 Frequencies --     40.3441                70.2262                79.9156
 Red. masses --      6.7535                 3.3482                 3.3610
 Frc consts  --      0.0065                 0.0097                 0.0126
 IR Inten    --      2.2173                 5.2049                 1.6542

                      4                      5                      6
                      A                      A                      A
 Frequencies --    102.2149               149.8397               201.8815
 Red. masses --      3.0004                 2.4314                 4.4982
 Frc consts  --      0.0185                 0.0322                 0.1080
 IR Inten    --      1.5338                 1.4735                 1.6138

                      7                      8                      9
                      A                      A                      A
 Frequencies --    297.8447               322.5526               340.6048
 Red. masses --      5.3789                 5.9987                 3.4126
 Frc consts  --      0.2811                 0.3677                 0.2333
 IR Inten    --      0.4754                 1.1825                 3.1858

                     10                     11                     12
                      A                      A                      A
 Frequencies --    397.3566               449.2283               562.7004
 Red. masses --      5.3367                 2.6790                 5.7696
 Frc consts  --      0.4965                 0.3185                 1.0763
 IR Inten    --      1.7876                 0.3861                 2.0493

                     13                     14                     15
                      A                      A                      A
 Frequencies --    621.1359               673.1796               710.2131
 Red. masses --      1.1980                 1.2459                 3.8166
 Frc consts  --      0.2723                 0.3327                 1.1342
 IR Inten    --     43.2459                31.9135                54.5536

                     16                     17                     18
                      A                      A                      A
 Frequencies --    779.4066               840.6883               905.5765
 Red. masses --      1.2424                 1.3164                 4.7339
 Frc consts  --      0.4447                 0.5482                 2.2873
 IR Inten    --     61.2726                21.7896                47.3475

                     19                     20                     21
                      A                      A                      A
 Frequencies --    969.4967               988.0867              1002.2316
 Red. masses --      3.5965                 1.8517                 2.1471
 Frc consts  --      1.9917                 1.0651                 1.2707
 IR Inten    --      2.4528                 8.0956                 9.5452

                     22                     23                     24
                      A                      A                      A
 Frequencies --   1047.6196              1073.2606              1126.5055
 Red. masses --      2.4525                 1.6086                 1.9323
 Frc consts  --      1.5859                 1.0917                 1.4447
 IR Inten    --      4.6984                22.3751                 6.2394

                     25                     26                     27
                      A                      A                      A
 Frequencies --   1159.0460              1216.3371              1290.8921
 Red. masses --      3.6709                 1.0736                 1.2169
 Frc consts  --      2.9055                 0.9358                 1.1947
 IR Inten    --     56.3640                 8.4726                 9.7003

                     28                     29                     30
                      A                      A                      A
 Frequencies --   1302.1441              1366.7689              1410.1307
 Red. masses --      1.2762                 1.4045                 1.4891
 Frc consts  --      1.2749                 1.5459                 1.7446
 IR Inten    --    129.1377                37.8283                15.3386

                     31                     32                     33
                      A                      A                      A
 Frequencies --   1446.0262              1479.4038              1490.9237
 Red. masses --      1.3242                 1.1321                 1.1564
 Frc consts  --      1.6314                 1.4598                 1.5146
 IR Inten    --     24.9842                 3.8917                38.1904

                     34                     35                     36
                      A                      A                      A
 Frequencies --   1501.5646              1715.6464              1837.6802
 Red. masses --      1.1055                 9.2517                10.6299
 Frc consts  --      1.4686                16.0446                21.1505
 IR Inten    --      3.6811                39.2820                88.3042

                     37                     38                     39
                      A                      A                      A
 Frequencies --   2246.7786              2855.5905              2922.5915
 Red. masses --      5.8954                 1.0811                 1.0724
 Frc consts  --     17.5341                 5.1941                 5.3970
 IR Inten    --      0.4225               100.3086                57.4894

                     40                     41                     42
                      A                      A                      A
 Frequencies --   2932.1804              3013.6482              3029.0532
 Red. masses --      1.0729                 1.0844                 1.0846
 Frc consts  --      5.4348                 5.8026                 5.8634
 IR Inten    --     57.5823                12.1700                16.4592

                     43                     44                     45
                      A                      A                      A
 Frequencies --   3392.6806              3505.1466              3519.8580
 Red. masses --      1.0723                 1.1638                 1.0741
 Frc consts  --      7.2721                 8.4247                 7.8405
 IR Inten    --     12.3725                67.2197                 3.9324

 - Thermochemistry -
 -------------------
 Temperature   298.150 Kelvin.  Pressure   1.00000 Atm.
 Atom     1 has atomic number  6 and mass  12.00000

 Molecular mass:   124.06366 amu.
 Principal axes and moments of inertia in atomic units:
                           1         2         3
     Eigenvalues --   263.614273150.340033363.73792
           X            0.99998  -0.00618  -0.00091
           Y            0.00619   0.99990   0.01268
           Z            0.00083  -0.01268   0.99992
 This molecule is an asymmetric top.
 Rotational symmetry number  1.
 Rotational temperatures (Kelvin)      0.32856     0.02749     0.02575
 Rotational constants (GHZ):           6.84614     0.57287     0.53653
 Zero-point vibrational energy     349227.0 (Joules/Mol)
                                   83.46727 (Kcal/Mol)
 Warning -- explicit consideration of  12 degrees of freedom as
           vibrations may cause significant error
 Vibrational temperatures:     58.05   101.04   114.98   147.06   215.59
          (Kelvin)            290.46   428.53   464.08   490.05   571.71
                              646.34   809.60   893.68   968.56  1021.84
                             1121.39  1209.56  1302.92  1394.89  1421.64
                             1441.99  1507.29  1544.18  1620.79  1667.61
                             1750.04  1857.31  1873.49  1966.48  2028.86
                             2080.51  2128.53  2145.11  2160.42  2468.43
                             2644.01  3232.61  4108.56  4204.96  4218.75
                             4335.97  4358.13  4881.31  5043.12  5064.29

 Zero-point correction=                           0.133014 (Hartree/Particle)
 Thermal correction to Energy=                    0.143028
 Thermal correction to Enthalpy=                  0.143972
 Thermal correction to Gibbs Free Energy=         0.096549
 Sum of electronic and zero-point Energies=           -417.950176
 Sum of electronic and thermal Energies=              -417.940162
 Sum of electronic and thermal Enthalpies=            -417.939218
 Sum of electronic and thermal Free Energies=         -417.986640

                     E (Thermal)             CV                S
                      KCal/Mol        Cal/Mol-Kelvin    Cal/Mol-Kelvin
 Total                   89.751             34.256             99.809
 Electronic               0.000              0.000              0.000
 Translational            0.889              2.981             40.361
 Rotational               0.889              2.981             29.414
 Vibrational             87.974             28.294             30.034
 Vibration     1          0.594              1.981              5.242
 Vibration     2          0.598              1.968              4.147
 Vibration     3          0.600              1.963              3.893
 Vibration     4          0.604              1.947              3.412
 Vibration     5          0.618              1.903              2.674
 Vibration     6          0.639              1.837              2.116
 Vibration     7          0.691              1.678              1.429
 Vibration     8          0.708              1.630              1.297
 Vibration     9          0.720              1.594              1.209
 Vibration    10          0.764              1.476              0.972
 Vibration    11          0.808              1.363              0.798
 Vibration    12          0.918              1.112              0.518

 Optimization completed.
    -- Stationary point found.
 Normal termination of Gaussian 16 at Sun Jul  3 14:00:21 2022.
