 Gaussian 16, Revision A.03,
 Gaussian 16:  ES64L-G16RevA.03 25-Dec-2016

 -----------------------------
 # opt freq b3lyp/6-31g(2df,p)
 -----------------------------

 -------------------
 Title Card Required
 -------------------
 Symbolic Z-matrix:
 Charge =  0 Multiplicity = 1

 SCF Done:  E(RB3LYP) =  -387.219370322     A.U. after   13 cycles
 SCF Done:  E(RB3LYP) =  -387.223931911     A.U. after   12 cycles
 SCF Done:  E(RB3LYP) =  -387.220125278     A.U. after   14 cycles
 SCF Done:  E(RB3LYP) =  -387.225141947     A.U. after   12 cycles
 SCF Done:  E(RB3LYP) =  -387.223448804     A.U. after   12 cycles
 SCF Done:  E(RB3LYP) =  -387.225691984     A.U. after   11 cycles
 SCF Done:  E(RB3LYP) =  -387.225923984     A.U. after   10 cycles
 SCF Done:  E(RB3LYP) =  -387.225925597     A.U. after    8 cycles
 SCF Done:  E(RB3LYP) =  -387.225931103     A.U. after    9 cycles
 SCF Done:  E(RB3LYP) =  -387.225932751     A.U. after    7 cycles
 SCF Done:  E(RB3LYP) =  -387.225932856     A.U. after    7 cycles
 Optimization completed.
    -- Stationary point found.
 Normal termination of Gaussian 16 at Thu Aug  4 05:19:25 2022.

 ----------------------------------------------------------------------
 #N Geom=AllCheck Guess=TCheck SCRF=Check GenChk RB3LYP/6-31G(2df,p) Fr
 eq
 ----------------------------------------------------------------------

 Structure from the checkpoint file:  "CtCC1CCC1OCC.chk"
 -------------------
 Title Card Required
 -------------------
 Charge =  0 Multiplicity = 1

                         Standard orientation:
 ---------------------------------------------------------------------
 Center     Atomic      Atomic             Coordinates (Angstroms)
 Number     Number       Type             X           Y           Z
 ---------------------------------------------------------------------
      1          6           0       -2.002418    2.473322   -0.181193
      2          6           0       -1.619458    1.378103    0.139214
      3          6           0       -1.158366    0.051522    0.482688
      4          6           0       -2.077074   -1.181836    0.198213
      5          6           0       -0.814741   -1.987204   -0.206068
      6          6           0       -0.071752   -0.655019   -0.413030
      7          8           0        1.254880   -0.651196    0.012814
      8          6           0        1.938378    0.569966   -0.231749
      9          6           0        3.371688    0.421010    0.248213
     10          1           0       -2.340939    3.441949   -0.453660
     11          1           0       -0.805923    0.016220    1.519531
     12          1           0       -2.736876   -0.989983   -0.650612
     13          1           0       -2.672860   -1.550414    1.034233
     14          1           0       -0.883515   -2.666339   -1.057299
     15          1           0       -0.383163   -2.520253    0.645426
     16          1           0       -0.158533   -0.292918   -1.448845
     17          1           0        1.436926    1.398350    0.290877
     18          1           0        1.909396    0.803902   -1.308675
     19          1           0        3.397448    0.201498    1.319401
     20          1           0        3.930572    1.344467    0.069803
     21          1           0        3.870891   -0.396094   -0.280416
 ---------------------------------------------------------------------

 SCF Done:  E(RB3LYP) =  -387.225932856     A.U. after    1 cycles

 The electronic state is 1-A.
 Alpha  occ. eigenvalues --  -19.14002 -10.23516 -10.22631 -10.20500 -10.18973
 Alpha  occ. eigenvalues --  -10.18258 -10.17696 -10.17464 -10.16775  -1.03591
 Alpha  occ. eigenvalues --   -0.85051  -0.75621  -0.74304  -0.67204  -0.65146
 Alpha  occ. eigenvalues --   -0.60530  -0.56875  -0.53291  -0.50975  -0.49111
 Alpha  occ. eigenvalues --   -0.46541  -0.44242  -0.41246  -0.40744  -0.38907
 Alpha  occ. eigenvalues --   -0.37908  -0.35466  -0.34834  -0.33660  -0.32685
 Alpha  occ. eigenvalues --   -0.30992  -0.27545  -0.25804  -0.23782
 Alpha virt. eigenvalues --    0.04713   0.05575   0.09184   0.10488   0.11015
 Alpha virt. eigenvalues --    0.13042   0.13479   0.14276   0.15212   0.16406
 Alpha virt. eigenvalues --    0.17610   0.18610   0.18655   0.19652   0.19708

 Mulliken charges:
               1
     1  C   -0.454036
     2  C    0.297967
     3  C   -0.185492
     4  C   -0.238853
     5  C   -0.273737
     6  C    0.158580
     7  O   -0.251495
     8  C   -0.047852
     9  C   -0.385363
    10  H    0.192203
    11  H    0.106153
    12  H    0.116391
    13  H    0.110524
    14  H    0.104146
    15  H    0.116250
    16  H    0.073530
    17  H    0.103957
    18  H    0.089707
    19  H    0.125900
    20  H    0.115533
    21  H    0.125986
 Sum of Mulliken charges =  -0.00000

 Dipole moment (field-independent basis, Debye):
    X=              0.0420    Y=              0.1532    Z=             -0.3272  Tot=              0.3637
 Quadrupole moment (field-independent basis, Debye-Ang):
   XX=            -54.3235   YY=            -52.3662   ZZ=            -53.8345
   XY=              2.2393   XZ=              0.0903   YZ=             -1.0538

  Exact polarizability:  91.845  -5.104 100.369   1.478  -4.135  67.346
 Approx polarizability: 113.651 -13.996 149.205   4.230 -11.222 104.214

                      1                      2                      3
                      A                      A                      A
 Frequencies --     64.9560                77.9030                79.8677
 Red. masses --      2.4140                 2.5645                 2.6048
 Frc consts  --      0.0060                 0.0092                 0.0098
 IR Inten    --      0.1619                 1.1326                 1.1465

                      4                      5                      6
                      A                      A                      A
 Frequencies --    150.4956               192.7737               220.9864
 Red. masses --      2.7890                 3.2095                 2.2643
 Frc consts  --      0.0372                 0.0703                 0.0651
 IR Inten    --      0.7012                 0.7447                 0.1013

                      7                      8                      9
                      A                      A                      A
 Frequencies --    250.0939               333.8788               394.7799
 Red. masses --      1.3057                 3.7279                 3.9780
 Frc consts  --      0.0481                 0.2448                 0.3653
 IR Inten    --      0.6102                 3.2834                 0.4126

                     10                     11                     12
                      A                      A                      A
 Frequencies --    442.5403               510.7270               523.2533
 Red. masses --      3.3263                 4.6436                 3.8762
 Frc consts  --      0.3838                 0.7136                 0.6253
 IR Inten    --      6.7632                 2.8994                 2.2324

                     13                     14                     15
                      A                      A                      A
 Frequencies --    614.0300               618.2473               627.9980
 Red. masses --      1.3550                 1.3709                 1.6795
 Frc consts  --      0.3010                 0.3087                 0.3903
 IR Inten    --     41.7836                27.4370                20.9410

                     16                     17                     18
                      A                      A                      A
 Frequencies --    785.9639               811.8608               819.4480
 Red. masses --      1.9140                 1.4032                 1.0980
 Frc consts  --      0.6966                 0.5449                 0.4344
 IR Inten    --      0.3887                 2.6096                 0.1513

                     19                     20                     21
                      A                      A                      A
 Frequencies --    905.7599               926.0726               941.5066
 Red. masses --      2.1738                 1.9803                 2.6387
 Frc consts  --      1.0508                 1.0006                 1.3781
 IR Inten    --      7.1770                 0.1913                 0.3698

                     22                     23                     24
                      A                      A                      A
 Frequencies --    977.6066              1055.2441              1079.6630
 Red. masses --      2.7480                 2.8458                 2.2462
 Frc consts  --      1.5474                 1.8671                 1.5427
 IR Inten    --     13.4673                13.4016                11.1745

                     25                     26                     27
                      A                      A                      A
 Frequencies --   1082.7269              1104.5507              1159.7379
 Red. masses --      2.6376                 2.1854                 2.2178
 Frc consts  --      1.8218                 1.5709                 1.7575
 IR Inten    --      2.9463                 4.6439                11.7639

                     28                     29                     30
                      A                      A                      A
 Frequencies --   1170.5954              1186.6244              1212.3004
 Red. masses --      3.8086                 1.5528                 1.3622
 Frc consts  --      3.0749                 1.2882                 1.1795
 IR Inten    --    217.5178                 8.0485                 0.1606

                     31                     32                     33
                      A                      A                      A
 Frequencies --   1225.8395              1254.9932              1261.9430
 Red. masses --      1.2826                 1.3142                 1.4594
 Frc consts  --      1.1356                 1.2195                 1.3693
 IR Inten    --     16.4973                 8.3712                 8.9643

                     34                     35                     36
                      A                      A                      A
 Frequencies --   1280.0789              1298.9411              1345.2858
 Red. masses --      1.3865                 1.1009                 1.4651
 Frc consts  --      1.3385                 1.0944                 1.5622
 IR Inten    --      6.3151                 2.4135                 3.9709

                     37                     38                     39
                      A                      A                      A
 Frequencies --   1377.0122              1404.5879              1443.6532
 Red. masses --      1.2579                 1.2553                 1.4205
 Frc consts  --      1.4053                 1.4591                 1.7443
 IR Inten    --     72.8493                11.6540                 3.6101

                     40                     41                     42
                      A                      A                      A
 Frequencies --   1483.4155              1483.5955              1499.4414
 Red. masses --      1.0841                 1.0439                 1.0490
 Frc consts  --      1.4055                 1.3537                 1.3896
 IR Inten    --      1.8250                 4.9062                 3.0289

                     43                     44                     45
                      A                      A                      A
 Frequencies --   1501.0704              1528.7524              2227.6643
 Red. masses --      1.1367                 1.0947                 6.0035
 Frc consts  --      1.5090                 1.5073                17.5531
 IR Inten    --      4.2166                 2.4034                 6.7707

                     46                     47                     48
                      A                      A                      A
 Frequencies --   2969.2148              2987.5726              3008.0892
 Red. masses --      1.0614                 1.0833                 1.0996
 Frc consts  --      5.5131                 5.6970                 5.8623
 IR Inten    --     29.5468                44.9061                32.4951

                     49                     50                     51
                      A                      A                      A
 Frequencies --   3044.1785              3048.7280              3069.4392
 Red. masses --      1.0346                 1.0828                 1.0587
 Frc consts  --      5.6492                 5.9297                 5.8767
 IR Inten    --     19.2106                10.4647                26.7624

                     52                     53                     54
                      A                      A                      A
 Frequencies --   3077.0178              3119.0161              3120.4464
 Red. masses --      1.0593                 1.1015                 1.1027
 Frc consts  --      5.9093                 6.3135                 6.3262
 IR Inten    --     27.7599                23.3035                25.8944

                     55                     56                     57
                      A                      A                      A
 Frequencies --   3122.4584              3137.3804              3504.9056
 Red. masses --      1.1080                 1.1084                 1.1600
 Frc consts  --      6.3648                 6.4278                 8.3956
 IR Inten    --     14.6484                32.4876                72.5395

 - Thermochemistry -
 -------------------
 Temperature   298.150 Kelvin.  Pressure   1.00000 Atm.
 Atom     1 has atomic number  6 and mass  12.00000

 Molecular mass:   124.08882 amu.
 Principal axes and moments of inertia in atomic units:
                           1         2         3
     Eigenvalues --   823.837191612.689982299.55867
           X            0.99897   0.04536   0.00312
           Y           -0.04535   0.99896  -0.00525
           Z           -0.00335   0.00510   0.99998
 This molecule is an asymmetric top.
 Rotational symmetry number  1.
 Warning -- assumption of classical behavior for rotation
           may cause significant error
 Rotational temperatures (Kelvin)      0.10513     0.05371     0.03767
 Rotational constants (GHZ):           2.19065     1.11909     0.78482
 Zero-point vibrational energy     473403.7 (Joules/Mol)
                                  113.14619 (Kcal/Mol)
 Warning -- explicit consideration of  14 degrees of freedom as
           vibrations may cause significant error
 Vibrational temperatures:     93.46   112.09   114.91   216.53   277.36
          (Kelvin)            317.95   359.83   480.38   568.00   636.72
                              734.82   752.84   883.45   889.52   903.55
                             1130.83  1168.09  1179.00  1303.19  1332.41
                             1354.62  1406.56  1518.26  1553.39  1557.80
                             1589.20  1668.60  1684.23  1707.29  1744.23
                             1763.71  1805.66  1815.65  1841.75  1868.89
                             1935.57  1981.21  2020.89  2077.09  2134.30
                             2134.56  2157.36  2159.71  2199.53  3205.11
                             4272.04  4298.45  4327.97  4379.89  4386.44
                             4416.24  4427.14  4487.57  4489.63  4492.52
                             4513.99  5042.78

 Zero-point correction=                           0.180310 (Hartree/Particle)
 Thermal correction to Energy=                    0.190283
 Thermal correction to Enthalpy=                  0.191227
 Thermal correction to Gibbs Free Energy=         0.144706
 Sum of electronic and zero-point Energies=           -387.045623
 Sum of electronic and thermal Energies=              -387.035650
 Sum of electronic and thermal Enthalpies=            -387.034706
 Sum of electronic and thermal Free Energies=         -387.081226

                     E (Thermal)             CV                S
                      KCal/Mol        Cal/Mol-Kelvin    Cal/Mol-Kelvin
 Total                  119.404             36.486             97.911
 Electronic               0.000              0.000              0.000
 Translational            0.889              2.981             40.361
 Rotational               0.889              2.981             29.503
 Vibrational            117.627             30.524             28.046
 Vibration     1          0.597              1.971              4.301
 Vibration     2          0.599              1.964              3.943
 Vibration     3          0.600              1.963              3.894
 Vibration     4          0.618              1.902              2.666
 Vibration     5          0.635              1.850              2.201
 Vibration     6          0.648              1.809              1.951
 Vibration     7          0.663              1.763              1.730
 Vibration     8          0.715              1.608              1.241
 Vibration     9          0.762              1.481              0.982
 Vibration    10          0.802              1.377              0.819
 Vibration    11          0.866              1.226              0.632
 Vibration    12          0.878              1.199              0.602
 Vibration    13          0.973              1.002              0.426
 Vibration    14          0.978              0.993              0.419

 Optimization completed.
    -- Stationary point found.
 Normal termination of Gaussian 16 at Thu Aug  4 05:47:05 2022.
