 Gaussian 16, Revision A.03,
 Gaussian 16:  ES64L-G16RevA.03 25-Dec-2016

 -----------------------------
 # opt freq b3lyp/6-31g(2df,p)
 -----------------------------

 -------------------
 Title Card Required
 -------------------
 Symbolic Z-matrix:
 Charge =  0 Multiplicity = 1

 SCF Done:  E(RB3LYP) =  -347.913300001     A.U. after   14 cycles
 SCF Done:  E(RB3LYP) =  -347.933491036     A.U. after   13 cycles
 SCF Done:  E(RB3LYP) =  -347.934018145     A.U. after   12 cycles
 SCF Done:  E(RB3LYP) =  -347.927725275     A.U. after   14 cycles
 SCF Done:  E(RB3LYP) =  -347.933949401     A.U. after   12 cycles
 SCF Done:  E(RB3LYP) =  -347.934570372     A.U. after   10 cycles
 SCF Done:  E(RB3LYP) =  -347.934511484     A.U. after   11 cycles
 SCF Done:  E(RB3LYP) =  -347.934740367     A.U. after   11 cycles
 SCF Done:  E(RB3LYP) =  -347.934899703     A.U. after   10 cycles
 SCF Done:  E(RB3LYP) =  -347.934890470     A.U. after   10 cycles
 SCF Done:  E(RB3LYP) =  -347.934918819     A.U. after    9 cycles
 SCF Done:  E(RB3LYP) =  -347.934922793     A.U. after    8 cycles
 SCF Done:  E(RB3LYP) =  -347.934923957     A.U. after    8 cycles
 SCF Done:  E(RB3LYP) =  -347.934925880     A.U. after    9 cycles
 SCF Done:  E(RB3LYP) =  -347.934926698     A.U. after    8 cycles
 SCF Done:  E(RB3LYP) =  -347.934927310     A.U. after    8 cycles
 SCF Done:  E(RB3LYP) =  -347.934927372     A.U. after    7 cycles
 Optimization completed.
    -- Stationary point found.
 Normal termination of Gaussian 16 at Thu Aug  4 13:57:59 2022.

 ----------------------------------------------------------------------
 #N Geom=AllCheck Guess=TCheck SCRF=Check GenChk RB3LYP/6-31G(2df,p) Fr
 eq
 ----------------------------------------------------------------------

 Structure from the checkpoint file:  "CtCCC1CCCO1.chk"
 -------------------
 Title Card Required
 -------------------
 Charge =  0 Multiplicity = 1

                         Standard orientation:
 ---------------------------------------------------------------------
 Center     Atomic      Atomic             Coordinates (Angstroms)
 Number     Number       Type             X           Y           Z
 ---------------------------------------------------------------------
      1          6           0        3.399381    0.527798   -0.096503
      2          6           0        2.407763   -0.127343    0.084111
      3          6           0        1.186336   -0.896839    0.281107
      4          6           0       -0.036525   -0.253224   -0.392160
      5          6           0       -0.469705    1.099621    0.187629
      6          6           0       -1.983653    1.081254   -0.062416
      7          6           0       -2.315146   -0.398815    0.161864
      8          8           0       -1.150561   -1.132635   -0.220409
      9          1           0        4.282951    1.096517   -0.248118
     10          1           0        0.975632   -1.011951    1.351755
     11          1           0        1.309829   -1.908607   -0.122622
     12          1           0        0.173743   -0.150785   -1.467777
     13          1           0        0.046235    1.939608   -0.280554
     14          1           0       -0.258553    1.131416    1.263167
     15          1           0       -2.204014    1.369887   -1.095735
     16          1           0       -2.544037    1.745607    0.599718
     17          1           0       -3.163316   -0.747158   -0.437575
     18          1           0       -2.544680   -0.598166    1.219219
 ---------------------------------------------------------------------

 SCF Done:  E(RB3LYP) =  -347.934927372     A.U. after    1 cycles

 The electronic state is 1-A.
 Alpha  occ. eigenvalues --  -19.13226 -10.23454 -10.22573 -10.20334 -10.18768
 Alpha  occ. eigenvalues --  -10.18527 -10.18023 -10.16907  -1.02932  -0.80147
 Alpha  occ. eigenvalues --   -0.77962  -0.73168  -0.68093  -0.59849  -0.57592
 Alpha  occ. eigenvalues --   -0.52841  -0.50177  -0.48603  -0.45209  -0.44547
 Alpha  occ. eigenvalues --   -0.42274  -0.40722  -0.39011  -0.35326  -0.34737
 Alpha  occ. eigenvalues --   -0.33583  -0.31332  -0.26705  -0.26220  -0.24399
 Alpha virt. eigenvalues --    0.05342   0.05907   0.08903   0.11040   0.11888
 Alpha virt. eigenvalues --    0.13085   0.13864   0.14638   0.15459   0.17210
 Alpha virt. eigenvalues --    0.17324   0.18986   0.19500   0.20775   0.23177

 Mulliken charges:
               1
     1  C   -0.456898
     2  C    0.299050
     3  C   -0.370546
     4  C    0.151990
     5  C   -0.227870
     6  C   -0.231075
     7  C   -0.062035
     8  O   -0.274375
     9  H    0.194719
    10  H    0.128666
    11  H    0.139591
    12  H    0.079993
    13  H    0.114557
    14  H    0.103924
    15  H    0.108979
    16  H    0.104125
    17  H    0.103753
    18  H    0.093451
 Sum of Mulliken charges =   0.00000

 Dipole moment (field-independent basis, Debye):
    X=             -0.7075    Y=              1.3177    Z=              0.2380  Tot=              1.5144
 Quadrupole moment (field-independent basis, Debye-Ang):
   XX=            -45.1092   YY=            -49.0196   ZZ=            -47.7833
   XY=             -0.1230   XZ=             -1.1091   YZ=             -0.8948

  Exact polarizability:  96.437   8.690  65.730  -3.515  -1.942  57.586
 Approx polarizability: 125.776  20.698 100.194  -7.140  -3.825  88.235

                      1                      2                      3
                      A                      A                      A
 Frequencies --     42.6143                83.8808               137.0033
 Red. masses --      2.6856                 3.5970                 4.0884
 Frc consts  --      0.0029                 0.0149                 0.0452
 IR Inten    --      0.7404                 0.9975                 0.9538

                      4                      5                      6
                      A                      A                      A
 Frequencies --    209.5953               308.1868               359.2949
 Red. masses --      1.7283                 4.1145                 3.0179
 Frc consts  --      0.0447                 0.2302                 0.2295
 IR Inten    --      0.3161                 3.3999                 4.3451

                      7                      8                      9
                      A                      A                      A
 Frequencies --    414.6285               483.9920               594.9121
 Red. masses --      3.7147                 2.8027                 2.0660
 Frc consts  --      0.3763                 0.3868                 0.4308
 IR Inten    --      0.1750                 4.4722                 1.4582

                     10                     11                     12
                      A                      A                      A
 Frequencies --    623.6871               645.8384               679.1684
 Red. masses --      1.2142                 1.2474                 3.7609
 Frc consts  --      0.2783                 0.3065                 1.0221
 IR Inten    --     42.6108                40.2927                 8.9423

                     13                     14                     15
                      A                      A                      A
 Frequencies --    826.6873               872.5679               889.3295
 Red. masses --      2.2219                 1.5606                 2.1945
 Frc consts  --      0.8947                 0.7001                 1.0226
 IR Inten    --      0.1909                 3.2451                 8.6195

                     16                     17                     18
                      A                      A                      A
 Frequencies --    926.1170               939.5395               959.0798
 Red. masses --      2.1161                 3.5190                 1.6104
 Frc consts  --      1.0693                 1.8302                 0.8728
 IR Inten    --      8.9511                10.9033                 1.3681

                     19                     20                     21
                      A                      A                      A
 Frequencies --    981.6367              1024.1097              1096.2312
 Red. masses --      2.5095                 2.2096                 2.8775
 Frc consts  --      1.4247                 1.3654                 2.0374
 IR Inten    --      7.2685                 5.0713               105.7553

                     22                     23                     24
                      A                      A                      A
 Frequencies --   1110.2304              1128.9666              1189.8160
 Red. masses --      3.4489                 1.8580                 1.4182
 Frc consts  --      2.5047                 1.3953                 1.1829
 IR Inten    --     39.7577                30.0265                11.8441

                     25                     26                     27
                      A                      A                      A
 Frequencies --   1200.1182              1234.5649              1264.1097
 Red. masses --      1.4499                 1.2957                 1.2386
 Frc consts  --      1.2304                 1.1635                 1.1661
 IR Inten    --      4.5444                 0.8773                 2.6768

                     28                     29                     30
                      A                      A                      A
 Frequencies --   1300.9028              1310.7833              1339.0915
 Red. masses --      1.3218                 1.3500                 1.2655
 Frc consts  --      1.3180                 1.3666                 1.3370
 IR Inten    --      1.7518                 0.1234                 0.4356

                     31                     32                     33
                      A                      A                      A
 Frequencies --   1365.1967              1396.7889              1397.3045
 Red. masses --      1.2958                 1.4019                 1.3872
 Frc consts  --      1.4229                 1.6115                 1.5958
 IR Inten    --      0.9084                10.2174                11.6072

                     34                     35                     36
                      A                      A                      A
 Frequencies --   1470.7968              1486.9032              1498.5014
 Red. masses --      1.0855                 1.0891                 1.1071
 Frc consts  --      1.3835                 1.4187                 1.4648
 IR Inten    --      3.3573                 3.2828                 3.0077

                     37                     38                     39
                      A                      A                      A
 Frequencies --   1532.1441              2238.0966              2980.6168
 Red. masses --      1.0939                 5.9379                 1.0826
 Frc consts  --      1.5129                17.5242                 5.6667
 IR Inten    --      1.4369                 3.2180                55.8775

                     40                     41                     42
                      A                      A                      A
 Frequencies --   2991.1842              3028.4401              3040.5097
 Red. masses --      1.0703                 1.0594                 1.0698
 Frc consts  --      5.6423                 5.7245                 5.8268
 IR Inten    --     54.2532                16.2162                17.1916

                     43                     44                     45
                      A                      A                      A
 Frequencies --   3047.2992              3062.6500              3066.9486
 Red. masses --      1.0696                 1.0862                 1.1011
 Frc consts  --      5.8518                 6.0029                 6.1023
 IR Inten    --     12.9486                64.3607                16.0778

                     46                     47                     48
                      A                      A                      A
 Frequencies --   3106.9020              3120.2814              3507.2600
 Red. masses --      1.1002                 1.0990                 1.1619
 Frc consts  --      6.2574                 6.3040                 8.4209
 IR Inten    --     25.2568                24.2983                66.4898

 - Thermochemistry -
 -------------------
 Temperature   298.150 Kelvin.  Pressure   1.00000 Atm.
 Atom     1 has atomic number  6 and mass  12.00000

 Molecular mass:   110.07317 amu.
 Principal axes and moments of inertia in atomic units:
                           1         2         3
     Eigenvalues --   340.387201511.480301754.99394
           X            0.99996  -0.00820  -0.00328
           Y            0.00815   0.99983  -0.01638
           Z            0.00342   0.01635   0.99986
 This molecule is an asymmetric top.
 Rotational symmetry number  1.
 Rotational temperatures (Kelvin)      0.25446     0.05730     0.04935
 Rotational constants (GHZ):           5.30202     1.19402     1.02835
 Zero-point vibrational energy     403826.4 (Joules/Mol)
                                   96.51683 (Kcal/Mol)
 Warning -- explicit consideration of   9 degrees of freedom as
           vibrations may cause significant error
 Vibrational temperatures:     61.31   120.69   197.12   301.56   443.41
          (Kelvin)            516.95   596.56   696.36   855.95   897.35
                              929.22   977.17  1189.42  1255.43  1279.55
                             1332.48  1351.79  1379.90  1412.36  1473.47
                             1577.23  1597.37  1624.33  1711.88  1726.70
                             1776.26  1818.77  1871.71  1885.92  1926.65
                             1964.21  2009.67  2010.41  2116.15  2139.32
                             2156.01  2204.41  3220.12  4288.44  4303.65
                             4357.25  4374.62  4384.38  4406.47  4412.65
                             4470.14  4489.39  5046.16

 Zero-point correction=                           0.153809 (Hartree/Particle)
 Thermal correction to Energy=                    0.161938
 Thermal correction to Enthalpy=                  0.162882
 Thermal correction to Gibbs Free Energy=         0.120431
 Sum of electronic and zero-point Energies=           -347.781118
 Sum of electronic and thermal Energies=              -347.772989
 Sum of electronic and thermal Enthalpies=            -347.772045
 Sum of electronic and thermal Free Energies=         -347.814497

                     E (Thermal)             CV                S
                      KCal/Mol        Cal/Mol-Kelvin    Cal/Mol-Kelvin
 Total                  101.618             29.802             89.347
 Electronic               0.000              0.000              0.000
 Translational            0.889              2.981             40.004
 Rotational               0.889              2.981             28.292
 Vibrational             99.840             23.840             21.051
 Vibration     1          0.595              1.980              5.134
 Vibration     2          0.601              1.960              3.798
 Vibration     3          0.614              1.916              2.845
 Vibration     4          0.642              1.826              2.047
 Vibration     5          0.698              1.658              1.372
 Vibration     6          0.734              1.556              1.125
 Vibration     7          0.778              1.438              0.910
 Vibration     8          0.840              1.286              0.699
 Vibration     9          0.953              1.043              0.458

 Optimization completed.
    -- Stationary point found.
 Normal termination of Gaussian 16 at Thu Aug  4 14:19:08 2022.
