 Gaussian 16, Revision A.03,
 Gaussian 16:  ES64L-G16RevA.03 25-Dec-2016

 -----------------------------
 # opt freq b3lyp/6-31g(2df,p)
 -----------------------------

 -------------------
 Title Card Required
 -------------------
 Symbolic Z-matrix:
 Charge =  0 Multiplicity = 1

 SCF Done:  E(RB3LYP) =  -344.057252358     A.U. after   14 cycles
 SCF Done:  E(RB3LYP) =  -344.078848208     A.U. after   13 cycles
 SCF Done:  E(RB3LYP) =  -344.079678266     A.U. after   13 cycles
 SCF Done:  E(RB3LYP) =  -344.068987655     A.U. after   14 cycles
 SCF Done:  E(RB3LYP) =  -344.080028445     A.U. after   12 cycles
 SCF Done:  E(RB3LYP) =  -344.080480264     A.U. after   12 cycles
 SCF Done:  E(RB3LYP) =  -344.080298976     A.U. after   12 cycles
 SCF Done:  E(RB3LYP) =  -344.080779623     A.U. after   12 cycles
 SCF Done:  E(RB3LYP) =  -344.081643225     A.U. after   12 cycles
 SCF Done:  E(RB3LYP) =  -344.082159100     A.U. after   12 cycles
 SCF Done:  E(RB3LYP) =  -344.082207026     A.U. after   11 cycles
 SCF Done:  E(RB3LYP) =  -344.082247394     A.U. after   10 cycles
 SCF Done:  E(RB3LYP) =  -344.082249483     A.U. after   10 cycles
 SCF Done:  E(RB3LYP) =  -344.082250330     A.U. after    8 cycles
 Optimization completed.
    -- Stationary point found.
 Normal termination of Gaussian 16 at Wed Aug  3 00:50:23 2022.

 ----------------------------------------------------------------------
 #N Geom=AllCheck Guess=TCheck SCRF=Check GenChk RB3LYP/6-31G(2df,p) Fr
 eq
 ----------------------------------------------------------------------

 Structure from the checkpoint file:  "CtCCCNCCdN.chk"
 -------------------
 Title Card Required
 -------------------
 Charge =  0 Multiplicity = 1

                         Standard orientation:
 ---------------------------------------------------------------------
 Center     Atomic      Atomic             Coordinates (Angstroms)
 Number     Number       Type             X           Y           Z
 ---------------------------------------------------------------------
      1          6           0       -4.278494   -0.420473    0.021617
      2          6           0       -3.200931    0.111205    0.043178
      3          6           0       -1.879779    0.724493    0.063541
      4          6           0       -0.746420   -0.311719   -0.030951
      5          7           0        0.548339    0.357339   -0.026871
      6          6           0        1.681292   -0.546023   -0.178776
      7          6           0        2.971690    0.232307   -0.292120
      8          7           0        4.069619    0.007028    0.301446
      9          1           0       -5.236565   -0.877625    0.003707
     10          1           0       -1.761733    1.307906    0.987162
     11          1           0       -1.775119    1.435675   -0.764049
     12          1           0       -0.843316   -0.862748   -0.973523
     13          1           0       -0.862718   -1.052014    0.780100
     14          1           0        0.654824    0.886355    0.834207
     15          1           0        1.535194   -1.104164   -1.115675
     16          1           0        1.774127   -1.300009    0.625707
     17          1           0        2.923212    1.085996   -0.976381
     18          1           0        3.982243   -0.808685    0.917785
 ---------------------------------------------------------------------

 SCF Done:  E(RB3LYP) =  -344.082250330     A.U. after    1 cycles

 The electronic state is 1-A.
 Alpha  occ. eigenvalues --  -14.33043 -14.31917 -10.22968 -10.22343 -10.22136
 Alpha  occ. eigenvalues --  -10.21333 -10.18402 -10.17303  -0.92639  -0.89628
 Alpha  occ. eigenvalues --   -0.79767  -0.73147  -0.69057  -0.62912  -0.59117
 Alpha  occ. eigenvalues --   -0.53054  -0.50913  -0.48272  -0.47786  -0.45671
 Alpha  occ. eigenvalues --   -0.42660  -0.40681  -0.40317  -0.38457  -0.36969
 Alpha  occ. eigenvalues --   -0.31521  -0.27050  -0.26674  -0.25989  -0.24049
 Alpha virt. eigenvalues --   -0.00587   0.05051   0.05543   0.08184   0.09890
 Alpha virt. eigenvalues --    0.11086   0.12293   0.12879   0.13853   0.15472
 Alpha virt. eigenvalues --    0.17168   0.17643   0.20249   0.21317   0.21857

 Mulliken charges:
               1
     1  C   -0.441789
     2  C    0.296624
     3  C   -0.363076
     4  C   -0.118559
     5  N   -0.300393
     6  C   -0.189299
     7  C    0.056634
     8  N   -0.383823
     9  H    0.196701
    10  H    0.126612
    11  H    0.143545
    12  H    0.119415
    13  H    0.095169
    14  H    0.220283
    15  H    0.125111
    16  H    0.083715
    17  H    0.117306
    18  H    0.215825
 Sum of Mulliken charges =  -0.00000

 Dipole moment (field-independent basis, Debye):
    X=             -1.6139    Y=             -1.0020    Z=              0.5985  Tot=              1.9917
 Quadrupole moment (field-independent basis, Debye-Ang):
   XX=            -61.8551   YY=            -47.1724   ZZ=            -47.1957
   XY=             -2.3862   XZ=              0.5702   YZ=              0.2740

  Exact polarizability: 112.343   6.981  62.372   4.942  -2.995  56.194
 Approx polarizability: 144.131  15.547  96.016  10.262  -4.344  87.279

                      1                      2                      3
                      A                      A                      A
 Frequencies --     45.5311                66.2209                92.2825
 Red. masses --      4.5439                 3.3383                 2.7488
 Frc consts  --      0.0055                 0.0086                 0.0138
 IR Inten    --      1.9485                 0.7700                 1.4948

                      4                      5                      6
                      A                      A                      A
 Frequencies --    121.8919               143.3821               207.3285
 Red. masses --      2.4100                 2.8067                 3.1561
 Frc consts  --      0.0211                 0.0340                 0.0799
 IR Inten    --      3.3141                 1.6386                 1.1083

                      7                      8                      9
                      A                      A                      A
 Frequencies --    335.1047               352.8966               371.1735
 Red. masses --      4.6781                 3.1956                 3.4894
 Frc consts  --      0.3095                 0.2345                 0.2832
 IR Inten    --      0.8985                 3.8303                 1.9915

                     10                     11                     12
                      A                      A                      A
 Frequencies --    510.2188               536.5347               621.5504
 Red. masses --      2.7021                 4.2571                 1.2031
 Frc consts  --      0.4144                 0.7220                 0.2738
 IR Inten    --     19.8456                 4.9815                44.3281

                     13                     14                     15
                      A                      A                      A
 Frequencies --    645.7118               729.9662               787.0940
 Red. masses --      1.2255                 1.5704                 1.1368
 Frc consts  --      0.3011                 0.4930                 0.4150
 IR Inten    --     42.5269                28.3647                16.5647

                     16                     17                     18
                      A                      A                      A
 Frequencies --    804.2775               961.1685               966.7316
 Red. masses --      1.3148                 3.9369                 2.5684
 Frc consts  --      0.5011                 2.1429                 1.4142
 IR Inten    --     35.6991                 4.4339                10.9405

                     19                     20                     21
                      A                      A                      A
 Frequencies --   1031.9620              1041.0928              1070.0706
 Red. masses --      2.7503                 1.9088                 2.4969
 Frc consts  --      1.7257                 1.2190                 1.6845
 IR Inten    --      5.8005                15.3492                 0.1589

                     22                     23                     24
                      A                      A                      A
 Frequencies --   1121.0946              1150.9925              1155.8319
 Red. masses --      1.8641                 1.4537                 2.1144
 Frc consts  --      1.3804                 1.1347                 1.6643
 IR Inten    --      2.7688                79.4068                30.9774

                     25                     26                     27
                      A                      A                      A
 Frequencies --   1185.3229              1249.3897              1276.3145
 Red. masses --      1.0932                 1.3484                 1.2783
 Frc consts  --      0.9050                 1.2402                 1.2269
 IR Inten    --      0.6977                43.2047                 5.1605

                     28                     29                     30
                      A                      A                      A
 Frequencies --   1308.4226              1316.9874              1352.8208
 Red. masses --      1.2562                 1.1505                 1.3769
 Frc consts  --      1.2670                 1.1757                 1.4846
 IR Inten    --     56.3144                 6.9128                42.0882

                     31                     32                     33
                      A                      A                      A
 Frequencies --   1404.1542              1417.3338              1474.9786
 Red. masses --      1.3051                 1.3775                 1.0862
 Frc consts  --      1.5161                 1.6304                 1.3923
 IR Inten    --      9.3512                11.3816                 1.7798

                     34                     35                     36
                      A                      A                      A
 Frequencies --   1487.3736              1498.0826              1518.8518
 Red. masses --      1.1047                 1.1946                 1.0858
 Frc consts  --      1.4400                 1.5795                 1.4759
 IR Inten    --      1.0739                28.2502                 3.2680

                     37                     38                     39
                      A                      A                      A
 Frequencies --   1732.6438              2241.3669              2923.8700
 Red. masses --      8.5083                 5.9290                 1.0705
 Frc consts  --     15.0491                17.5492                 5.3918
 IR Inten    --     58.3719                 3.1435                59.2689

                     40                     41                     42
                      A                      A                      A
 Frequencies --   2949.0335              3013.6866              3014.4035
 Red. masses --      1.0721                 1.0861                 1.0657
 Frc consts  --      5.4933                 5.8117                 5.7055
 IR Inten    --     62.5349                19.9380                12.1384

                     43                     44                     45
                      A                      A                      A
 Frequencies --   3052.4912              3068.5138              3084.3224
 Red. masses --      1.0857                 1.0972                 1.0880
 Frc consts  --      5.9601                 6.0871                 6.0981
 IR Inten    --     11.5596                26.5840                27.9246

                     46                     47                     48
                      A                      A                      A
 Frequencies --   3395.5113              3500.7483              3507.4694
 Red. masses --      1.0734                 1.0735                 1.1624
 Frc consts  --      7.2916                 7.7513                 8.4252
 IR Inten    --      5.3420                 0.4210                69.5015

 - Thermochemistry -
 -------------------
 Temperature   298.150 Kelvin.  Pressure   1.00000 Atm.
 Atom     1 has atomic number  6 and mass  12.00000

 Molecular mass:   110.08440 amu.
 Principal axes and moments of inertia in atomic units:
                           1         2         3
     Eigenvalues --   135.053733013.175263076.34258
           X            1.00000  -0.00256   0.00065
           Y            0.00258   0.99969  -0.02465
           Z           -0.00059   0.02466   0.99970
 This molecule is an asymmetric top.
 Rotational symmetry number  1.
 Rotational temperatures (Kelvin)      0.64133     0.02875     0.02815
 Rotational constants (GHZ):          13.36313     0.59895     0.58665
 Zero-point vibrational energy     399817.1 (Joules/Mol)
                                   95.55859 (Kcal/Mol)
 Warning -- explicit consideration of  11 degrees of freedom as
           vibrations may cause significant error
 Vibrational temperatures:     65.51    95.28   132.77   175.38   206.29
          (Kelvin)            298.30   482.14   507.74   534.04   734.09
                              771.95   894.27   929.04  1050.26  1132.45
                             1157.18  1382.91  1390.91  1484.76  1497.90
                             1539.59  1613.01  1656.02  1662.98  1705.42
                             1797.59  1836.33  1882.53  1894.85  1946.41
                             2020.26  2039.23  2122.17  2140.00  2155.41
                             2185.29  2492.89  3224.83  4206.80  4243.00
                             4336.02  4337.05  4391.85  4414.91  4437.65
                             4885.38  5036.80  5046.47

 Zero-point correction=                           0.152282 (Hartree/Particle)
 Thermal correction to Energy=                    0.161794
 Thermal correction to Enthalpy=                  0.162738
 Thermal correction to Gibbs Free Energy=         0.116924
 Sum of electronic and zero-point Energies=           -343.929968
 Sum of electronic and thermal Energies=              -343.920457
 Sum of electronic and thermal Enthalpies=            -343.919513
 Sum of electronic and thermal Free Energies=         -343.965326

                     E (Thermal)             CV                S
                      KCal/Mol        Cal/Mol-Kelvin    Cal/Mol-Kelvin
 Total                  101.527             32.715             96.423
 Electronic               0.000              0.000              0.000
 Translational            0.889              2.981             40.004
 Rotational               0.889              2.981             28.617
 Vibrational             99.750             26.753             27.802
 Vibration     1          0.595              1.979              5.003
 Vibration     2          0.598              1.970              4.263
 Vibration     3          0.602              1.955              3.611
 Vibration     4          0.609              1.931              3.070
 Vibration     5          0.616              1.910              2.758
 Vibration     6          0.641              1.829              2.067
 Vibration     7          0.716              1.605              1.235
 Vibration     8          0.729              1.569              1.153
 Vibration     9          0.743              1.531              1.075
 Vibration    10          0.865              1.227              0.633
 Vibration    11          0.892              1.169              0.573

 Optimization completed.
    -- Stationary point found.
 Normal termination of Gaussian 16 at Wed Aug  3 01:07:46 2022.
