 Gaussian 16, Revision A.03,
 Gaussian 16:  ES64L-G16RevA.03 25-Dec-2016

 -----------------------------
 # opt freq b3lyp/6-31g(2df,p)
 -----------------------------

 -------------------
 Title Card Required
 -------------------
 Symbolic Z-matrix:
 Charge =  0 Multiplicity = 1

 SCF Done:  E(RB3LYP) =  -423.033112237     A.U. after   13 cycles
 SCF Done:  E(RB3LYP) =  -423.042246099     A.U. after   13 cycles
 SCF Done:  E(RB3LYP) =  -423.043173070     A.U. after   13 cycles
 SCF Done:  E(RB3LYP) =  -423.048853937     A.U. after   13 cycles
 SCF Done:  E(RB3LYP) =  -423.045401567     A.U. after   14 cycles
 SCF Done:  E(RB3LYP) =  -423.049905179     A.U. after   12 cycles
 SCF Done:  E(RB3LYP) =  -423.049621157     A.U. after   12 cycles
 SCF Done:  E(RB3LYP) =  -423.050189113     A.U. after   11 cycles
 SCF Done:  E(RB3LYP) =  -423.050244466     A.U. after   10 cycles
 SCF Done:  E(RB3LYP) =  -423.050252572     A.U. after    9 cycles
 SCF Done:  E(RB3LYP) =  -423.050254167     A.U. after    8 cycles
 SCF Done:  E(RB3LYP) =  -423.050254415     A.U. after    7 cycles
 SCF Done:  E(RB3LYP) =  -423.050254475     A.U. after    6 cycles
 Optimization completed.
    -- Stationary point found.
 Normal termination of Gaussian 16 at Thu Aug  4 00:05:49 2022.

 ----------------------------------------------------------------------
 #N Geom=AllCheck Guess=TCheck SCRF=Check GenChk RB3LYP/6-31G(2df,p) Fr
 eq
 ----------------------------------------------------------------------

 Structure from the checkpoint file:  "CtCC1pCpCC1pCpOO.chk"
 -------------------
 Title Card Required
 -------------------
 Charge =  0 Multiplicity = 1

                         Standard orientation:
 ---------------------------------------------------------------------
 Center     Atomic      Atomic             Coordinates (Angstroms)
 Number     Number       Type             X           Y           Z
 ---------------------------------------------------------------------
      1          6           0       -2.922315   -0.487439   -0.736571
      2          6           0       -1.889696   -0.058901   -0.290764
      3          6           0       -0.664990    0.491181    0.226777
      4          6           0       -0.415550    1.947016   -0.143308
      5          6           0       -0.199718    0.009243    1.601736
      6          6           0        0.537743   -0.454703    0.381107
      7          6           0        0.487590   -1.888564   -0.084080
      8          8           0        1.798108    0.147463    0.302443
      9          8           0        2.137422    0.302795   -1.109823
     10          1           0       -3.832255   -0.868036   -1.129279
     11          1           0       -1.201423    2.582514    0.276079
     12          1           0       -0.416221    2.072450   -1.229303
     13          1           0        0.550513    2.279586    0.238713
     14          1           0       -0.807127   -0.718020    2.127546
     15          1           0        0.293070    0.744417    2.227976
     16          1           0       -0.518462   -2.297634    0.019578
     17          1           0        1.180184   -2.499704    0.504414
     18          1           0        0.770623   -1.952743   -1.138403
     19          1           0        2.898477   -0.291895   -1.167667
 ---------------------------------------------------------------------

 SCF Done:  E(RB3LYP) =  -423.050254475     A.U. after    1 cycles

 The electronic state is 1-A.
 Alpha  occ. eigenvalues --  -19.20108 -19.19153 -10.25001 -10.21904 -10.19588
 Alpha  occ. eigenvalues --  -10.17960 -10.17880 -10.17543 -10.16872  -1.11728
 Alpha  occ. eigenvalues --   -0.93590  -0.85256  -0.74586  -0.72763  -0.69807
 Alpha  occ. eigenvalues --   -0.61208  -0.57661  -0.53643  -0.50365  -0.48960
 Alpha  occ. eigenvalues --   -0.48408  -0.44062  -0.42113  -0.40971  -0.39777
 Alpha  occ. eigenvalues --   -0.38779  -0.38559  -0.37339  -0.33379  -0.31072
 Alpha  occ. eigenvalues --   -0.29995  -0.27668  -0.25963  -0.23426
 Alpha virt. eigenvalues --    0.01861   0.05197   0.05398   0.08139   0.11850
 Alpha virt. eigenvalues --    0.12145   0.12988   0.13448   0.14907   0.15267
 Alpha virt. eigenvalues --    0.16551   0.18420   0.19417   0.19929   0.21597

 Mulliken charges:
               1
     1  C   -0.458736
     2  C    0.282218
     3  C    0.077031
     4  C   -0.461171
     5  C   -0.381223
     6  C    0.451045
     7  C   -0.478451
     8  O   -0.228451
     9  O   -0.339102
    10  H    0.190431
    11  H    0.121451
    12  H    0.133518
    13  H    0.136704
    14  H    0.127352
    15  H    0.131140
    16  H    0.138255
    17  H    0.117827
    18  H    0.129186
    19  H    0.310975
 Sum of Mulliken charges =  -0.00000

 Dipole moment (field-independent basis, Debye):
    X=              0.5057    Y=             -1.2758    Z=              0.2211  Tot=              1.3901
 Quadrupole moment (field-independent basis, Debye-Ang):
   XX=            -48.4613   YY=            -51.9246   ZZ=            -52.2596
   XY=             -1.5347   XZ=             -1.1020   YZ=              1.5987

  Exact polarizability:  97.361   3.555  73.388   4.071   1.532  71.878
 Approx polarizability: 144.512  11.310 100.559  11.191   3.303 115.015

                      1                      2                      3
                      A                      A                      A
 Frequencies --    101.0024               122.2634               150.8753
 Red. masses --      4.5763                 4.1511                 3.4140
 Frc consts  --      0.0275                 0.0366                 0.0458
 IR Inten    --      0.3415                 1.7803                 2.8826

                      4                      5                      6
                      A                      A                      A
 Frequencies --    185.5404               198.1285               225.9909
 Red. masses --      1.1237                 1.1779                 1.2237
 Frc consts  --      0.0228                 0.0272                 0.0368
 IR Inten    --      9.6864                 2.3682                87.1116

                      7                      8                      9
                      A                      A                      A
 Frequencies --    233.4439               253.0784               304.0083
 Red. masses --      2.3521                 2.0992                 4.2132
 Frc consts  --      0.0755                 0.0792                 0.2294
 IR Inten    --      2.5929                10.4324                 4.6644

                     10                     11                     12
                      A                      A                      A
 Frequencies --    358.4538               400.4913               441.8717
 Red. masses --      3.2181                 2.5421                 3.5356
 Frc consts  --      0.2436                 0.2402                 0.4067
 IR Inten    --      0.3354                 1.9206                 3.9296

                     13                     14                     15
                      A                      A                      A
 Frequencies --    526.0706               546.5420               561.5490
 Red. masses --      5.1859                 5.0265                 3.7226
 Frc consts  --      0.8456                 0.8846                 0.6916
 IR Inten    --      5.6642                 5.1050                 4.1510

                     16                     17                     18
                      A                      A                      A
 Frequencies --    587.0809               644.4615               661.8212
 Red. masses --      1.2227                 1.2347                 4.1870
 Frc consts  --      0.2483                 0.3021                 1.0805
 IR Inten    --     44.0110                40.1582                 2.3756

                     19                     20                     21
                      A                      A                      A
 Frequencies --    746.6264               871.5123               892.4990
 Red. masses --      3.5349                 2.8431                 5.0758
 Frc consts  --      1.1610                 1.2723                 2.3822
 IR Inten    --      1.3020                19.9291                10.5670

                     22                     23                     24
                      A                      A                      A
 Frequencies --    922.2516               925.0778               953.6921
 Red. masses --      2.1554                 1.3909                 1.8076
 Frc consts  --      1.0801                 0.7013                 0.9687
 IR Inten    --      3.5037                 0.9101                 4.1960

                     25                     26                     27
                      A                      A                      A
 Frequencies --   1004.1267              1064.3963              1106.5936
 Red. masses --      1.5374                 1.3115                 1.6125
 Frc consts  --      0.9133                 0.8754                 1.1634
 IR Inten    --      2.1315                 0.9755                 7.3894

                     28                     29                     30
                      A                      A                      A
 Frequencies --   1120.2944              1173.7883              1226.5995
 Red. masses --      1.7655                 3.3028                 3.4914
 Frc consts  --      1.3055                 2.6811                 3.0950
 IR Inten    --     24.2934                 2.5007                25.1815

                     31                     32                     33
                      A                      A                      A
 Frequencies --   1298.2305              1355.5497              1380.0357
 Red. masses --      2.9559                 2.1460                 1.2539
 Frc consts  --      2.9352                 2.3233                 1.4071
 IR Inten    --      1.5216                23.0851                38.1464

                     34                     35                     36
                      A                      A                      A
 Frequencies --   1408.1617              1413.6782              1468.6635
 Red. masses --      1.2562                 1.4002                 1.2203
 Frc consts  --      1.4677                 1.6487                 1.5508
 IR Inten    --      7.5448                 4.3865                 8.8455

                     37                     38                     39
                      A                      A                      A
 Frequencies --   1482.9933              1491.5356              1495.5839
 Red. masses --      1.0831                 1.0539                 1.0520
 Frc consts  --      1.4035                 1.3813                 1.3864
 IR Inten    --      2.5572                 2.5852                 5.6367

                     40                     41                     42
                      A                      A                      A
 Frequencies --   1503.1127              2228.7871              3042.7370
 Red. masses --      1.0853                 6.0407                 1.0382
 Frc consts  --      1.4447                17.6797                 5.6632
 IR Inten    --      1.8472                13.2427                26.4433

                     43                     44                     45
                      A                      A                      A
 Frequencies --   3047.6479              3110.7601              3113.8698
 Red. masses --      1.0362                 1.0998                 1.1016
 Frc consts  --      5.6705                 6.2705                 6.2930
 IR Inten    --     22.0128                13.9856                15.9119

                     46                     47                     48
                      A                      A                      A
 Frequencies --   3139.4051              3143.2715              3145.1382
 Red. masses --      1.0603                 1.0959                 1.0969
 Frc consts  --      6.1573                 6.3794                 6.3928
 IR Inten    --      2.1105                10.9201                 8.6749

                     49                     50                     51
                      A                      A                      A
 Frequencies --   3234.5994              3503.6368              3762.4931
 Red. masses --      1.1180                 1.1594                 1.0685
 Frc consts  --      6.8919                 8.3857                 8.9123
 IR Inten    --      1.9886                79.0336                42.9906

 - Thermochemistry -
 -------------------
 Temperature   298.150 Kelvin.  Pressure   1.00000 Atm.
 Atom     1 has atomic number  6 and mass  12.00000

 Molecular mass:   126.06808 amu.
 Principal axes and moments of inertia in atomic units:
                           1         2         3
     Eigenvalues --   748.521201393.197711587.58790
           X            0.99989  -0.01473  -0.00072
           Y            0.01474   0.99970   0.01956
           Z            0.00043  -0.01957   0.99981
 This molecule is an asymmetric top.
 Rotational symmetry number  1.
 Warning -- assumption of classical behavior for rotation
           may cause significant error
 Rotational temperatures (Kelvin)      0.11571     0.06217     0.05456
 Rotational constants (GHZ):           2.41108     1.29539     1.13678
 Zero-point vibrational energy     402423.9 (Joules/Mol)
                                   96.18162 (Kcal/Mol)
 Warning -- explicit consideration of  16 degrees of freedom as
           vibrations may cause significant error
 Vibrational temperatures:    145.32   175.91   217.08   266.95   285.06
          (Kelvin)            325.15   335.87   364.12   437.40   515.74
                              576.22   635.75   756.90   786.35   807.94
                              844.68   927.24   952.21  1074.23  1253.91
                             1284.11  1326.91  1330.98  1372.15  1444.71
                             1531.43  1592.14  1611.85  1688.82  1764.80
                             1867.86  1950.33  1985.56  2026.03  2033.97
                             2113.08  2133.70  2145.99  2151.81  2162.64
                             3206.73  4377.82  4384.89  4475.69  4480.16
                             4516.90  4522.47  4525.15  4653.87  5040.95
                             5413.39

 Zero-point correction=                           0.153275 (Hartree/Particle)
 Thermal correction to Energy=                    0.163764
 Thermal correction to Enthalpy=                  0.164708
 Thermal correction to Gibbs Free Energy=         0.118625
 Sum of electronic and zero-point Energies=           -422.896979
 Sum of electronic and thermal Energies=              -422.886490
 Sum of electronic and thermal Enthalpies=            -422.885546
 Sum of electronic and thermal Free Energies=         -422.931629

                     E (Thermal)             CV                S
                      KCal/Mol        Cal/Mol-Kelvin    Cal/Mol-Kelvin
 Total                  102.764             39.001             96.990
 Electronic               0.000              0.000              0.000
 Translational            0.889              2.981             40.409
 Rotational               0.889              2.981             28.895
 Vibrational            100.986             33.039             27.687
 Vibration     1          0.604              1.948              3.435
 Vibration     2          0.610              1.931              3.064
 Vibration     3          0.618              1.902              2.661
 Vibration     4          0.632              1.860              2.272
 Vibration     5          0.637              1.842              2.150
 Vibration     6          0.650              1.801              1.911
 Vibration     7          0.654              1.790              1.852
 Vibration     8          0.664              1.758              1.709
 Vibration     9          0.695              1.666              1.395
 Vibration    10          0.733              1.558              1.129
 Vibration    11          0.766              1.469              0.961
 Vibration    12          0.802              1.379              0.821
 Vibration    13          0.881              1.192              0.596
 Vibration    14          0.902              1.147              0.551
 Vibration    15          0.917              1.114              0.521
 Vibration    16          0.944              1.059              0.472

                           ! Non-Optimized Parameters !
 Normal termination of Gaussian 16 at Thu Aug  4 00:38:46 2022.
