 Gaussian 16, Revision A.03,
 Gaussian 16:  ES64L-G16RevA.03 25-Dec-2016

 -----------------------------
 # opt freq b3lyp/6-31g(2df,p)
 -----------------------------

 -------------------
 Title Card Required
 -------------------
 Symbolic Z-matrix:
 Charge =  0 Multiplicity = 1

 SCF Done:  E(RB3LYP) =  -434.232637157     A.U. after   14 cycles
 SCF Done:  E(RB3LYP) =  -434.235013767     A.U. after   12 cycles
 SCF Done:  E(RB3LYP) =  -434.236967796     A.U. after   12 cycles
 SCF Done:  E(RB3LYP) =  -434.238724745     A.U. after   12 cycles
 SCF Done:  E(RB3LYP) =  -434.239180494     A.U. after   11 cycles
 SCF Done:  E(RB3LYP) =  -434.239776406     A.U. after   11 cycles
 SCF Done:  E(RB3LYP) =  -434.240164396     A.U. after   12 cycles
 SCF Done:  E(RB3LYP) =  -434.240469119     A.U. after   11 cycles
 SCF Done:  E(RB3LYP) =  -434.240725566     A.U. after   11 cycles
 SCF Done:  E(RB3LYP) =  -434.240766435     A.U. after   10 cycles
 SCF Done:  E(RB3LYP) =  -434.242392873     A.U. after   12 cycles
 SCF Done:  E(RB3LYP) =  -434.240050285     A.U. after   13 cycles
 SCF Done:  E(RB3LYP) =  -434.239781979     A.U. after   13 cycles
 SCF Done:  E(RB3LYP) =  -434.242806510     A.U. after    9 cycles
 SCF Done:  E(RB3LYP) =  -434.242996064     A.U. after   11 cycles
 SCF Done:  E(RB3LYP) =  -434.243005719     A.U. after    9 cycles
 SCF Done:  E(RB3LYP) =  -434.243010214     A.U. after    9 cycles
 SCF Done:  E(RB3LYP) =  -434.243011604     A.U. after    8 cycles
 SCF Done:  E(RB3LYP) =  -434.243011731     A.U. after    7 cycles
 Optimization completed.
    -- Stationary point found.
 Normal termination of Gaussian 16 at Fri Aug  5 13:20:31 2022.

 ----------------------------------------------------------------------
 #N Geom=AllCheck Guess=TCheck SCRF=Check GenChk RB3LYP/6-31G(2df,p) Fr
 eq
 ----------------------------------------------------------------------

 Structure from the checkpoint file:  "Nc1cncnc1CO.chk"
 -------------------
 Title Card Required
 -------------------
 Charge =  0 Multiplicity = 1

                         Standard orientation:
 ---------------------------------------------------------------------
 Center     Atomic      Atomic             Coordinates (Angstroms)
 Number     Number       Type             X           Y           Z
 ---------------------------------------------------------------------
      1          7           0       -0.853356    1.863657   -0.240691
      2          6           0        0.093998    0.865941   -0.095100
      3          6           0        1.457370    1.132227    0.083149
      4          7           0        2.379585    0.177769    0.169266
      5          6           0        1.940104   -1.077884    0.083677
      6          7           0        0.672995   -1.457972   -0.080855
      7          6           0       -0.248955   -0.499658   -0.179942
      8          6           0       -1.680665   -0.928137   -0.403056
      9          8           0       -2.599012   -0.309865    0.505388
     10          1           0       -0.564911    2.783695    0.057772
     11          1           0       -1.778181    1.603391    0.078201
     12          1           0        1.804947    2.163002    0.153412
     13          1           0        2.683336   -1.866529    0.158312
     14          1           0       -1.729573   -2.021304   -0.351856
     15          1           0       -2.015733   -0.613490   -1.398376
     16          1           0       -2.373474   -0.608961    1.393014
 ---------------------------------------------------------------------

 SCF Done:  E(RB3LYP) =  -434.243011731     A.U. after    1 cycles

 The electronic state is 1-A.
 Alpha  occ. eigenvalues --  -19.16070 -14.34447 -14.32820 -14.32724 -10.24106
 Alpha  occ. eigenvalues --  -10.23701 -10.23253 -10.22843 -10.22408  -1.03788
 Alpha  occ. eigenvalues --   -0.97930  -0.92084  -0.88243  -0.76908  -0.71260
 Alpha  occ. eigenvalues --   -0.64596  -0.62551  -0.55372  -0.53027  -0.50034
 Alpha  occ. eigenvalues --   -0.48820  -0.47151  -0.45688  -0.42193  -0.41313
 Alpha  occ. eigenvalues --   -0.40593  -0.35336  -0.34425  -0.30960  -0.29871
 Alpha  occ. eigenvalues --   -0.29328  -0.24227  -0.22239
 Alpha virt. eigenvalues --   -0.03514  -0.00640   0.06473   0.09227   0.12951
 Alpha virt. eigenvalues --    0.13647   0.14041   0.15277   0.16388   0.18293
 Alpha virt. eigenvalues --    0.19941   0.22804   0.24970   0.27421   0.28386

 Mulliken charges:
               1
     1  N   -0.601131
     2  C    0.222886
     3  C   -0.041899
     4  N   -0.244664
     5  C    0.039042
     6  N   -0.296990
     7  C    0.238194
     8  C   -0.182824
     9  O   -0.413352
    10  H    0.247992
    11  H    0.268430
    12  H    0.101231
    13  H    0.111643
    14  H    0.125992
    15  H    0.132373
    16  H    0.293077
 Sum of Mulliken charges =  -0.00000

 Dipole moment (field-independent basis, Debye):
    X=             -1.8840    Y=              1.5465    Z=              1.1508  Tot=              2.6955
 Quadrupole moment (field-independent basis, Debye-Ang):
   XX=            -58.3230   YY=            -46.9570   ZZ=            -49.9989
   XY=              0.1745   XZ=             -2.2766   YZ=              0.7907

  Exact polarizability:  93.824  -4.703  87.433   4.133   0.578  43.531
 Approx polarizability: 152.680 -10.150 150.274   9.350  -0.103  69.864

                      1                      2                      3
                      A                      A                      A
 Frequencies --    108.1219               140.1745               235.1787
 Red. masses --      3.8096                 3.4139                 4.7781
 Frc consts  --      0.0262                 0.0395                 0.1557
 IR Inten    --      5.6253                 0.4597                 2.3685

                      4                      5                      6
                      A                      A                      A
 Frequencies --    270.5024               362.8679               392.2365
 Red. masses --      2.7338                 2.6703                 1.6686
 Frc consts  --      0.1179                 0.2072                 0.1512
 IR Inten    --      3.0555                23.0365                34.6345

                      7                      8                      9
                      A                      A                      A
 Frequencies --    426.0525               454.5818               477.1053
 Red. masses --      2.5929                 1.3837                 2.4274
 Frc consts  --      0.2773                 0.1685                 0.3256
 IR Inten    --     21.8315                80.8910                15.2683

                     10                     11                     12
                      A                      A                      A
 Frequencies --    562.9874               609.3308               639.7045
 Red. masses --      3.7834                 6.8202                 4.5008
 Frc consts  --      0.7065                 1.4919                 1.0852
 IR Inten    --     36.5434                21.0356                20.7217

                     13                     14                     15
                      A                      A                      A
 Frequencies --    672.4158               758.7875               803.9537
 Red. masses --      1.3938                 4.3010                 3.3895
 Frc consts  --      0.3713                 1.4590                 1.2908
 IR Inten    --    234.5292                 4.7767                12.7401

                     16                     17                     18
                      A                      A                      A
 Frequencies --    897.4979               924.4602               964.6865
 Red. masses --      6.1629                 1.6073                 1.6572
 Frc consts  --      2.9248                 0.8093                 0.9086
 IR Inten    --     10.8284                 8.4825                19.4194

                     19                     20                     21
                      A                      A                      A
 Frequencies --    972.1504              1041.2044              1103.5072
 Red. masses --      1.5302                 6.5247                 1.7565
 Frc consts  --      0.8521                 4.1676                 1.2602
 IR Inten    --      5.6482                51.4237                16.4508

                     22                     23                     24
                      A                      A                      A
 Frequencies --   1163.0281              1192.1953              1247.3613
 Red. masses --      2.0530                 1.4842                 3.1347
 Frc consts  --      1.6361                 1.2429                 2.8736
 IR Inten    --      7.3493                19.8142                 3.9886

                     25                     26                     27
                      A                      A                      A
 Frequencies --   1275.9045              1284.6773              1350.1100
 Red. masses --      5.2731                 1.8818                 1.5578
 Frc consts  --      5.0577                 1.8298                 1.6730
 IR Inten    --     12.4794                 8.4083                29.3030

                     28                     29                     30
                      A                      A                      A
 Frequencies --   1373.3744              1409.9217              1455.4594
 Red. masses --      1.3075                 1.2399                 3.2305
 Frc consts  --      1.4530                 1.4522                 4.0320
 IR Inten    --      3.2933                36.6991               127.2460

                     31                     32                     33
                      A                      A                      A
 Frequencies --   1487.9300              1497.4712              1590.2274
 Red. masses --      1.1115                 2.3206                 6.4429
 Frc consts  --      1.4498                 3.0660                 9.5996
 IR Inten    --      4.2494                14.4258                31.4976

                     34                     35                     36
                      A                      A                      A
 Frequencies --   1613.0843              1657.1585              3034.7234
 Red. masses --      4.0982                 1.2882                 1.0567
 Frc consts  --      6.2829                 2.0842                 5.7338
 IR Inten    --      8.3955                89.6919                27.2603

                     37                     38                     39
                      A                      A                      A
 Frequencies --   3084.4705              3125.0433              3173.7710
 Red. masses --      1.1076                 1.0894                 1.0902
 Frc consts  --      6.2087                 6.2681                 6.4700
 IR Inten    --     12.9098                30.6651                19.8578

                     40                     41                     42
                      A                      A                      A
 Frequencies --   3536.4266              3651.5563              3807.6728
 Red. masses --      1.0483                 1.0977                 1.0663
 Frc consts  --      7.7241                 8.6233                 9.1085
 IR Inten    --     62.5586                44.8828                26.8030

 - Thermochemistry -
 -------------------
 Temperature   298.150 Kelvin.  Pressure   1.00000 Atm.
 Atom     1 has atomic number  7 and mass  14.00307

 Molecular mass:   125.05891 amu.
 Principal axes and moments of inertia in atomic units:
                           1         2         3
     Eigenvalues --   598.608061243.058841755.22039
           X            0.99999   0.00336   0.00197
           Y           -0.00337   0.99997   0.00723
           Z           -0.00195  -0.00724   0.99997
 This molecule is an asymmetric top.
 Rotational symmetry number  1.
 Warning -- assumption of classical behavior for rotation
           may cause significant error
 Rotational temperatures (Kelvin)      0.14469     0.06968     0.04935
 Rotational constants (GHZ):           3.01490     1.45186     1.02821
 Zero-point vibrational energy     333932.0 (Joules/Mol)
                                   79.81167 (Kcal/Mol)
 Warning -- explicit consideration of  11 degrees of freedom as
           vibrations may cause significant error
 Vibrational temperatures:    155.56   201.68   338.37   389.19   522.09
          (Kelvin)            564.34   612.99   654.04   686.45   810.01
                              876.69   920.39   967.46  1091.73  1156.71
                             1291.30  1330.09  1387.97  1398.71  1498.06
                             1587.70  1673.34  1715.30  1794.67  1835.74
                             1848.36  1942.51  1975.98  2028.56  2094.08
                             2140.80  2154.53  2287.98  2320.87  2384.28
                             4366.29  4437.87  4496.24  4566.35  5088.13
                             5253.78  5478.39

 Zero-point correction=                           0.127188 (Hartree/Particle)
 Thermal correction to Energy=                    0.134953
 Thermal correction to Enthalpy=                  0.135897
 Thermal correction to Gibbs Free Energy=         0.094987
 Sum of electronic and zero-point Energies=           -434.115824
 Sum of electronic and thermal Energies=              -434.108059
 Sum of electronic and thermal Enthalpies=            -434.107115
 Sum of electronic and thermal Free Energies=         -434.148025

                     E (Thermal)             CV                S
                      KCal/Mol        Cal/Mol-Kelvin    Cal/Mol-Kelvin
 Total                   84.684             29.826             86.103
 Electronic               0.000              0.000              0.000
 Translational            0.889              2.981             40.385
 Rotational               0.889              2.981             28.659
 Vibrational             82.907             23.865             17.059
 Vibration     1          0.606              1.943              3.302
 Vibration     2          0.615              1.913              2.801
 Vibration     3          0.655              1.787              1.839
 Vibration     4          0.674              1.728              1.593
 Vibration     5          0.737              1.549              1.110
 Vibration     6          0.760              1.487              0.992
 Vibration     7          0.788              1.414              0.872
 Vibration     8          0.813              1.351              0.782
 Vibration     9          0.834              1.301              0.718
 Vibration    10          0.919              1.111              0.518
 Vibration    11          0.968              1.012              0.434

 Optimization completed.
    -- Stationary point found.
 Normal termination of Gaussian 16 at Fri Aug  5 13:44:41 2022.
