 Gaussian 16, Revision A.03,
 Gaussian 16:  ES64L-G16RevA.03 25-Dec-2016

 -----------------------------
 # opt freq b3lyp/6-31g(2df,p)
 -----------------------------

 -------------------
 Title Card Required
 -------------------
 Symbolic Z-matrix:
 Charge =  0 Multiplicity = 1

 SCF Done:  E(RB3LYP) =  -398.231515496     A.U. after   14 cycles
 SCF Done:  E(RB3LYP) =  -398.241180039     A.U. after   13 cycles
 SCF Done:  E(RB3LYP) =  -398.242604003     A.U. after   12 cycles
 SCF Done:  E(RB3LYP) =  -398.243248230     A.U. after   12 cycles
 SCF Done:  E(RB3LYP) =  -398.243364671     A.U. after   11 cycles
 SCF Done:  E(RB3LYP) =  -398.243382571     A.U. after    9 cycles
 SCF Done:  E(RB3LYP) =  -398.243384254     A.U. after    7 cycles
 SCF Done:  E(RB3LYP) =  -398.243384527     A.U. after    7 cycles
 Optimization completed.
    -- Stationary point found.
 Normal termination of Gaussian 16 at Sun Jul  3 16:31:32 2022.

 ----------------------------------------------------------------------
 #N Geom=AllCheck Guess=TCheck SCRF=Check GenChk RB3LYP/6-31G(2df,p) Fr
 eq
 ----------------------------------------------------------------------

 Structure from the checkpoint file:  "NC1CNdCpC2dNC2pC1.chk"
 -------------------
 Title Card Required
 -------------------
 Charge =  0 Multiplicity = 1

                         Standard orientation:
 ---------------------------------------------------------------------
 Center     Atomic      Atomic             Coordinates (Angstroms)
 Number     Number       Type             X           Y           Z
 ---------------------------------------------------------------------
      1          7           0       -2.527528   -0.878687    0.852694
      2          6           0       -1.968641   -0.259919   -0.351021
      3          6           0       -1.594957    1.247674   -0.214784
      4          7           0       -0.162220    1.316520    0.094655
      5          6           0        0.352657    0.172348   -0.160646
      6          6           0        1.769407   -0.067802    0.017385
      7          7           0        2.607604   -0.997845   -0.124393
      8          6           0        3.094085    0.373314    0.392679
      9          6           0       -0.597084   -0.890580   -0.675929
     10          1           0       -3.406045   -0.429774    1.097018
     11          1           0       -1.904418   -0.725661    1.642637
     12          1           0       -2.686496   -0.417120   -1.160375
     13          1           0       -2.171345    1.755517    0.566858
     14          1           0       -1.764610    1.804751   -1.146725
     15          1           0        3.697812    0.961765   -0.293929
     16          1           0        3.386857    0.418078    1.438871
     17          1           0       -0.462573   -1.864649   -0.198730
     18          1           0       -0.446976   -1.033031   -1.752428
 ---------------------------------------------------------------------

 SCF Done:  E(RB3LYP) =  -398.243384527     A.U. after    1 cycles

 The electronic state is 1-A.
 Alpha  occ. eigenvalues --  -14.34861 -14.34055 -14.32052 -10.24644 -10.24047
 Alpha  occ. eigenvalues --  -10.22618 -10.21824 -10.21519 -10.19903  -0.98978
 Alpha  occ. eigenvalues --   -0.95531  -0.88720  -0.75452  -0.74108  -0.64259
 Alpha  occ. eigenvalues --   -0.62110  -0.59765  -0.51407  -0.50549  -0.47793
 Alpha  occ. eigenvalues --   -0.46781  -0.45830  -0.44619  -0.42480  -0.40412
 Alpha  occ. eigenvalues --   -0.37445  -0.36511  -0.35887  -0.32567  -0.29014
 Alpha  occ. eigenvalues --   -0.27749  -0.26914  -0.24164
 Alpha virt. eigenvalues --   -0.06426   0.05942   0.07472   0.10128   0.11065
 Alpha virt. eigenvalues --    0.12129   0.12499   0.13525   0.14566   0.15704
 Alpha virt. eigenvalues --    0.16233   0.18081   0.18469   0.20218   0.22532

 Mulliken charges:
               1
     1  N   -0.508563
     2  C    0.010320
     3  C   -0.184100
     4  N   -0.246424
     5  C    0.168407
     6  C    0.323532
     7  N   -0.213647
     8  C   -0.320823
     9  C   -0.315822
    10  H    0.228630
    11  H    0.228409
    12  H    0.084730
    13  H    0.108103
    14  H    0.120549
    15  H    0.122951
    16  H    0.122534
    17  H    0.139071
    18  H    0.132143
 Sum of Mulliken charges =  -0.00000

 Dipole moment (field-independent basis, Debye):
    X=             -2.3682    Y=              1.2733    Z=             -0.0852  Tot=              2.6902
 Quadrupole moment (field-independent basis, Debye-Ang):
   XX=            -52.2231   YY=            -60.3324   ZZ=            -49.0493
   XY=              0.4001   XZ=              0.8358   YZ=             -0.5974

  Exact polarizability: 109.947  -6.952  74.129   2.786   2.398  61.904
 Approx polarizability: 145.592 -24.245 133.795   1.552   8.366  95.109

                      1                      2                      3
                      A                      A                      A
 Frequencies --     71.8506                87.2070               144.1212
 Red. masses --      3.1369                 3.9557                 4.3229
 Frc consts  --      0.0095                 0.0177                 0.0529
 IR Inten    --      0.0785                 5.0273                 5.9031

                      4                      5                      6
                      A                      A                      A
 Frequencies --    166.2414               269.8918               356.8075
 Red. masses --      3.2517                 1.0963                 3.9293
 Frc consts  --      0.0529                 0.0471                 0.2947
 IR Inten    --      2.8255                41.1522                20.4136

                      7                      8                      9
                      A                      A                      A
 Frequencies --    366.5310               400.8272               454.5452
 Red. masses --      2.5377                 2.1205                 2.7721
 Frc consts  --      0.2009                 0.2007                 0.3375
 IR Inten    --      2.8172                 3.0700                 4.4990

                     10                     11                     12
                      A                      A                      A
 Frequencies --    528.5028               580.6299               762.6020
 Red. masses --      6.4331                 3.1274                 4.1963
 Frc consts  --      1.0587                 0.6212                 1.4378
 IR Inten    --      1.2656                 0.0611                15.1945

                     13                     14                     15
                      A                      A                      A
 Frequencies --    789.4819               819.8135               873.1813
 Red. masses --      8.3662                 3.5204                 4.5555
 Frc consts  --      3.0723                 1.3940                 2.0464
 IR Inten    --     13.2797                17.6771                 3.5307

                     16                     17                     18
                      A                      A                      A
 Frequencies --    885.2411               906.7613               939.4952
 Red. masses --      1.5142                 1.6990                 2.0121
 Frc consts  --      0.6991                 0.8231                 1.0464
 IR Inten    --     82.0455                48.7197                 7.7075

                     19                     20                     21
                      A                      A                      A
 Frequencies --    993.0698              1003.4325              1016.3244
 Red. masses --      1.1892                 5.5282                 1.5481
 Frc consts  --      0.6909                 3.2795                 0.9422
 IR Inten    --      0.3083                 9.6262                33.7184

                     22                     23                     24
                      A                      A                      A
 Frequencies --   1033.2210              1092.4711              1111.3199
 Red. masses --      2.0122                 1.4813                 1.3495
 Frc consts  --      1.2656                 1.0416                 0.9820
 IR Inten    --     18.1379                 2.0706                 1.2734

                     25                     26                     27
                      A                      A                      A
 Frequencies --   1126.4044              1144.9853              1197.8490
 Red. masses --      2.3555                 1.2113                 1.1785
 Frc consts  --      1.7608                 0.9356                 0.9963
 IR Inten    --      8.4461                 1.3826                 4.9528

                     28                     29                     30
                      A                      A                      A
 Frequencies --   1254.0520              1278.8232              1303.9697
 Red. masses --      1.7221                 1.6291                 1.6775
 Frc consts  --      1.5957                 1.5697                 1.6806
 IR Inten    --     12.3396                 4.1489                12.3647

                     31                     32                     33
                      A                      A                      A
 Frequencies --   1320.6562              1393.3051              1419.6573
 Red. masses --      1.4551                 6.0830                 1.3310
 Frc consts  --      1.4953                 6.9576                 1.5805
 IR Inten    --     12.8509                 5.1506                 6.6808

                     34                     35                     36
                      A                      A                      A
 Frequencies --   1465.0887              1473.3674              1512.4665
 Red. masses --      1.0812                 1.1241                 1.0964
 Frc consts  --      1.3674                 1.4378                 1.4777
 IR Inten    --      8.2258                 3.4333                 2.8989

                     37                     38                     39
                      A                      A                      A
 Frequencies --   1658.4820              1668.1792              1820.8109
 Red. masses --      1.2509                 4.3470                10.9400
 Frc consts  --      2.0272                 7.1273                21.3697
 IR Inten    --     30.1644                12.3051                 9.7612

                     40                     41                     42
                      A                      A                      A
 Frequencies --   3015.9100              3047.0340              3063.7152
 Red. masses --      1.0652                 1.0666                 1.0973
 Frc consts  --      5.7082                 5.8347                 6.0686
 IR Inten    --     25.1694                 8.3236                19.3254

                     43                     44                     45
                      A                      A                      A
 Frequencies --   3076.2542              3095.4246              3105.3910
 Red. masses --      1.0865                 1.0485                 1.0975
 Frc consts  --      6.0582                 5.9193                 6.2357
 IR Inten    --     35.9031                28.5407                 4.3840

                     46                     47                     48
                      A                      A                      A
 Frequencies --   3183.8216              3474.4839              3555.2667
 Red. masses --      1.1193                 1.0493                 1.0919
 Frc consts  --      6.6850                 7.4633                 8.1315
 IR Inten    --     19.8277                 0.1463                 0.2315

 - Thermochemistry -
 -------------------
 Temperature   298.150 Kelvin.  Pressure   1.00000 Atm.
 Atom     1 has atomic number  7 and mass  14.00307

 Molecular mass:   123.07965 amu.
 Principal axes and moments of inertia in atomic units:
                           1         2         3
     Eigenvalues --   448.166711816.861832033.33092
           X            0.99996   0.00839   0.00384
           Y           -0.00840   0.99996   0.00426
           Z           -0.00381  -0.00430   0.99998
 This molecule is an asymmetric top.
 Rotational symmetry number  1.
 Warning -- assumption of classical behavior for rotation
           may cause significant error
 Rotational temperatures (Kelvin)      0.19326     0.04767     0.04260
 Rotational constants (GHZ):           4.02694     0.99333     0.88758
 Zero-point vibrational energy     390634.4 (Joules/Mol)
                                   93.36386 (Kcal/Mol)
 Warning -- explicit consideration of  11 degrees of freedom as
           vibrations may cause significant error
 Vibrational temperatures:    103.38   125.47   207.36   239.18   388.31
          (Kelvin)            513.37   527.36   576.70   653.99   760.40
                              835.40  1097.21  1135.89  1179.53  1256.31
                             1273.66  1304.63  1351.72  1428.81  1443.72
                             1462.26  1486.57  1571.82  1598.94  1620.64
                             1647.38  1723.44  1804.30  1839.94  1876.12
                             1900.13  2004.66  2042.57  2107.94  2119.85
                             2176.10  2386.19  2400.14  2619.74  4339.22
                             4384.00  4408.00  4426.04  4453.63  4467.97
                             4580.81  4999.01  5115.24

 Zero-point correction=                           0.148785 (Hartree/Particle)
 Thermal correction to Energy=                    0.157330
 Thermal correction to Enthalpy=                  0.158274
 Thermal correction to Gibbs Free Energy=         0.115054
 Sum of electronic and zero-point Energies=           -398.094600
 Sum of electronic and thermal Energies=              -398.086054
 Sum of electronic and thermal Enthalpies=            -398.085110
 Sum of electronic and thermal Free Energies=         -398.128331

                     E (Thermal)             CV                S
                      KCal/Mol        Cal/Mol-Kelvin    Cal/Mol-Kelvin
 Total                   98.726             31.483             90.965
 Electronic               0.000              0.000              0.000
 Translational            0.889              2.981             40.337
 Rotational               0.889              2.981             28.895
 Vibrational             96.949             25.522             21.734
 Vibration     1          0.598              1.967              4.102
 Vibration     2          0.601              1.958              3.722
 Vibration     3          0.616              1.909              2.748
 Vibration     4          0.624              1.884              2.478
 Vibration     5          0.674              1.729              1.597
 Vibration     6          0.732              1.561              1.136
 Vibration     7          0.739              1.541              1.094
 Vibration     8          0.767              1.468              0.960
 Vibration     9          0.813              1.351              0.782
 Vibration    10          0.883              1.187              0.591
 Vibration    11          0.937              1.073              0.484

                           ! Non-Optimized Parameters !
 Normal termination of Gaussian 16 at Sun Jul  3 16:56:20 2022.
