 Gaussian 16, Revision A.03,
 Gaussian 16:  ES64L-G16RevA.03 25-Dec-2016

 -----------------------------
 # opt freq b3lyp/6-31g(2df,p)
 -----------------------------

 -------------------
 Title Card Required
 -------------------
 Symbolic Z-matrix:
 Charge =  0 Multiplicity = 1

 SCF Done:  E(RB3LYP) =  -380.973482085     A.U. after   14 cycles
 SCF Done:  E(RB3LYP) =  -380.982343663     A.U. after   13 cycles
 SCF Done:  E(RB3LYP) =  -380.984070570     A.U. after   12 cycles
 SCF Done:  E(RB3LYP) =  -380.984589656     A.U. after   12 cycles
 SCF Done:  E(RB3LYP) =  -380.984688539     A.U. after   11 cycles
 SCF Done:  E(RB3LYP) =  -380.984717047     A.U. after   10 cycles
 SCF Done:  E(RB3LYP) =  -380.984728395     A.U. after    9 cycles
 SCF Done:  E(RB3LYP) =  -380.984732273     A.U. after    8 cycles
 SCF Done:  E(RB3LYP) =  -380.984733810     A.U. after    8 cycles
 SCF Done:  E(RB3LYP) =  -380.984734427     A.U. after    8 cycles
 SCF Done:  E(RB3LYP) =  -380.984734576     A.U. after    7 cycles
 Optimization completed.
    -- Stationary point found.
 Normal termination of Gaussian 16 at Sun Jul  3 12:31:57 2022.

 ----------------------------------------------------------------------
 #N Geom=AllCheck Guess=TCheck SCRF=Check GenChk RB3LYP/6-31G(2df,p) Fr
 eq
 ----------------------------------------------------------------------

 Structure from the checkpoint file:  "NC1CdNC2dCCC2dC1.chk"
 -------------------
 Title Card Required
 -------------------
 Charge =  0 Multiplicity = 1

                         Standard orientation:
 ---------------------------------------------------------------------
 Center     Atomic      Atomic             Coordinates (Angstroms)
 Number     Number       Type             X           Y           Z
 ---------------------------------------------------------------------
      1          7           0       -2.600414   -0.614715    0.589738
      2          6           0       -1.569972   -0.259724   -0.408537
      3          6           0       -1.129465    1.203357   -0.248877
      4          7           0        0.039289    1.683805   -0.009644
      5          6           0        1.013521    0.696672    0.042038
      6          6           0        2.346558    0.556920    0.229233
      7          6           0        2.278126   -0.978027    0.082428
      8          6           0        0.774309   -0.728750   -0.116585
      9          6           0       -0.425560   -1.250890   -0.338673
     10          1           0       -3.408285   -0.003163    0.499819
     11          1           0       -2.224726   -0.469048    1.523439
     12          1           0       -2.068732   -0.340077   -1.387368
     13          1           0       -1.954850    1.920102   -0.302961
     14          1           0        3.167214    1.236327    0.417412
     15          1           0        2.547761   -1.558117    0.972095
     16          1           0        2.800536   -1.401488   -0.782572
     17          1           0       -0.656147   -2.305502   -0.446689
 ---------------------------------------------------------------------

 SCF Done:  E(RB3LYP) =  -380.984734576     A.U. after    1 cycles

 The electronic state is 1-A.
 Alpha  occ. eigenvalues --  -14.33121 -14.32234 -10.23403 -10.22998 -10.20631
 Alpha  occ. eigenvalues --  -10.19912 -10.19283 -10.18811 -10.18253  -0.94618
 Alpha  occ. eigenvalues --   -0.88968  -0.85557  -0.76004  -0.68478  -0.65481
 Alpha  occ. eigenvalues --   -0.59662  -0.57539  -0.50937  -0.50674  -0.47675
 Alpha  occ. eigenvalues --   -0.44945  -0.43735  -0.41344  -0.40341  -0.37698
 Alpha  occ. eigenvalues --   -0.36296  -0.35512  -0.33915  -0.28429  -0.26754
 Alpha  occ. eigenvalues --   -0.23283  -0.21911
 Alpha virt. eigenvalues --   -0.04253   0.00449   0.08097   0.11201   0.12229
 Alpha virt. eigenvalues --    0.12631   0.13784   0.14450   0.15620   0.17239
 Alpha virt. eigenvalues --    0.17440   0.18088   0.19629   0.22935   0.23877

 Mulliken charges:
               1
     1  N   -0.506508
     2  C   -0.076552
     3  C   -0.016273
     4  N   -0.304388
     5  C    0.357839
     6  C   -0.228032
     7  C   -0.394415
     8  C    0.358010
     9  C   -0.305674
    10  H    0.228429
    11  H    0.230820
    12  H    0.102280
    13  H    0.099800
    14  H    0.111181
    15  H    0.119787
    16  H    0.120835
    17  H    0.102860
 Sum of Mulliken charges =  -0.00000

 Dipole moment (field-independent basis, Debye):
    X=             -0.5539    Y=             -0.5552    Z=              0.0616  Tot=              0.7867
 Quadrupole moment (field-independent basis, Debye-Ang):
   XX=            -45.7322   YY=            -57.0757   ZZ=            -51.0991
   XY=             -4.9262   XZ=              0.5627   YZ=              0.3878

  Exact polarizability: 133.807   1.257  77.976   6.896   1.392  52.073
 Approx polarizability: 233.153  15.897 121.800  19.647   3.592  84.958

                      1                      2                      3
                      A                      A                      A
 Frequencies --     89.9375               214.9935               224.7155
 Red. masses --      3.5537                 2.3776                 3.2867
 Frc consts  --      0.0169                 0.0648                 0.0978
 IR Inten    --      0.2242                 5.6552                 6.9085

                      4                      5                      6
                      A                      A                      A
 Frequencies --    297.8521               325.8654               415.6266
 Red. masses --      1.1912                 2.6860                 3.5996
 Frc consts  --      0.0623                 0.1680                 0.3664
 IR Inten    --     37.5461                 7.4447                 5.2764

                      7                      8                      9
                      A                      A                      A
 Frequencies --    465.7027               495.9366               548.8302
 Red. masses --      3.5894                 3.2397                 3.7244
 Frc consts  --      0.4587                 0.4695                 0.6610
 IR Inten    --      5.3673                 1.2981                 1.5260

                     10                     11                     12
                      A                      A                      A
 Frequencies --    640.5170               719.1316               769.4597
 Red. masses --      5.0637                 5.2185                 2.5669
 Frc consts  --      1.2240                 1.5900                 0.8954
 IR Inten    --      0.3460                 1.1326                 5.2442

                     13                     14                     15
                      A                      A                      A
 Frequencies --    815.5958               841.3935               852.9514
 Red. masses --      1.6783                 1.9436                 1.3736
 Frc consts  --      0.6578                 0.8107                 0.5888
 IR Inten    --     16.6563                36.1454                41.3771

                     16                     17                     18
                      A                      A                      A
 Frequencies --    877.2050               893.0927               920.8231
 Red. masses --      1.9362                 3.0159                 2.6023
 Frc consts  --      0.8778                 1.4173                 1.3001
 IR Inten    --     81.5523                40.9895                 4.8000

                     19                     20                     21
                      A                      A                      A
 Frequencies --    952.5034               999.9489              1005.7138
 Red. masses --      1.5225                 1.9691                 2.8195
 Frc consts  --      0.8139                 1.1601                 1.6802
 IR Inten    --      5.9863                 0.3192                 3.2386

                     22                     23                     24
                      A                      A                      A
 Frequencies --   1072.1466              1099.8524              1120.1209
 Red. masses --      2.6551                 1.1260                 2.6066
 Frc consts  --      1.7982                 0.8025                 1.9269
 IR Inten    --     12.8314                 0.5423                 4.7450

                     25                     26                     27
                      A                      A                      A
 Frequencies --   1177.2397              1188.7111              1218.1153
 Red. masses --      1.2812                 2.0201                 1.5275
 Frc consts  --      1.0462                 1.6818                 1.3354
 IR Inten    --      5.9062                 4.8968                11.9996

                     28                     29                     30
                      A                      A                      A
 Frequencies --   1233.2292              1323.3824              1361.0616
 Red. masses --      1.6840                 1.5821                 1.4315
 Frc consts  --      1.5090                 1.6325                 1.5624
 IR Inten    --      0.5514                 1.0293                 4.0817

                     31                     32                     33
                      A                      A                      A
 Frequencies --   1392.3646              1418.5990              1475.8868
 Red. masses --      2.2670                 1.4342                 1.1227
 Frc consts  --      2.5894                 1.7005                 1.4409
 IR Inten    --      6.8819                 9.5038                 1.0161

                     34                     35                     36
                      A                      A                      A
 Frequencies --   1634.7417              1649.8085              1661.4417
 Red. masses --      6.8617                 1.1420                 7.1200
 Frc consts  --     10.8039                 1.8314                11.5799
 IR Inten    --     46.3389                21.9359                15.0037

                     37                     38                     39
                      A                      A                      A
 Frequencies --   1768.6725              2975.6398              3034.5413
 Red. masses --      8.9970                 1.0810                 1.0566
 Frc consts  --     16.5822                 5.6396                 5.7328
 IR Inten    --      1.6612                29.6055                48.2839

                     40                     41                     42
                      A                      A                      A
 Frequencies --   3076.3415              3079.8593              3182.8144
 Red. masses --      1.1062                 1.0882                 1.0928
 Frc consts  --      6.1682                 6.0817                 6.5226
 IR Inten    --     21.1209                37.1951                 9.3746

                     43                     44                     45
                      A                      A                      A
 Frequencies --   3223.0781              3472.3517              3559.2727
 Red. masses --      1.0993                 1.0485                 1.0932
 Frc consts  --      6.7283                 7.4483                 8.1600
 IR Inten    --      4.0027                 0.5131                 0.4324

 - Thermochemistry -
 -------------------
 Temperature   298.150 Kelvin.  Pressure   1.00000 Atm.
 Atom     1 has atomic number  7 and mass  14.00307

 Molecular mass:   120.06875 amu.
 Principal axes and moments of inertia in atomic units:
                           1         2         3
     Eigenvalues --   503.623001271.362481657.44873
           X            0.99979  -0.02042   0.00078
           Y            0.02042   0.99979   0.00264
           Z           -0.00084  -0.00262   1.00000
 This molecule is an asymmetric top.
 Rotational symmetry number  1.
 Warning -- assumption of classical behavior for rotation
           may cause significant error
 Rotational temperatures (Kelvin)      0.17198     0.06813     0.05226
 Rotational constants (GHZ):           3.58352     1.41953     1.08887
 Zero-point vibrational energy     363467.8 (Joules/Mol)
                                   86.87089 (Kcal/Mol)
 Warning -- explicit consideration of   9 degrees of freedom as
           vibrations may cause significant error
 Vibrational temperatures:    129.40   309.33   323.32   428.54   468.85
          (Kelvin)            597.99   670.04   713.54   789.64   921.56
                             1034.67  1107.08  1173.46  1210.58  1227.21
                             1262.10  1284.96  1324.86  1370.44  1438.70
                             1447.00  1542.58  1582.44  1611.60  1693.79
                             1710.29  1752.60  1774.34  1904.05  1958.26
                             2003.30  2041.05  2123.47  2352.03  2373.71
                             2390.44  2544.73  4281.28  4366.03  4426.17
                             4431.23  4579.36  4637.29  4995.94  5121.00

 Zero-point correction=                           0.138438 (Hartree/Particle)
 Thermal correction to Energy=                    0.145868
 Thermal correction to Enthalpy=                  0.146813
 Thermal correction to Gibbs Free Energy=         0.106657
 Sum of electronic and zero-point Energies=           -380.846297
 Sum of electronic and thermal Energies=              -380.838866
 Sum of electronic and thermal Enthalpies=            -380.837922
 Sum of electronic and thermal Free Energies=         -380.878078

                     E (Thermal)             CV                S
                      KCal/Mol        Cal/Mol-Kelvin    Cal/Mol-Kelvin
 Total                   91.534             29.286             84.515
 Electronic               0.000              0.000              0.000
 Translational            0.889              2.981             40.263
 Rotational               0.889              2.981             28.453
 Vibrational             89.756             23.325             15.799
 Vibration     1          0.602              1.956              3.661
 Vibration     2          0.645              1.818              2.001
 Vibration     3          0.649              1.803              1.921
 Vibration     4          0.691              1.678              1.429
 Vibration     5          0.710              1.624              1.281
 Vibration     6          0.779              1.436              0.907
 Vibration     7          0.823              1.326              0.750
 Vibration     8          0.852              1.259              0.668
 Vibration     9          0.904              1.142              0.547

 Optimization completed.
    -- Stationary point found.
 Normal termination of Gaussian 16 at Sun Jul  3 12:58:37 2022.
