 Gaussian 16, Revision A.03,
 Gaussian 16:  ES64L-G16RevA.03 25-Dec-2016

 -----------------------------
 # opt freq b3lyp/6-31g(2df,p)
 -----------------------------

 -------------------
 Title Card Required
 -------------------
 Symbolic Z-matrix:
 Charge =  0 Multiplicity = 1

 SCF Done:  E(RB3LYP) =  -345.352710888     A.U. after   13 cycles
 SCF Done:  E(RB3LYP) =  -345.357045595     A.U. after   11 cycles
 SCF Done:  E(RB3LYP) =  -345.358304251     A.U. after   11 cycles
 SCF Done:  E(RB3LYP) =  -345.358757801     A.U. after   11 cycles
 SCF Done:  E(RB3LYP) =  -345.358813124     A.U. after    9 cycles
 SCF Done:  E(RB3LYP) =  -345.358847854     A.U. after    9 cycles
 SCF Done:  E(RB3LYP) =  -345.358859010     A.U. after    9 cycles
 SCF Done:  E(RB3LYP) =  -345.358853464     A.U. after    8 cycles
 SCF Done:  E(RB3LYP) =  -345.358917149     A.U. after    9 cycles
 SCF Done:  E(RB3LYP) =  -345.320511623     A.U. after   12 cycles
 SCF Done:  E(RB3LYP) =  -345.360330067     A.U. after   10 cycles
 SCF Done:  E(RB3LYP) =  -345.360771539     A.U. after   11 cycles
 SCF Done:  E(RB3LYP) =  -345.361148219     A.U. after   10 cycles
 SCF Done:  E(RB3LYP) =  -345.361303836     A.U. after   10 cycles
 SCF Done:  E(RB3LYP) =  -345.361364257     A.U. after    9 cycles
 SCF Done:  E(RB3LYP) =  -345.361414260     A.U. after    9 cycles
 SCF Done:  E(RB3LYP) =  -345.361421715     A.U. after    8 cycles
 SCF Done:  E(RB3LYP) =  -345.361422120     A.U. after    7 cycles
 SCF Done:  E(RB3LYP) =  -345.361422212     A.U. after    7 cycles
 Optimization completed.
    -- Stationary point found.
 Normal termination of Gaussian 16 at Sun Jul  3 16:07:08 2022.

 ----------------------------------------------------------------------
 #N Geom=AllCheck Guess=TCheck SCRF=Check GenChk RB3LYP/6-31G(2df,p) Fr
 eq
 ----------------------------------------------------------------------

 Structure from the checkpoint file:  "NC1CCCdCNC1.chk"
 -------------------
 Title Card Required
 -------------------
 Charge =  0 Multiplicity = 1

                         Standard orientation:
 ---------------------------------------------------------------------
 Center     Atomic      Atomic             Coordinates (Angstroms)
 Number     Number       Type             X           Y           Z
 ---------------------------------------------------------------------
      1          7           0       -2.352971    0.021310   -0.533536
      2          6           0       -1.257476   -0.278320    0.400664
      3          6           0       -0.541862    1.029226    0.784842
      4          6           0        0.418743    1.582608   -0.281318
      5          6           0        1.736970    0.841786   -0.340897
      6          6           0        1.952235   -0.441136   -0.022704
      7          7           0        0.987985   -1.391600    0.330758
      8          6           0       -0.326191   -1.284332   -0.295711
      9          1           0       -3.055426    0.586295   -0.065151
     10          1           0       -2.823059   -0.837029   -0.809726
     11          1           0       -1.613619   -0.741428    1.337318
     12          1           0        0.016248    0.865059    1.712211
     13          1           0       -1.312086    1.777553    1.012446
     14          1           0        0.633018    2.631845   -0.044525
     15          1           0       -0.090676    1.602393   -1.254591
     16          1           0        2.611701    1.425093   -0.610747
     17          1           0        2.969048   -0.825391   -0.008179
     18          1           0        1.351829   -2.331028    0.309523
     19          1           0       -0.793583   -2.275528   -0.277617
     20          1           0       -0.233002   -0.984797   -1.350777
 ---------------------------------------------------------------------

 SCF Done:  E(RB3LYP) =  -345.361422212     A.U. after    1 cycles

 The electronic state is 1-A.
 Alpha  occ. eigenvalues --  -14.32554 -14.30414 -10.20314 -10.20178 -10.19329
 Alpha  occ. eigenvalues --  -10.16714 -10.16693 -10.15086  -0.91678  -0.87509
 Alpha  occ. eigenvalues --   -0.77232  -0.73847  -0.66820  -0.64396  -0.54557
 Alpha  occ. eigenvalues --   -0.53306  -0.51301  -0.48023  -0.45870  -0.42655
 Alpha  occ. eigenvalues --   -0.41841  -0.41252  -0.40022  -0.37104  -0.34880
 Alpha  occ. eigenvalues --   -0.33052  -0.31696  -0.31396  -0.29180  -0.23333
 Alpha  occ. eigenvalues --   -0.18378
 Alpha virt. eigenvalues --    0.05223   0.07248   0.09109   0.12665   0.13353
 Alpha virt. eigenvalues --    0.13997   0.14940   0.16314   0.17889   0.19174
 Alpha virt. eigenvalues --    0.19430   0.20534   0.21124   0.21854   0.23716

 Mulliken charges:
               1
     1  N   -0.515928
     2  C    0.045484
     3  C   -0.183294
     4  C   -0.260418
     5  C   -0.085734
     6  C   -0.013240
     7  N   -0.297499
     8  C   -0.163252
     9  H    0.223396
    10  H    0.220358
    11  H    0.050530
    12  H    0.106365
    13  H    0.078791
    14  H    0.090846
    15  H    0.117303
    16  H    0.073080
    17  H    0.083865
    18  H    0.230565
    19  H    0.088153
    20  H    0.110629
 Sum of Mulliken charges =  -0.00000

 Dipole moment (field-independent basis, Debye):
    X=             -0.8372    Y=             -1.6371    Z=              0.4201  Tot=              1.8861
 Quadrupole moment (field-independent basis, Debye-Ang):
   XX=            -44.5776   YY=            -44.6511   ZZ=            -53.1902
   XY=             -0.7326   XZ=             -1.7367   YZ=              1.4033

  Exact polarizability:  84.392   0.529  85.877  -0.136  -2.752  57.855
 Approx polarizability: 109.176  -0.601 132.213   1.497  -9.739  91.490

                      1                      2                      3
                      A                      A                      A
 Frequencies --    100.8676               217.2913               240.9664
 Red. masses --      2.8740                 2.1327                 2.3746
 Frc consts  --      0.0172                 0.0593                 0.0812
 IR Inten    --      0.6900                 0.2415                 3.5136

                      4                      5                      6
                      A                      A                      A
 Frequencies --    254.8678               309.3229               347.1672
 Red. masses --      1.1232                 2.7316                 3.3237
 Frc consts  --      0.0430                 0.1540                 0.2360
 IR Inten    --     27.1842                 8.6195                 1.8487

                      7                      8                      9
                      A                      A                      A
 Frequencies --    393.1117               483.4462               496.6849
 Red. masses --      2.2922                 2.6537                 2.1968
 Frc consts  --      0.2087                 0.3654                 0.3193
 IR Inten    --      2.3497                 1.0800                44.5278

                     10                     11                     12
                      A                      A                      A
 Frequencies --    548.9003               614.4124               727.1535
 Red. masses --      1.9796                 1.8671                 1.5290
 Frc consts  --      0.3514                 0.4153                 0.4763
 IR Inten    --     65.8310                15.0728                12.3760

                     13                     14                     15
                      A                      A                      A
 Frequencies --    744.5675               813.6360               866.3327
 Red. masses --      1.9772                 2.1898                 1.9028
 Frc consts  --      0.6458                 0.8541                 0.8414
 IR Inten    --      9.4993                58.1712                58.1591

                     16                     17                     18
                      A                      A                      A
 Frequencies --    894.7984               916.4923               942.0020
 Red. masses --      2.2999                 2.7518                 2.1294
 Frc consts  --      1.0849                 1.3619                 1.1133
 IR Inten    --     11.2286                10.8322                11.5917

                     19                     20                     21
                      A                      A                      A
 Frequencies --    952.9762               992.1916              1038.4199
 Red. masses --      1.2931                 1.7688                 2.0884
 Frc consts  --      0.6919                 1.0260                 1.3268
 IR Inten    --      1.2771                 0.9074                 5.4667

                     22                     23                     24
                      A                      A                      A
 Frequencies --   1046.3395              1091.1031              1099.1660
 Red. masses --      1.9296                 2.3743                 1.7629
 Frc consts  --      1.2447                 1.6654                 1.2549
 IR Inten    --      3.6229                12.9764                 4.1909

                     25                     26                     27
                      A                      A                      A
 Frequencies --   1166.5743              1204.2470              1246.9543
 Red. masses --      1.8702                 1.2680                 1.1914
 Frc consts  --      1.4995                 1.0834                 1.0915
 IR Inten    --     35.1153                 4.1898                 0.6975

                     28                     29                     30
                      A                      A                      A
 Frequencies --   1255.4012              1284.2255              1314.0408
 Red. masses --      1.3821                 1.1679                 1.1853
 Frc consts  --      1.2834                 1.1349                 1.2058
 IR Inten    --     12.7812                 7.5845                 4.7678

                     31                     32                     33
                      A                      A                      A
 Frequencies --   1335.7088              1356.9226              1384.6014
 Red. masses --      1.2648                 1.4233                 1.4522
 Frc consts  --      1.3295                 1.5440                 1.6404
 IR Inten    --     26.0933                10.6631                 5.2828

                     34                     35                     36
                      A                      A                      A
 Frequencies --   1407.6094              1416.6885              1439.2353
 Red. masses --      1.4859                 1.5017                 1.4238
 Frc consts  --      1.7346                 1.7758                 1.7377
 IR Inten    --      0.8380                11.2500                 4.2930

                     37                     38                     39
                      A                      A                      A
 Frequencies --   1480.0186              1482.5964              1499.2797
 Red. masses --      1.0920                 1.1301                 1.0979
 Frc consts  --      1.4093                 1.4636                 1.4541
 IR Inten    --      1.9440                 1.6910                 7.4387

                     40                     41                     42
                      A                      A                      A
 Frequencies --   1502.3163              1657.5067              1731.3056
 Red. masses --      1.3575                 1.0926                 5.5088
 Frc consts  --      1.8051                 1.7686                 9.7287
 IR Inten    --     29.0800                30.4919                55.8432

                     43                     44                     45
                      A                      A                      A
 Frequencies --   2932.4601              2986.2518              3011.3776
 Red. masses --      1.0822                 1.0649                 1.0628
 Frc consts  --      5.4831                 5.5951                 5.6783
 IR Inten    --     64.9632                40.2624                29.0011

                     46                     47                     48
                      A                      A                      A
 Frequencies --   3021.1672              3042.5697              3057.5240
 Red. masses --      1.0702                 1.0941                 1.0978
 Frc consts  --      5.7552                 5.9676                 6.0468
 IR Inten    --     34.0425                52.1029                35.1659

                     49                     50                     51
                      A                      A                      A
 Frequencies --   3077.4395              3150.6098              3177.2468
 Red. masses --      1.0962                 1.0850                 1.0942
 Frc consts  --      6.1165                 6.3453                 6.5080
 IR Inten    --     30.3139                 7.1878                33.0538

                     52                     53                     54
                      A                      A                      A
 Frequencies --   3479.9022              3558.0898              3615.1643
 Red. masses --      1.0496                 1.0918                 1.0762
 Frc consts  --      7.4888                 8.1434                 8.2873
 IR Inten    --      1.1123                 0.1093                10.9147

 - Thermochemistry -
 -------------------
 Temperature   298.150 Kelvin.  Pressure   1.00000 Atm.
 Atom     1 has atomic number  7 and mass  14.00307

 Molecular mass:   112.10005 amu.
 Principal axes and moments of inertia in atomic units:
                           1         2         3
     Eigenvalues --   569.98307 957.530061322.93446
           X            0.99992   0.01033  -0.00727
           Y           -0.01024   0.99988   0.01136
           Z            0.00739  -0.01128   0.99991
 This molecule is an asymmetric top.
 Rotational symmetry number  1.
 Warning -- assumption of classical behavior for rotation
           may cause significant error
 Rotational temperatures (Kelvin)      0.15196     0.09046     0.06547
 Rotational constants (GHZ):           3.16631     1.88479     1.36420
 Zero-point vibrational energy     474960.8 (Joules/Mol)
                                  113.51837 (Kcal/Mol)
 Warning -- explicit consideration of  11 degrees of freedom as
           vibrations may cause significant error
 Vibrational temperatures:    145.13   312.63   346.70   366.70   445.05
          (Kelvin)            499.50   565.60   695.57   714.62   789.75
                              884.00  1046.21  1071.27  1170.64  1246.46
                             1287.42  1318.63  1355.33  1371.12  1427.54
                             1494.05  1505.45  1569.85  1581.45  1678.44
                             1732.64  1794.09  1806.24  1847.71  1890.61
                             1921.79  1952.31  1992.13  2025.24  2038.30
                             2070.74  2129.42  2133.13  2157.13  2161.50
                             2384.78  2490.96  4219.16  4296.55  4332.70
                             4346.79  4377.58  4399.10  4427.75  4533.02
                             4571.35  5006.80  5119.30  5201.42

 Zero-point correction=                           0.180903 (Hartree/Particle)
 Thermal correction to Energy=                    0.188715
 Thermal correction to Enthalpy=                  0.189659
 Thermal correction to Gibbs Free Energy=         0.149240
 Sum of electronic and zero-point Energies=           -345.180519
 Sum of electronic and thermal Energies=              -345.172707
 Sum of electronic and thermal Enthalpies=            -345.171763
 Sum of electronic and thermal Free Energies=         -345.212182

                     E (Thermal)             CV                S
                      KCal/Mol        Cal/Mol-Kelvin    Cal/Mol-Kelvin
 Total                  118.421             30.971             85.070
 Electronic               0.000              0.000              0.000
 Translational            0.889              2.981             40.058
 Rotational               0.889              2.981             28.070
 Vibrational            116.643             25.010             16.942
 Vibration     1          0.604              1.948              3.437
 Vibration     2          0.646              1.815              1.982
 Vibration     3          0.658              1.778              1.796
 Vibration     4          0.665              1.755              1.697
 Vibration     5          0.699              1.656              1.366
 Vibration     6          0.725              1.581              1.179
 Vibration     7          0.760              1.485              0.988
 Vibration     8          0.840              1.287              0.701
 Vibration     9          0.852              1.257              0.666
 Vibration    10          0.904              1.142              0.546
 Vibration    11          0.974              1.001              0.426

 Optimization completed.
    -- Stationary point found.
 Normal termination of Gaussian 16 at Sun Jul  3 16:38:06 2022.
