 Gaussian 16, Revision A.03,
 Gaussian 16:  ES64L-G16RevA.03 25-Dec-2016

 -----------------------------
 # opt freq b3lyp/6-31g(2df,p)
 -----------------------------

 -------------------
 Title Card Required
 -------------------
 Symbolic Z-matrix:
 Charge =  0 Multiplicity = 1

 SCF Done:  E(RB3LYP) =  -450.724593731     A.U. after   15 cycles
 SCF Done:  E(RB3LYP) =  -450.733162168     A.U. after   13 cycles
 SCF Done:  E(RB3LYP) =  -450.734441528     A.U. after   13 cycles
 SCF Done:  E(RB3LYP) =  -450.734220808     A.U. after   13 cycles
 SCF Done:  E(RB3LYP) =  -450.734582430     A.U. after   12 cycles
 SCF Done:  E(RB3LYP) =  -450.734665017     A.U. after   12 cycles
 SCF Done:  E(RB3LYP) =  -450.734695983     A.U. after   11 cycles
 SCF Done:  E(RB3LYP) =  -450.734703486     A.U. after    9 cycles
 SCF Done:  E(RB3LYP) =  -450.734704688     A.U. after    8 cycles
 SCF Done:  E(RB3LYP) =  -450.734705027     A.U. after    7 cycles
 SCF Done:  E(RB3LYP) =  -450.734705453     A.U. after    7 cycles
 SCF Done:  E(RB3LYP) =  -450.734705798     A.U. after    7 cycles
 Optimization completed.
    -- Stationary point found.
 Normal termination of Gaussian 16 at Sun Jul  3 11:52:43 2022.

 ----------------------------------------------------------------------
 #N Geom=AllCheck Guess=TCheck SCRF=Check GenChk RB3LYP/6-31G(2df,p) Fr
 eq
 ----------------------------------------------------------------------

 Structure from the checkpoint file:  "NC1dNCpdOpCpdOpO1.chk"
 -------------------
 Title Card Required
 -------------------
 Charge =  0 Multiplicity = 1

                         Standard orientation:
 ---------------------------------------------------------------------
 Center     Atomic      Atomic             Coordinates (Angstroms)
 Number     Number       Type             X           Y           Z
 ---------------------------------------------------------------------
      1          7           0       -2.508543    0.022775   -0.000330
      2          6           0       -1.181771    0.107309   -0.000200
      3          7           0       -0.485813    1.207233   -0.000459
      4          6           0        0.840855    0.805371   -0.000057
      5          8           0        1.840659    1.468144    0.000362
      6          6           0        0.837741   -0.754508   -0.000022
      7          8           0        1.693201   -1.568071   -0.000147
      8          8           0       -0.534943   -1.094684    0.000240
      9          1           0       -3.048394    0.871709    0.001917
     10          1           0       -2.963405   -0.873916    0.001635
 ---------------------------------------------------------------------

 SCF Done:  E(RB3LYP) =  -450.734705798     A.U. after    1 cycles

 The electronic state is 1-A.
 Alpha  occ. eigenvalues --  -19.23517 -19.17689 -19.14130 -14.41161 -14.33725
 Alpha  occ. eigenvalues --  -10.35966 -10.33898 -10.30392  -1.16537  -1.08566
 Alpha  occ. eigenvalues --   -1.05820  -0.98713  -0.93229  -0.72323  -0.64506
 Alpha  occ. eigenvalues --   -0.62688  -0.56523  -0.55117  -0.52269  -0.48600
 Alpha  occ. eigenvalues --   -0.46542  -0.43648  -0.42933  -0.40859  -0.35067
 Alpha  occ. eigenvalues --   -0.34839  -0.31659  -0.28585  -0.26227
 Alpha virt. eigenvalues --   -0.08661   0.01571   0.04269   0.08530   0.08927
 Alpha virt. eigenvalues --    0.14120   0.18201   0.22143   0.23133   0.27069
 Alpha virt. eigenvalues --    0.31226   0.33961   0.37659   0.41253   0.42755

 Mulliken charges:
               1
     1  N   -0.558751
     2  C    0.540664
     3  N   -0.392025
     4  C    0.285702
     5  O   -0.299287
     6  C    0.327469
     7  O   -0.264079
     8  O   -0.231943
     9  H    0.298761
    10  H    0.293490
 Sum of Mulliken charges =  -0.00000

 Dipole moment (field-independent basis, Debye):
    X=             -6.6009    Y=             -1.4383    Z=              0.0061  Tot=              6.7558
 Quadrupole moment (field-independent basis, Debye-Ang):
   XX=            -35.7032   YY=            -50.5431   ZZ=            -41.7346
   XY=             -0.0841   XZ=             -0.0220   YZ=              0.0009

  Exact polarizability:  78.815   3.081  51.092   0.000   0.001  26.443
 Approx polarizability: 133.322  11.590  86.349   0.014   0.004  41.972

                      1                      2                      3
                      A                      A                      A
 Frequencies --    158.5829               180.9238               266.6727
 Red. masses --     10.2986                 7.0356                 1.2230
 Frc consts  --      0.1526                 0.1357                 0.0512
 IR Inten    --      0.0623                 1.4412               201.0902

                      4                      5                      6
                      A                      A                      A
 Frequencies --    325.9151               342.8764               455.0281
 Red. masses --     14.7058                 3.2666                11.0915
 Frc consts  --      0.9203                 0.2263                 1.3531
 IR Inten    --      3.4736                 1.0115                35.3631

                      7                      8                      9
                      A                      A                      A
 Frequencies --    565.2053               624.1494               655.5558
 Red. masses --      1.0663                10.0403                 6.9116
 Frc consts  --      0.2007                 2.3045                 1.7500
 IR Inten    --      2.2720                 0.2297                 5.7513

                     10                     11                     12
                      A                      A                      A
 Frequencies --    660.7222               765.4899               773.9141
 Red. masses --      7.7356                11.3658                12.8952
 Frc consts  --      1.9897                 3.9240                 4.5505
 IR Inten    --      6.6312                14.4410                 5.9733

                     13                     14                     15
                      A                      A                      A
 Frequencies --    826.0115               893.7237              1027.8469
 Red. masses --     11.4313                11.4208                 2.4132
 Frc consts  --      4.5954                 5.3747                 1.5021
 IR Inten    --      0.7057                86.3970                29.5978

                     16                     17                     18
                      A                      A                      A
 Frequencies --   1128.4266              1232.6229              1443.0681
 Red. masses --      3.9518                 9.8772                 4.1000
 Frc consts  --      2.9648                 8.8418                 5.0304
 IR Inten    --     17.6170               222.9618               213.8993

                     19                     20                     21
                      A                      A                      A
 Frequencies --   1586.8536              1704.1982              1872.3982
 Red. masses --      1.4355                 5.0711                12.5822
 Frc consts  --      2.1298                 8.6774                25.9898
 IR Inten    --     66.7475              1095.6318                94.7998

                     22                     23                     24
                      A                      A                      A
 Frequencies --   1952.9127              3616.5850              3751.1784
 Red. masses --     13.0878                 1.0447                 1.1064
 Frc consts  --     29.4091                 8.0507                 9.1725
 IR Inten    --    180.9039               155.1979                92.6815

 - Thermochemistry -
 -------------------
 Temperature   298.150 Kelvin.  Pressure   1.00000 Atm.
 Atom     1 has atomic number  7 and mass  14.00307

 Molecular mass:   114.00654 amu.
 Principal axes and moments of inertia in atomic units:
                           1         2         3
     Eigenvalues --   463.08307 884.265381347.34834
           X            1.00000  -0.00052  -0.00004
           Y            0.00052   1.00000   0.00000
           Z            0.00004  -0.00000   1.00000
 This molecule is an asymmetric top.
 Rotational symmetry number  1.
 Warning -- assumption of classical behavior for rotation
           may cause significant error
 Rotational temperatures (Kelvin)      0.18704     0.09795     0.06428
 Rotational constants (GHZ):           3.89723     2.04095     1.33948
 Zero-point vibrational energy     160364.6 (Joules/Mol)
                                   38.32805 (Kcal/Mol)
 Warning -- explicit consideration of   7 degrees of freedom as
           vibrations may cause significant error
 Vibrational temperatures:    228.17   260.31   383.68   468.92   493.32
          (Kelvin)            654.68   813.20   898.01   943.20   950.63
                             1101.37  1113.49  1188.45  1285.87  1478.84
                             1623.55  1773.47  2076.25  2283.13  2451.96
                             2693.96  2809.81  5203.46  5397.11

 Zero-point correction=                           0.061080 (Hartree/Particle)
 Thermal correction to Energy=                    0.067587
 Thermal correction to Enthalpy=                  0.068531
 Thermal correction to Gibbs Free Energy=         0.030368
 Sum of electronic and zero-point Energies=           -450.673626
 Sum of electronic and thermal Energies=              -450.667119
 Sum of electronic and thermal Enthalpies=            -450.666175
 Sum of electronic and thermal Free Energies=         -450.704338

                     E (Thermal)             CV                S
                      KCal/Mol        Cal/Mol-Kelvin    Cal/Mol-Kelvin
 Total                   42.411             23.454             80.322
 Electronic               0.000              0.000              0.000
 Translational            0.889              2.981             40.109
 Rotational               0.889              2.981             27.803
 Vibrational             40.634             17.493             12.410
 Vibration     1          0.621              1.893              2.567
 Vibration     2          0.630              1.866              2.319
 Vibration     3          0.672              1.734              1.618
 Vibration     4          0.710              1.624              1.280
 Vibration     5          0.722              1.590              1.199
 Vibration     6          0.813              1.350              0.781
 Vibration     7          0.921              1.107              0.514

                           ! Non-Optimized Parameters !
 Normal termination of Gaussian 16 at Sun Jul  3 12:03:33 2022.
