 Gaussian 16, Revision A.03,
 Gaussian 16:  ES64L-G16RevA.03 25-Dec-2016

 -----------------------------
 # opt freq b3lyp/6-31g(2df,p)
 -----------------------------

 -------------------
 Title Card Required
 -------------------
 Symbolic Z-matrix:
 Charge =  0 Multiplicity = 1

 SCF Done:  E(RB3LYP) =  -450.297113680     A.U. after   13 cycles
 SCF Done:  E(RB3LYP) =  -450.300771607     A.U. after   12 cycles
 SCF Done:  E(RB3LYP) =  -450.301180346     A.U. after   11 cycles
 SCF Done:  E(RB3LYP) =  -450.301269606     A.U. after   11 cycles
 SCF Done:  E(RB3LYP) =  -450.301379364     A.U. after   10 cycles
 SCF Done:  E(RB3LYP) =  -450.301465801     A.U. after   11 cycles
 SCF Done:  E(RB3LYP) =  -450.301491377     A.U. after   11 cycles
 SCF Done:  E(RB3LYP) =  -450.301523635     A.U. after   10 cycles
 SCF Done:  E(RB3LYP) =  -450.301528533     A.U. after    9 cycles
 SCF Done:  E(RB3LYP) =  -450.301530005     A.U. after    9 cycles
 SCF Done:  E(RB3LYP) =  -450.301530610     A.U. after    8 cycles
 SCF Done:  E(RB3LYP) =  -450.301530854     A.U. after    8 cycles
 Optimization completed.
    -- Stationary point found.
 Normal termination of Gaussian 16 at Thu Aug  4 12:47:03 2022.

 ----------------------------------------------------------------------
 #N Geom=AllCheck Guess=TCheck SCRF=Check GenChk RB3LYP/6-31G(2df,p) Fr
 eq
 ----------------------------------------------------------------------

 Structure from the checkpoint file:  "NCc1ncncpOpn1.chk"
 -------------------
 Title Card Required
 -------------------
 Charge =  0 Multiplicity = 1

                         Standard orientation:
 ---------------------------------------------------------------------
 Center     Atomic      Atomic             Coordinates (Angstroms)
 Number     Number       Type             X           Y           Z
 ---------------------------------------------------------------------
      1          7           0        3.082491   -0.027325   -0.336786
      2          6           0        2.014757   -0.873964    0.178329
      3          6           0        0.668920   -0.202901    0.077993
      4          7           0        0.633669    1.136450    0.094248
      5          6           0       -0.589205    1.658409    0.035520
      6          7           0       -1.729150    0.978874   -0.028830
      7          6           0       -1.560616   -0.350226   -0.026033
      8          8           0       -2.656417   -1.104977   -0.080458
      9          7           0       -0.402112   -0.997133    0.022205
     10          1           0        3.981417   -0.368331   -0.014946
     11          1           0        2.959772    0.913377    0.024415
     12          1           0        2.124266   -1.164109    1.241577
     13          1           0        1.962902   -1.812334   -0.383473
     14          1           0       -0.666176    2.743693    0.041523
     15          1           0       -3.408272   -0.496442   -0.116145
 ---------------------------------------------------------------------

 SCF Done:  E(RB3LYP) =  -450.301530854     A.U. after    1 cycles

 The electronic state is 1-A.
 Alpha  occ. eigenvalues --  -19.19756 -14.34574 -14.33939 -14.33832 -14.30673
 Alpha  occ. eigenvalues --  -10.32409 -10.27684 -10.27410 -10.21709  -1.11016
 Alpha  occ. eigenvalues --   -1.01814  -0.91636  -0.89962  -0.87243  -0.72694
 Alpha  occ. eigenvalues --   -0.68196  -0.64414  -0.57955  -0.54622  -0.50293
 Alpha  occ. eigenvalues --   -0.48547  -0.46382  -0.45276  -0.41659  -0.40734
 Alpha  occ. eigenvalues --   -0.39107  -0.38225  -0.37702  -0.32533  -0.29101
 Alpha  occ. eigenvalues --   -0.28139  -0.27192  -0.23571
 Alpha virt. eigenvalues --   -0.04774  -0.02601   0.07622   0.09306   0.12099
 Alpha virt. eigenvalues --    0.13277   0.13894   0.16904   0.17514   0.20045
 Alpha virt. eigenvalues --    0.22591   0.24595   0.25055   0.27266   0.29943

 Mulliken charges:
               1
     1  N   -0.514241
     2  C   -0.235015
     3  C    0.385865
     4  N   -0.299597
     5  C    0.080279
     6  N   -0.343915
     7  C    0.451636
     8  O   -0.377765
     9  N   -0.311118
    10  H    0.228553
    11  H    0.242597
    12  H    0.112115
    13  H    0.135577
    14  H    0.133389
    15  H    0.311642
 Sum of Mulliken charges =  -0.00000

 Dipole moment (field-independent basis, Debye):
    X=             -0.3572    Y=              0.8810    Z=              1.2246  Tot=              1.5503
 Quadrupole moment (field-independent basis, Debye-Ang):
   XX=            -42.3836   YY=            -52.6616   ZZ=            -51.9714
   XY=             -3.1439   XZ=              4.3918   YZ=              0.0442

  Exact polarizability:  95.627  -0.695  72.983   2.030  -0.584  39.582
 Approx polarizability: 140.700   3.567 124.366   3.508  -0.347  63.482

                      1                      2                      3
                      A                      A                      A
 Frequencies --     59.2750               166.1524               194.5427
 Red. masses --      3.0011                 4.3747                 5.3220
 Frc consts  --      0.0062                 0.0712                 0.1187
 IR Inten    --      1.7198                 4.7416                 3.2186

                      4                      5                      6
                      A                      A                      A
 Frequencies --    206.5243               250.7019               372.0720
 Red. masses --      1.5272                 2.1718                 5.0389
 Frc consts  --      0.0384                 0.0804                 0.4110
 IR Inten    --     32.8833                25.3530                 5.5786

                      7                      8                      9
                      A                      A                      A
 Frequencies --    447.9985               505.3620               586.6370
 Red. masses --      2.9554                 4.8050                 2.9020
 Frc consts  --      0.3495                 0.7230                 0.5884
 IR Inten    --      1.1684                 7.4705                19.1618

                     10                     11                     12
                      A                      A                      A
 Frequencies --    596.6831               616.3395               697.9970
 Red. masses --      1.5711                 3.4053                 4.3450
 Frc consts  --      0.3296                 0.7622                 1.2472
 IR Inten    --     63.7287                18.7702                 4.4032

                     13                     14                     15
                      A                      A                      A
 Frequencies --    811.0746               843.5736               862.5732
 Red. masses --      5.7301                 3.7331                 1.5822
 Frc consts  --      2.2209                 1.5652                 0.6936
 IR Inten    --     10.5077                 7.7788               173.3928

                     16                     17                     18
                      A                      A                      A
 Frequencies --    985.2490              1003.3074              1010.6716
 Red. masses --      6.2212                 2.9587                 3.4833
 Frc consts  --      3.5581                 1.7547                 2.0963
 IR Inten    --     40.4728                 7.9161                21.9448

                     19                     20                     21
                      A                      A                      A
 Frequencies --   1035.2054              1104.6435              1180.3021
 Red. masses --      1.7997                 1.9151                 1.4390
 Frc consts  --      1.1363                 1.3768                 1.1811
 IR Inten    --      6.7244                 0.4774                36.9639

                     22                     23                     24
                      A                      A                      A
 Frequencies --   1195.1590              1261.2817              1279.9881
 Red. masses --      2.7864                 1.4190                 2.1698
 Frc consts  --      2.3450                 1.3301                 2.0945
 IR Inten    --     26.6782                 4.5835                59.6056

                     25                     26                     27
                      A                      A                      A
 Frequencies --   1308.9768              1374.2544              1405.6808
 Red. masses --      2.5042                 2.2755                 1.5733
 Frc consts  --      2.5281                 2.5320                 1.8317
 IR Inten    --     13.9506               134.6498                61.9375

                     28                     29                     30
                      A                      A                      A
 Frequencies --   1467.6935              1493.9440              1508.3361
 Red. masses --      2.1998                 1.2250                 4.9497
 Frc consts  --      2.7919                 1.6109                 6.6348
 IR Inten    --    116.1587                43.3742               151.3418

                     31                     32                     33
                      A                      A                      A
 Frequencies --   1589.4929              1638.6567              1642.5856
 Red. masses --      6.4100                 4.7283                 1.1748
 Frc consts  --      9.5417                 7.4806                 1.8675
 IR Inten    --    363.9769               372.3809                 5.3618

                     34                     35                     36
                      A                      A                      A
 Frequencies --   2914.9240              3070.1725              3161.4352
 Red. masses --      1.0735                 1.0847                 1.0915
 Frc consts  --      5.3742                 6.0242                 6.4275
 IR Inten    --     48.6921                13.8202                22.8145

                     37                     38                     39
                      A                      A                      A
 Frequencies --   3507.3409              3592.2143              3769.1406
 Red. masses --      1.0488                 1.0929                 1.0641
 Frc consts  --      7.6018                 8.3093                 8.9067
 IR Inten    --      3.9849                 5.3412                96.9234

 - Thermochemistry -
 -------------------
 Temperature   298.150 Kelvin.  Pressure   1.00000 Atm.
 Atom     1 has atomic number  7 and mass  14.00307

 Molecular mass:   126.05416 amu.
 Principal axes and moments of inertia in atomic units:
                           1         2         3
     Eigenvalues --   451.828451543.650001966.83509
           X            0.99986  -0.01594   0.00547
           Y            0.01597   0.99986  -0.00484
           Z           -0.00539   0.00493   0.99997
 This molecule is an asymmetric top.
 Rotational symmetry number  1.
 Warning -- assumption of classical behavior for rotation
           may cause significant error
 Rotational temperatures (Kelvin)      0.19170     0.05611     0.04404
 Rotational constants (GHZ):           3.99431     1.16914     0.91759
 Zero-point vibrational energy     303362.0 (Joules/Mol)
                                   72.50525 (Kcal/Mol)
 Warning -- explicit consideration of  11 degrees of freedom as
           vibrations may cause significant error
 Vibrational temperatures:     85.28   239.06   279.90   297.14   360.70
          (Kelvin)            535.33   644.57   727.10   844.04   858.49
                              886.78  1004.26  1166.96  1213.71  1241.05
                             1417.55  1443.54  1454.13  1489.43  1589.34
                             1698.19  1719.57  1814.70  1841.62  1883.33
                             1977.25  2022.46  2111.68  2149.45  2170.16
                             2286.93  2357.66  2363.31  4193.93  4417.29
                             4548.60  5046.28  5168.40  5422.95

 Zero-point correction=                           0.115544 (Hartree/Particle)
 Thermal correction to Energy=                    0.123313
 Thermal correction to Enthalpy=                  0.124258
 Thermal correction to Gibbs Free Energy=         0.082700
 Sum of electronic and zero-point Energies=           -450.185986
 Sum of electronic and thermal Energies=              -450.178217
 Sum of electronic and thermal Enthalpies=            -450.177273
 Sum of electronic and thermal Free Energies=         -450.218831

                     E (Thermal)             CV                S
                      KCal/Mol        Cal/Mol-Kelvin    Cal/Mol-Kelvin
 Total                   77.380             28.333             87.466
 Electronic               0.000              0.000              0.000
 Translational            0.889              2.981             40.408
 Rotational               0.889              2.981             28.708
 Vibrational             75.603             22.371             18.350
 Vibration     1          0.597              1.974              4.481
 Vibration     2          0.624              1.884              2.479
 Vibration     3          0.635              1.847              2.184
 Vibration     4          0.641              1.831              2.074
 Vibration     5          0.663              1.762              1.726
 Vibration     6          0.744              1.530              1.071
 Vibration     7          0.807              1.365              0.802
 Vibration     8          0.861              1.238              0.645
 Vibration     9          0.944              1.060              0.473
 Vibration    10          0.955              1.039              0.455
 Vibration    11          0.976              0.997              0.422

 Optimization completed.
    -- Stationary point found.
 Normal termination of Gaussian 16 at Thu Aug  4 13:09:00 2022.
