 Gaussian 16, Revision A.03,
 Gaussian 16:  ES64L-G16RevA.03 25-Dec-2016

 -----------------------------
 # opt freq b3lyp/6-31g(2df,p)
 -----------------------------

 -------------------
 Title Card Required
 -------------------
 Symbolic Z-matrix:
 Charge =  0 Multiplicity = 1

 SCF Done:  E(RB3LYP) =  -434.101435586     A.U. after   16 cycles
 SCF Done:  E(RB3LYP) =  -434.107604185     A.U. after   13 cycles
 SCF Done:  E(RB3LYP) =  -434.107907505     A.U. after   12 cycles
 SCF Done:  E(RB3LYP) =  -434.108071554     A.U. after   12 cycles
 SCF Done:  E(RB3LYP) =  -434.108699604     A.U. after   13 cycles
 SCF Done:  E(RB3LYP) =  -434.057597245     A.U. after   17 cycles
 SCF Done:  E(RB3LYP) =  -434.113007103     A.U. after   14 cycles
 SCF Done:  E(RB3LYP) =  -434.116157701     A.U. after   14 cycles
 SCF Done:  E(RB3LYP) =  -434.117277024     A.U. after   13 cycles
 SCF Done:  E(RB3LYP) =  -434.119432319     A.U. after   14 cycles
 SCF Done:  E(RB3LYP) =  -434.122374088     A.U. after   12 cycles
 SCF Done:  E(RB3LYP) =  -434.122606900     A.U. after   12 cycles
 SCF Done:  E(RB3LYP) =  -434.122673625     A.U. after   11 cycles
 SCF Done:  E(RB3LYP) =  -434.122706512     A.U. after   11 cycles
 SCF Done:  E(RB3LYP) =  -434.122726808     A.U. after   10 cycles
 SCF Done:  E(RB3LYP) =  -434.122735619     A.U. after   10 cycles
 SCF Done:  E(RB3LYP) =  -434.122739272     A.U. after    9 cycles
 SCF Done:  E(RB3LYP) =  -434.122740865     A.U. after    8 cycles
 SCF Done:  E(RB3LYP) =  -434.122741032     A.U. after    7 cycles
 Optimization completed.
    -- Stationary point found.
 Normal termination of Gaussian 16 at Thu Aug  4 02:04:21 2022.

 ----------------------------------------------------------------------
 #N Geom=AllCheck Guess=TCheck SCRF=Check GenChk RB3LYP/6-31G(2df,p) Fr
 eq
 ----------------------------------------------------------------------

 Structure from the checkpoint file:  "NCC1dNCdCONdC1.chk"
 -------------------
 Title Card Required
 -------------------
 Charge =  0 Multiplicity = 1

                         Standard orientation:
 ---------------------------------------------------------------------
 Center     Atomic      Atomic             Coordinates (Angstroms)
 Number     Number       Type             X           Y           Z
 ---------------------------------------------------------------------
      1          7           0        2.915783    0.485402   -0.450228
      2          6           0        2.089968   -0.625892   -0.018241
      3          6           0        0.641822   -0.221643    0.146477
      4          7           0        0.344825    1.028096    0.236289
      5          6           0       -0.955695    1.470292    0.386332
      6          6           0       -2.040875    0.845964   -0.105654
      7          8           0       -1.924717   -0.329489   -0.799497
      8          7           0       -1.553825   -1.380903    0.143172
      9          6           0       -0.312251   -1.308334    0.430375
     10          1           0        3.878328    0.349338   -0.166319
     11          1           0        2.569315    1.337511   -0.020772
     12          1           0        2.400067   -1.083788    0.942255
     13          1           0        2.135562   -1.442287   -0.755328
     14          1           0       -1.067561    2.442111    0.856126
     15          1           0       -3.039672    1.272053   -0.060439
     16          1           0        0.036397   -2.129509    1.060086
 ---------------------------------------------------------------------

 SCF Done:  E(RB3LYP) =  -434.122741032     A.U. after    1 cycles

 The electronic state is 1-A.
 Alpha  occ. eigenvalues --  -19.18565 -14.39872 -14.34923 -14.30932 -10.25506
 Alpha  occ. eigenvalues --  -10.24695 -10.24650 -10.22584 -10.22073  -1.09087
 Alpha  occ. eigenvalues --   -0.95301  -0.89395  -0.88151  -0.76122  -0.72467
 Alpha  occ. eigenvalues --   -0.64666  -0.59831  -0.56890  -0.52808  -0.49892
 Alpha  occ. eigenvalues --   -0.47175  -0.47018  -0.45459  -0.44098  -0.42661
 Alpha  occ. eigenvalues --   -0.39320  -0.36600  -0.35006  -0.32267  -0.29310
 Alpha  occ. eigenvalues --   -0.27640  -0.24177  -0.22790
 Alpha virt. eigenvalues --   -0.07207  -0.00731   0.03997   0.07801   0.09789
 Alpha virt. eigenvalues --    0.11970   0.12435   0.14632   0.15452   0.16305
 Alpha virt. eigenvalues --    0.17596   0.19609   0.23166   0.23589   0.30645

 Mulliken charges:
               1
     1  N   -0.512195
     2  C   -0.230611
     3  C    0.304336
     4  N   -0.282055
     5  C   -0.029154
     6  C    0.018109
     7  O   -0.250375
     8  N   -0.108473
     9  C    0.006487
    10  H    0.228957
    11  H    0.243388
    12  H    0.103585
    13  H    0.126048
    14  H    0.120304
    15  H    0.121971
    16  H    0.139676
 Sum of Mulliken charges =  -0.00000

 Dipole moment (field-independent basis, Debye):
    X=              1.5740    Y=              0.1000    Z=              2.3308  Tot=              2.8143
 Quadrupole moment (field-independent basis, Debye-Ang):
   XX=            -48.8750   YY=            -49.4136   ZZ=            -54.1309
   XY=             -7.4702   XZ=              2.5727   YZ=              0.5400

  Exact polarizability: 102.358  -8.591  80.599   4.043  -0.179  46.548
 Approx polarizability: 159.932 -10.180 137.798  14.190   1.092  78.235

                      1                      2                      3
                      A                      A                      A
 Frequencies --     86.9801               140.0132               185.7870
 Red. masses --      3.4720                 3.1146                 1.0725
 Frc consts  --      0.0155                 0.0360                 0.0218
 IR Inten    --      1.5291                 1.8283                53.6548

                      4                      5                      6
                      A                      A                      A
 Frequencies --    210.8230               269.0470               291.8558
 Red. masses --      3.7459                 4.7155                 5.6015
 Frc consts  --      0.0981                 0.2011                 0.2811
 IR Inten    --      7.5737                 6.7634                 1.5273

                      7                      8                      9
                      A                      A                      A
 Frequencies --    372.2662               441.4485               492.9258
 Red. masses --      4.3804                 5.2506                 5.8693
 Frc consts  --      0.3577                 0.6029                 0.8402
 IR Inten    --      5.6379                 1.4936                 2.4624

                     10                     11                     12
                      A                      A                      A
 Frequencies --    516.0208               646.5317               716.6680
 Red. masses --      3.4785                 3.4617                 4.3907
 Frc consts  --      0.5457                 0.8525                 1.3287
 IR Inten    --      6.2186                 1.8308                 1.8166

                     13                     14                     15
                      A                      A                      A
 Frequencies --    783.5583               830.9606               839.8313
 Red. masses --      2.5423                 1.8275                 1.6669
 Frc consts  --      0.9196                 0.7435                 0.6927
 IR Inten    --     41.3901                71.8716                79.0097

                     16                     17                     18
                      A                      A                      A
 Frequencies --    849.2458               915.1603               920.4124
 Red. masses --      4.9884                 2.0677                 1.6395
 Frc consts  --      2.1197                 1.0203                 0.8183
 IR Inten    --     16.0395                17.3814                 3.6844

                     19                     20                     21
                      A                      A                      A
 Frequencies --    935.4470              1010.8798              1032.2169
 Red. masses --      1.6104                 2.5138                 3.9485
 Frc consts  --      0.8303                 1.5135                 2.4787
 IR Inten    --      4.2848                30.7493                26.8666

                     22                     23                     24
                      A                      A                      A
 Frequencies --   1101.2697              1138.1062              1175.3911
 Red. masses --      2.7777                 2.2840                 2.0857
 Frc consts  --      1.9848                 1.7430                 1.6977
 IR Inten    --     12.6560                23.6962                16.3174

                     25                     26                     27
                      A                      A                      A
 Frequencies --   1221.7522              1263.2206              1274.0975
 Red. masses --      1.2535                 1.4092                 1.3389
 Frc consts  --      1.1024                 1.3249                 1.2806
 IR Inten    --      9.7421                 1.1433                 4.9601

                     28                     29                     30
                      A                      A                      A
 Frequencies --   1312.0556              1409.5786              1431.2568
 Red. masses --      1.4175                 1.4792                 1.5857
 Frc consts  --      1.4377                 1.7317                 1.9138
 IR Inten    --     14.3871                 2.6771                 2.4928

                     31                     32                     33
                      A                      A                      A
 Frequencies --   1495.0976              1597.6188              1634.5083
 Red. masses --      1.0961                 7.0442                 1.1929
 Frc consts  --      1.4436                10.5932                 1.8776
 IR Inten    --      8.9976                 5.0753                41.1828

                     34                     35                     36
                      A                      A                      A
 Frequencies --   1652.0620              1697.5177              2902.3427
 Red. masses --      4.5464                 8.0850                 1.0751
 Frc consts  --      7.3109                13.7265                 5.3359
 IR Inten    --     35.8208                17.2761                53.3846

                     37                     38                     39
                      A                      A                      A
 Frequencies --   2996.1873              3119.6781              3162.3193
 Red. masses --      1.0815                 1.0866                 1.0860
 Frc consts  --      5.7202                 6.2307                 6.3988
 IR Inten    --     25.7273                 6.4892                 4.7996

                     40                     41                     42
                      A                      A                      A
 Frequencies --   3190.6601              3510.0063              3600.6095
 Red. masses --      1.0966                 1.0491                 1.0928
 Frc consts  --      6.5774                 7.6154                 8.3475
 IR Inten    --     27.2694                 6.4007                 8.6347

 - Thermochemistry -
 -------------------
 Temperature   298.150 Kelvin.  Pressure   1.00000 Atm.
 Atom     1 has atomic number  7 and mass  14.00307

 Molecular mass:   125.05891 amu.
 Principal axes and moments of inertia in atomic units:
                           1         2         3
     Eigenvalues --   521.315481420.040191785.05188
           X            0.99957  -0.02923  -0.00171
           Y            0.02922   0.99957  -0.00228
           Z            0.00178   0.00223   1.00000
 This molecule is an asymmetric top.
 Rotational symmetry number  1.
 Warning -- assumption of classical behavior for rotation
           may cause significant error
 Rotational temperatures (Kelvin)      0.16614     0.06099     0.04852
 Rotational constants (GHZ):           3.46190     1.27091     1.01103
 Zero-point vibrational energy     325225.2 (Joules/Mol)
                                   77.73070 (Kcal/Mol)
 Warning -- explicit consideration of  10 degrees of freedom as
           vibrations may cause significant error
 Vibrational temperatures:    125.15   201.45   267.31   303.33   387.10
          (Kelvin)            419.92   535.61   635.15   709.21   742.44
                              930.21  1031.13  1127.37  1195.57  1208.33
                             1221.88  1316.71  1324.27  1345.90  1454.43
                             1485.13  1584.48  1637.48  1691.13  1757.83
                             1817.49  1833.14  1887.76  2028.07  2059.26
                             2151.11  2298.62  2351.69  2376.95  2442.35
                             4175.82  4310.85  4488.52  4549.87  4590.65
                             5050.12  5180.47

 Zero-point correction=                           0.123872 (Hartree/Particle)
 Thermal correction to Energy=                    0.132084
 Thermal correction to Enthalpy=                  0.133028
 Thermal correction to Gibbs Free Energy=         0.090992
 Sum of electronic and zero-point Energies=           -433.998869
 Sum of electronic and thermal Energies=              -433.990657
 Sum of electronic and thermal Enthalpies=            -433.989713
 Sum of electronic and thermal Free Energies=         -434.031749

                     E (Thermal)             CV                S
                      KCal/Mol        Cal/Mol-Kelvin    Cal/Mol-Kelvin
 Total                   82.884             30.477             88.472
 Electronic               0.000              0.000              0.000
 Translational            0.889              2.981             40.385
 Rotational               0.889              2.981             28.671
 Vibrational             81.106             24.516             19.416
 Vibration     1          0.601              1.958              3.727
 Vibration     2          0.615              1.913              2.804
 Vibration     3          0.632              1.859              2.269
 Vibration     4          0.643              1.824              2.037
 Vibration     5          0.673              1.730              1.602
 Vibration     6          0.687              1.689              1.463
 Vibration     7          0.744              1.529              1.070
 Vibration     8          0.801              1.380              0.822
 Vibration     9          0.849              1.266              0.676
 Vibration    10          0.871              1.215              0.619

 Optimization completed.
    -- Stationary point found.
 Normal termination of Gaussian 16 at Thu Aug  4 02:26:41 2022.
