 Gaussian 16, Revision A.03,
 Gaussian 16:  ES64L-G16RevA.03 25-Dec-2016

 -----------------------------
 # opt freq b3lyp/6-31g(2df,p)
 -----------------------------

 -------------------
 Title Card Required
 -------------------
 Symbolic Z-matrix:
 Charge =  0 Multiplicity = 1

 SCF Done:  E(RB3LYP) =  -380.986079986     A.U. after   18 cycles
 SCF Done:  E(RB3LYP) =  -381.045903133     A.U. after   15 cycles
 SCF Done:  E(RB3LYP) =  -381.104603749     A.U. after   14 cycles
 SCF Done:  E(RB3LYP) =  -381.133743829     A.U. after   13 cycles
 SCF Done:  E(RB3LYP) =  -381.153462215     A.U. after   13 cycles
 SCF Done:  E(RB3LYP) =  -381.176475132     A.U. after   13 cycles
 SCF Done:  E(RB3LYP) =  -381.192012907     A.U. after   12 cycles
 SCF Done:  E(RB3LYP) =  -381.203954788     A.U. after   11 cycles
 SCF Done:  E(RB3LYP) =  -381.211697964     A.U. after   11 cycles
 SCF Done:  E(RB3LYP) =  -381.217825101     A.U. after   11 cycles
 SCF Done:  E(RB3LYP) =  -381.218982938     A.U. after   11 cycles
 SCF Done:  E(RB3LYP) =  -381.219386170     A.U. after   10 cycles
 SCF Done:  E(RB3LYP) =  -381.219548035     A.U. after   10 cycles
 SCF Done:  E(RB3LYP) =  -381.219596111     A.U. after    9 cycles
 SCF Done:  E(RB3LYP) =  -381.219610686     A.U. after    9 cycles
 SCF Done:  E(RB3LYP) =  -381.219614744     A.U. after    7 cycles
 SCF Done:  E(RB3LYP) =  -381.219616433     A.U. after    7 cycles
 SCF Done:  E(RB3LYP) =  -381.219616879     A.U. after    7 cycles
 Optimization completed.
    -- Stationary point found.
 Normal termination of Gaussian 16 at Sun Jul  3 20:34:31 2022.

 ----------------------------------------------------------------------
 #N Geom=AllCheck Guess=TCheck SCRF=Check GenChk RB3LYP/6-31G(2df,p) Fr
 eq
 ----------------------------------------------------------------------

 Structure from the checkpoint file:  "NCC1CC2NC12O.chk"
 -------------------
 Title Card Required
 -------------------
 Charge =  0 Multiplicity = 1

                         Standard orientation:
 ---------------------------------------------------------------------
 Center     Atomic      Atomic             Coordinates (Angstroms)
 Number     Number       Type             X           Y           Z
 ---------------------------------------------------------------------
      1          7           0        2.154500    0.134476    0.777193
      2          6           0        1.642900    0.684162   -0.490061
      3          6           0        0.287379    0.086506   -0.874825
      4          6           0        0.007237   -1.455288   -0.722934
      5          6           0       -1.218619   -1.127059    0.142661
      6          7           0       -0.837864   -0.307469    1.303615
      7          6           0       -0.934474    0.348159    0.035873
      8          8           0       -1.728126    1.472087   -0.032347
      9          1           0        2.855053    0.755100    1.168366
     10          1           0        2.621894   -0.750869    0.609999
     11          1           0        2.350358    0.559857   -1.326545
     12          1           0        1.509711    1.764290   -0.354585
     13          1           0        0.056581    0.395335   -1.902074
     14          1           0        0.782104   -2.042385   -0.219148
     15          1           0       -0.231183   -1.938266   -1.674151
     16          1           0       -2.152054   -1.674567    0.192539
     17          1           0        0.130289   -0.429751    1.598764
     18          1           0       -2.020728    1.576630   -0.944330
 ---------------------------------------------------------------------

 SCF Done:  E(RB3LYP) =  -381.219616879     A.U. after    1 cycles

 The electronic state is 1-A.
 Alpha  occ. eigenvalues --  -19.14297 -14.32010 -14.30435 -10.24847 -10.21128
 Alpha  occ. eigenvalues --  -10.19824 -10.18973 -10.18485  -1.03696  -0.94878
 Alpha  occ. eigenvalues --   -0.88526  -0.77410  -0.69243  -0.62213  -0.60285
 Alpha  occ. eigenvalues --   -0.55941  -0.50988  -0.50045  -0.48084  -0.44485
 Alpha  occ. eigenvalues --   -0.42880  -0.41459  -0.39953  -0.36703  -0.35954
 Alpha  occ. eigenvalues --   -0.33159  -0.32398  -0.28772  -0.26793  -0.23952
 Alpha  occ. eigenvalues --   -0.22573
 Alpha virt. eigenvalues --    0.06541   0.08223   0.11465   0.11737   0.12462
 Alpha virt. eigenvalues --    0.13602   0.14720   0.16487   0.17235   0.18223
 Alpha virt. eigenvalues --    0.19318   0.20436   0.20753   0.23290   0.25324

 Mulliken charges:
               1
     1  N   -0.502770
     2  C   -0.188533
     3  C   -0.050211
     4  C   -0.271544
     5  C   -0.124054
     6  N   -0.333545
     7  C    0.371096
     8  O   -0.439258
     9  H    0.234527
    10  H    0.231572
    11  H    0.084027
    12  H    0.116949
    13  H    0.063057
    14  H    0.091954
    15  H    0.100197
    16  H    0.092855
    17  H    0.241841
    18  H    0.281839
 Sum of Mulliken charges =  -0.00000

 Dipole moment (field-independent basis, Debye):
    X=              2.5920    Y=             -0.4949    Z=             -2.8831  Tot=              3.9084
 Quadrupole moment (field-independent basis, Debye-Ang):
   XX=            -42.9890   YY=            -47.3522   ZZ=            -49.4575
   XY=              1.1053   XZ=              6.5926   YZ=             -2.0454

  Exact polarizability:  70.527   1.693  68.325   1.046  -0.744  63.421
 Approx polarizability:  93.264  -0.007 103.304   1.756  -0.789  98.474

                      1                      2                      3
                      A                      A                      A
 Frequencies --    113.3088               169.1035               213.2000
 Red. masses --      3.1205                 2.8147                 2.4116
 Frc consts  --      0.0236                 0.0474                 0.0646
 IR Inten    --      0.4987                 0.6144                 6.2211

                      4                      5                      6
                      A                      A                      A
 Frequencies --    248.3674               286.5633               302.1437
 Red. masses --      1.2252                 1.8239                 1.3875
 Frc consts  --      0.0445                 0.0882                 0.0746
 IR Inten    --     11.5899                59.1263                63.7687

                      7                      8                      9
                      A                      A                      A
 Frequencies --    371.2233               442.5400               506.0009
 Red. masses --      3.4973                 3.1676                 2.8897
 Frc consts  --      0.2840                 0.3655                 0.4359
 IR Inten    --      5.1393                 5.9051                 4.4213

                     10                     11                     12
                      A                      A                      A
 Frequencies --    635.0863               660.3198               720.2808
 Red. masses --      2.9115                 5.7680                 3.1552
 Frc consts  --      0.6919                 1.4818                 0.9645
 IR Inten    --      6.8675                 4.7064                 2.7401

                     13                     14                     15
                      A                      A                      A
 Frequencies --    797.3346               839.1932               872.4714
 Red. masses --      2.7425                 1.9269                 2.7624
 Frc consts  --      1.0272                 0.7995                 1.2389
 IR Inten    --      2.7149                27.5394                80.6603

                     16                     17                     18
                      A                      A                      A
 Frequencies --    905.5656               930.8111               972.2456
 Red. masses --      1.6975                 2.1420                 1.8475
 Frc consts  --      0.8201                 1.0934                 1.0289
 IR Inten    --     16.6938                 5.3080                15.4761

                     19                     20                     21
                      A                      A                      A
 Frequencies --   1006.5041              1027.6496              1050.5027
 Red. masses --      1.6186                 1.7125                 2.8095
 Frc consts  --      0.9661                 1.0656                 1.8268
 IR Inten    --     13.2692                 0.8888                30.8821

                     22                     23                     24
                      A                      A                      A
 Frequencies --   1100.1279              1119.8824              1145.4166
 Red. masses --      1.1622                 2.5299                 1.7930
 Frc consts  --      0.8287                 1.8694                 1.3860
 IR Inten    --      8.4651                15.4119                 4.9332

                     25                     26                     27
                      A                      A                      A
 Frequencies --   1185.7479              1203.7619              1230.9026
 Red. masses --      1.1879                 1.5570                 1.5641
 Frc consts  --      0.9840                 1.3292                 1.3962
 IR Inten    --      2.8090                71.7139                 6.9370

                     28                     29                     30
                      A                      A                      A
 Frequencies --   1235.0749              1268.8897              1294.8721
 Red. masses --      1.4361                 1.3917                 1.4604
 Frc consts  --      1.2907                 1.3203                 1.4427
 IR Inten    --     34.1938                12.3073               126.8826

                     31                     32                     33
                      A                      A                      A
 Frequencies --   1328.7966              1333.2731              1369.9110
 Red. masses --      1.4501                 1.5543                 1.4888
 Frc consts  --      1.5086                 1.6279                 1.6462
 IR Inten    --     39.4437                61.0847                 5.7333

                     34                     35                     36
                      A                      A                      A
 Frequencies --   1418.0981              1469.2119              1492.6360
 Red. masses --      1.3666                 2.0390                 1.3796
 Frc consts  --      1.6192                 2.5932                 1.8110
 IR Inten    --     10.4820                29.8820                24.2392

                     37                     38                     39
                      A                      A                      A
 Frequencies --   1497.0124              1657.9446              2956.4195
 Red. masses --      1.0859                 1.0878                 1.0717
 Frc consts  --      1.4338                 1.7617                 5.5190
 IR Inten    --      2.8028                29.4379                72.0748

                     40                     41                     42
                      A                      A                      A
 Frequencies --   3027.4282              3045.6837              3052.3200
 Red. masses --      1.0846                 1.0602                 1.0896
 Frc consts  --      5.8571                 5.7942                 5.9810
 IR Inten    --     41.7160                45.4518                20.8304

                     43                     44                     45
                      A                      A                      A
 Frequencies --   3098.2816              3186.3922              3455.9196
 Red. masses --      1.1049                 1.0936                 1.0757
 Frc consts  --      6.2489                 6.5419                 7.5696
 IR Inten    --     32.5488                22.0444                49.3678

                     46                     47                     48
                      A                      A                      A
 Frequencies --   3503.6068              3580.5132              3804.4598
 Red. masses --      1.0496                 1.0926                 1.0656
 Frc consts  --      7.5913                 8.2527                 9.0870
 IR Inten    --      0.0672                 1.3377                22.5797

 - Thermochemistry -
 -------------------
 Temperature   298.150 Kelvin.  Pressure   1.00000 Atm.
 Atom     1 has atomic number  7 and mass  14.00307

 Molecular mass:   114.07931 amu.
 Principal axes and moments of inertia in atomic units:
                           1         2         3
     Eigenvalues --   595.018451003.582141138.49889
           X            0.99940   0.02886   0.01899
           Y           -0.02866   0.99954  -0.01033
           Z           -0.01928   0.00978   0.99977
 This molecule is an asymmetric top.
 Rotational symmetry number  1.
 Warning -- assumption of classical behavior for rotation
           may cause significant error
 Rotational temperatures (Kelvin)      0.14557     0.08630     0.07608
 Rotational constants (GHZ):           3.03308     1.79830     1.58519
 Zero-point vibrational energy     407525.8 (Joules/Mol)
                                   97.40101 (Kcal/Mol)
 Warning -- explicit consideration of   9 degrees of freedom as
           vibrations may cause significant error
 Vibrational temperatures:    163.03   243.30   306.75   357.35   412.30
          (Kelvin)            434.72   534.11   636.72   728.02   913.75
                              950.05  1036.32  1147.19  1207.41  1255.29
                             1302.91  1339.23  1398.84  1448.13  1478.56
                             1511.44  1582.84  1611.26  1648.00  1706.03
                             1731.94  1770.99  1777.00  1825.65  1863.03
                             1911.84  1918.28  1971.00  2040.33  2113.87
                             2147.57  2153.87  2385.41  4253.63  4355.79
                             4382.06  4391.61  4457.74  4584.51  4972.30
                             5040.91  5151.56  5473.77

 Zero-point correction=                           0.155218 (Hartree/Particle)
 Thermal correction to Energy=                    0.163117
 Thermal correction to Enthalpy=                  0.164061
 Thermal correction to Gibbs Free Energy=         0.123353
 Sum of electronic and zero-point Energies=           -381.064398
 Sum of electronic and thermal Energies=              -381.056500
 Sum of electronic and thermal Enthalpies=            -381.055555
 Sum of electronic and thermal Free Energies=         -381.096264

                     E (Thermal)             CV                S
                      KCal/Mol        Cal/Mol-Kelvin    Cal/Mol-Kelvin
 Total                  102.358             30.373             85.679
 Electronic               0.000              0.000              0.000
 Translational            0.889              2.981             40.111
 Rotational               0.889              2.981             28.010
 Vibrational            100.580             24.411             17.558
 Vibration     1          0.607              1.938              3.211
 Vibration     2          0.625              1.881              2.445
 Vibration     3          0.644              1.821              2.016
 Vibration     4          0.662              1.765              1.742
 Vibration     5          0.684              1.699              1.494
 Vibration     6          0.694              1.670              1.405
 Vibration     7          0.743              1.531              1.075
 Vibration     8          0.802              1.377              0.819
 Vibration     9          0.861              1.237              0.643

 Optimization completed.
    -- Stationary point found.
 Normal termination of Gaussian 16 at Sun Jul  3 20:59:25 2022.
