 Gaussian 16, Revision A.03,
 Gaussian 16:  ES64L-G16RevA.03 25-Dec-2016

 -----------------------------
 # opt freq b3lyp/6-31g(2df,p)
 -----------------------------

 -------------------
 Title Card Required
 -------------------
 Symbolic Z-matrix:
 Charge =  0 Multiplicity = 1

 SCF Done:  E(RB3LYP) =  -398.006187928     A.U. after   15 cycles
 SCF Done:  E(RB3LYP) =  -398.044908576     A.U. after   14 cycles
 SCF Done:  E(RB3LYP) =  -398.070431463     A.U. after   14 cycles
 SCF Done:  E(RB3LYP) =  -398.075079162     A.U. after   14 cycles
 SCF Done:  E(RB3LYP) =  -398.078315116     A.U. after   14 cycles
 SCF Done:  E(RB3LYP) =  -398.078994011     A.U. after   13 cycles
 SCF Done:  E(RB3LYP) =  -398.079203873     A.U. after   13 cycles
 SCF Done:  E(RB3LYP) =  -398.079313143     A.U. after   11 cycles
 SCF Done:  E(RB3LYP) =  -398.079369630     A.U. after   10 cycles
 SCF Done:  E(RB3LYP) =  -398.079495988     A.U. after   11 cycles
 SCF Done:  E(RB3LYP) =  -398.081350433     A.U. after   13 cycles
 SCF Done:  E(RB3LYP) =  -398.081493645     A.U. after   14 cycles
 SCF Done:  E(RB3LYP) =  -398.081589443     A.U. after   12 cycles
 SCF Done:  E(RB3LYP) =  -398.081675451     A.U. after   13 cycles
 SCF Done:  E(RB3LYP) =  -398.081688854     A.U. after   10 cycles
 SCF Done:  E(RB3LYP) =  -398.081692799     A.U. after   10 cycles
 SCF Done:  E(RB3LYP) =  -398.081693660     A.U. after    9 cycles
 SCF Done:  E(RB3LYP) =  -398.081694226     A.U. after    9 cycles
 SCF Done:  E(RB3LYP) =  -398.081694311     A.U. after    7 cycles
 Optimization completed.
    -- Stationary point found.
 Normal termination of Gaussian 16 at Sun Jul  3 14:05:31 2022.

 ----------------------------------------------------------------------
 #N Geom=AllCheck Guess=TCheck SCRF=Check GenChk RB3LYP/6-31G(2df,p) Fr
 eq
 ----------------------------------------------------------------------

 Structure from the checkpoint file:  "NCCC1dC2NCC2dN1.chk"
 -------------------
 Title Card Required
 -------------------
 Charge =  0 Multiplicity = 1

                         Standard orientation:
 ---------------------------------------------------------------------
 Center     Atomic      Atomic             Coordinates (Angstroms)
 Number     Number       Type             X           Y           Z
 ---------------------------------------------------------------------
      1          7           0       -3.856103    0.231073   -0.050547
      2          6           0       -2.530161   -0.135255    0.458143
      3          6           0       -1.439086    0.438458   -0.462032
      4          6           0       -0.071494    0.078330   -0.048890
      5          6           0        1.173760    0.538278    0.177028
      6          7           0        2.456895    1.145160    0.192259
      7          6           0        3.131392   -0.216391   -0.029101
      8          6           0        1.685364   -0.792108    0.075061
      9          7           0        0.641415   -1.508601   -0.154026
     10          1           0       -4.569923   -0.085543    0.598931
     11          1           0       -4.034514   -0.266088   -0.919549
     12          1           0       -2.365833   -1.219352    0.562686
     13          1           0       -2.415786    0.301188    1.456505
     14          1           0       -1.530534    1.531164   -0.502213
     15          1           0       -1.614864    0.068107   -1.485146
     16          1           0        2.690218    1.928005   -0.409863
     17          1           0        3.835757   -0.460538    0.769612
     18          1           0        3.611390   -0.338241   -1.006018
 ---------------------------------------------------------------------

 SCF Done:  E(RB3LYP) =  -398.081694311     A.U. after    1 cycles

 The electronic state is 1-A.
 Alpha  occ. eigenvalues --  -14.36653 -14.31868 -14.30397 -10.25235 -10.22337
 Alpha  occ. eigenvalues --  -10.22093 -10.20817 -10.20059 -10.18824  -0.97748
 Alpha  occ. eigenvalues --   -0.89550  -0.87404  -0.76274  -0.70890  -0.69153
 Alpha  occ. eigenvalues --   -0.62449  -0.58272  -0.49797  -0.48578  -0.47767
 Alpha  occ. eigenvalues --   -0.46427  -0.45031  -0.43140  -0.40939  -0.39124
 Alpha  occ. eigenvalues --   -0.37029  -0.34844  -0.34301  -0.33806  -0.29444
 Alpha  occ. eigenvalues --   -0.23373  -0.21790  -0.18611
 Alpha virt. eigenvalues --   -0.04293   0.02454   0.06911   0.08305   0.09423
 Alpha virt. eigenvalues --    0.10578   0.11656   0.13448   0.14000   0.15684
 Alpha virt. eigenvalues --    0.16588   0.17527   0.18530   0.19780   0.23062

 Mulliken charges:
               1
     1  N   -0.514070
     2  C   -0.139745
     3  C   -0.316967
     4  C    0.160336
     5  C    0.174498
     6  N   -0.430091
     7  C   -0.282653
     8  C    0.331102
     9  N   -0.409721
    10  H    0.226336
    11  H    0.223330
    12  H    0.107345
    13  H    0.107914
    14  H    0.119565
    15  H    0.113181
    16  H    0.243350
    17  H    0.145778
    18  H    0.140512
 Sum of Mulliken charges =   0.00000

 Dipole moment (field-independent basis, Debye):
    X=              1.5327    Y=              1.4241    Z=             -0.8304  Tot=              2.2509
 Quadrupole moment (field-independent basis, Debye-Ang):
   XX=            -40.3586   YY=            -57.1724   ZZ=            -52.0873
   XY=              6.3520   XZ=             -2.9845   YZ=             -2.1372

  Exact polarizability: 127.755   4.157  70.774   2.961   0.263  57.225
 Approx polarizability: 179.374  15.288 122.611  10.024   4.573  89.772

                      1                      2                      3
                      A                      A                      A
 Frequencies --     51.5632                71.4753                88.0640
 Red. masses --      3.5025                 4.1508                 2.0954
 Frc consts  --      0.0055                 0.0125                 0.0096
 IR Inten    --      5.0031                 4.7681                 4.9148

                      4                      5                      6
                      A                      A                      A
 Frequencies --    184.9165               242.6617               245.3236
 Red. masses --      3.3472                 2.7747                 1.1698
 Frc consts  --      0.0674                 0.0963                 0.0415
 IR Inten    --      5.1031                 4.2525                36.5026

                      7                      8                      9
                      A                      A                      A
 Frequencies --    272.0613               329.3107               392.1896
 Red. masses --      3.2531                 3.9850                 3.3709
 Frc consts  --      0.1419                 0.2546                 0.3055
 IR Inten    --      7.9221                 9.9215                 6.7064

                     10                     11                     12
                      A                      A                      A
 Frequencies --    492.1544               524.3212               544.8623
 Red. masses --      3.1123                 2.9138                 5.1609
 Frc consts  --      0.4442                 0.4720                 0.9027
 IR Inten    --    156.6243                83.3831                 1.6040

                     13                     14                     15
                      A                      A                      A
 Frequencies --    629.6755               731.6719               777.8690
 Red. masses --      3.1919                 3.1875                 2.6022
 Frc consts  --      0.7456                 1.0054                 0.9277
 IR Inten    --     33.1675                11.5173                38.1481

                     16                     17                     18
                      A                      A                      A
 Frequencies --    797.0894               871.9387               903.5460
 Red. masses --      1.8854                 1.3383                 4.1944
 Frc consts  --      0.7058                 0.5995                 2.0175
 IR Inten    --      8.5518               117.7385                 0.6154

                     19                     20                     21
                      A                      A                      A
 Frequencies --    906.8019               957.2850               963.1887
 Red. masses --      2.6179                 2.2305                 1.8650
 Frc consts  --      1.2683                 1.2043                 1.0194
 IR Inten    --      8.7988                 3.0166                 6.8591

                     22                     23                     24
                      A                      A                      A
 Frequencies --   1056.8376              1093.5003              1103.2588
 Red. masses --      2.6383                 1.9233                 2.2988
 Frc consts  --      1.7362                 1.3550                 1.6485
 IR Inten    --     19.6873                61.0698                41.6565

                     25                     26                     27
                      A                      A                      A
 Frequencies --   1122.7696              1150.8887              1239.4727
 Red. masses --      1.5261                 1.2137                 1.3071
 Frc consts  --      1.1335                 0.9471                 1.1831
 IR Inten    --     11.3286                 0.3017                 2.5381

                     28                     29                     30
                      A                      A                      A
 Frequencies --   1258.9806              1301.1113              1315.5908
 Red. masses --      1.3726                 1.5801                 1.1661
 Frc consts  --      1.2819                 1.5760                 1.1891
 IR Inten    --      2.9941                24.1547                 2.7424

                     31                     32                     33
                      A                      A                      A
 Frequencies --   1342.9881              1384.2631              1421.0117
 Red. masses --      1.3225                 3.6305                 1.4261
 Frc consts  --      1.4053                 4.0987                 1.6966
 IR Inten    --      0.9508                12.3253                11.9604

                     34                     35                     36
                      A                      A                      A
 Frequencies --   1442.6990              1476.4919              1515.5474
 Red. masses --      1.0892                 1.1122                 1.0863
 Frc consts  --      1.3357                 1.4285                 1.4701
 IR Inten    --      2.6872                 3.5109                 1.1488

                     37                     38                     39
                      A                      A                      A
 Frequencies --   1643.6234              1658.1612              1736.6949
 Red. masses --     11.2554                 1.0887                10.9392
 Frc consts  --     17.9150                 1.7637                19.4393
 IR Inten    --      6.9294                20.6720                85.6887

                     40                     41                     42
                      A                      A                      A
 Frequencies --   2976.0340              2977.8251              3044.4447
 Red. masses --      1.0654                 1.0714                 1.0566
 Frc consts  --      5.5596                 5.5973                 5.7703
 IR Inten    --     18.5572                48.8949                44.6522

                     43                     44                     45
                      A                      A                      A
 Frequencies --   3050.0143              3068.3691              3110.4226
 Red. masses --      1.0873                 1.0960                 1.1096
 Frc consts  --      5.9593                 6.0795                 6.3247
 IR Inten    --      9.5015                35.8688                15.6991

                     46                     47                     48
                      A                      A                      A
 Frequencies --   3482.1650              3525.6009              3559.9596
 Red. masses --      1.0499                 1.0770                 1.0913
 Frc consts  --      7.5009                 7.8876                 8.1485
 IR Inten    --      0.7422                 3.5197                 0.1052

 - Thermochemistry -
 -------------------
 Temperature   298.150 Kelvin.  Pressure   1.00000 Atm.
 Atom     1 has atomic number  7 and mass  14.00307

 Molecular mass:   123.07965 amu.
 Principal axes and moments of inertia in atomic units:
                           1         2         3
     Eigenvalues --   312.794602398.942272609.49608
           X            0.99998   0.00546  -0.00392
           Y           -0.00557   0.99955  -0.02952
           Z            0.00376   0.02954   0.99956
 This molecule is an asymmetric top.
 Rotational symmetry number  1.
 Rotational temperatures (Kelvin)      0.27690     0.03611     0.03319
 Rotational constants (GHZ):           5.76973     0.75231     0.69161
 Zero-point vibrational energy     383024.5 (Joules/Mol)
                                   91.54505 (Kcal/Mol)
 Warning -- explicit consideration of  12 degrees of freedom as
           vibrations may cause significant error
 Vibrational temperatures:     74.19   102.84   126.70   266.05   349.14
          (Kelvin)            352.97   391.44   473.80   564.27   708.10
                              754.38   783.94   905.96  1052.71  1119.18
                             1146.83  1254.53  1300.00  1304.69  1377.32
                             1385.81  1520.55  1573.30  1587.34  1615.42
                             1655.87  1783.32  1811.39  1872.01  1892.84
                             1932.26  1991.65  2044.52  2075.72  2124.34
                             2180.53  2364.81  2385.72  2498.72  4281.85
                             4284.43  4380.28  4388.29  4414.70  4475.20
                             5010.06  5072.55  5121.99

 Zero-point correction=                           0.145886 (Hartree/Particle)
 Thermal correction to Energy=                    0.155342
 Thermal correction to Enthalpy=                  0.156286
 Thermal correction to Gibbs Free Energy=         0.110785
 Sum of electronic and zero-point Energies=           -397.935808
 Sum of electronic and thermal Energies=              -397.926352
 Sum of electronic and thermal Enthalpies=            -397.925408
 Sum of electronic and thermal Free Energies=         -397.970909

                     E (Thermal)             CV                S
                      KCal/Mol        Cal/Mol-Kelvin    Cal/Mol-Kelvin
 Total                   97.478             33.890             95.765
 Electronic               0.000              0.000              0.000
 Translational            0.889              2.981             40.337
 Rotational               0.889              2.981             29.061
 Vibrational             95.701             27.928             26.367
 Vibration     1          0.596              1.977              4.757
 Vibration     2          0.598              1.968              4.112
 Vibration     3          0.601              1.958              3.703
 Vibration     4          0.631              1.860              2.278
 Vibration     5          0.659              1.775              1.783
 Vibration     6          0.660              1.771              1.764
 Vibration     7          0.675              1.725              1.583
 Vibration     8          0.712              1.617              1.263
 Vibration     9          0.760              1.487              0.992
 Vibration    10          0.848              1.267              0.678
 Vibration    11          0.879              1.196              0.600
 Vibration    12          0.900              1.151              0.555

                           ! Non-Optimized Parameters !
 Normal termination of Gaussian 16 at Sun Jul  3 14:29:40 2022.
