 Gaussian 16, Revision A.03,
 Gaussian 16:  ES64L-G16RevA.03 25-Dec-2016

 -----------------------------
 # opt freq b3lyp/6-31g(2df,p)
 -----------------------------

 -------------------
 Title Card Required
 -------------------
 Symbolic Z-matrix:
 Charge =  0 Multiplicity = 1

 SCF Done:  E(RB3LYP) =  -467.886159712     A.U. after   22 cycles
 SCF Done:  E(RB3LYP) =  -468.141449849     A.U. after   17 cycles
 SCF Done:  E(RB3LYP) =  -468.464129456     A.U. after   16 cycles
 SCF Done:  E(RB3LYP) =  -468.650818577     A.U. after   17 cycles
 SCF Done:  E(RB3LYP) =  -468.735262794     A.U. after   15 cycles
 SCF Done:  E(RB3LYP) =  -468.786527368     A.U. after   14 cycles
 SCF Done:  E(RB3LYP) =  -468.805714128     A.U. after   14 cycles
 SCF Done:  E(RB3LYP) =  -468.813946467     A.U. after   14 cycles
 SCF Done:  E(RB3LYP) =  -468.815522018     A.U. after   14 cycles
 SCF Done:  E(RB3LYP) =  -468.811381213     A.U. after   15 cycles
 SCF Done:  E(RB3LYP) =  -468.816267758     A.U. after   14 cycles
 SCF Done:  E(RB3LYP) =  -468.816506451     A.U. after   13 cycles
 SCF Done:  E(RB3LYP) =  -468.816599304     A.U. after   13 cycles
 SCF Done:  E(RB3LYP) =  -468.816609442     A.U. after   11 cycles
 SCF Done:  E(RB3LYP) =  -468.816615256     A.U. after   11 cycles
 SCF Done:  E(RB3LYP) =  -468.816618959     A.U. after    8 cycles
 SCF Done:  E(RB3LYP) =  -468.816621208     A.U. after   10 cycles
 Optimization completed.
    -- Stationary point found.
 Normal termination of Gaussian 16 at Thu Aug  4 07:51:28 2022.

 ----------------------------------------------------------------------
 #N Geom=AllCheck Guess=TCheck SCRF=Check GenChk RB3LYP/6-31G(2df,p) Fr
 eq
 ----------------------------------------------------------------------

 Structure from the checkpoint file:  "Ndc1cncncpdOpo1.chk"
 -------------------
 Title Card Required
 -------------------
 Charge =  0 Multiplicity = 1

                         Standard orientation:
 ---------------------------------------------------------------------
 Center     Atomic      Atomic             Coordinates (Angstroms)
 Number     Number       Type             X           Y           Z
 ---------------------------------------------------------------------
      1          7           0       -2.501817   -1.282817   -0.000100
      2          6           0       -1.542688   -0.457088    0.000120
      3          6           0       -1.600138    1.013526    0.000254
      4          7           0       -0.580171    1.800824   -0.000048
      5          6           0        0.664441    1.196682   -0.000020
      6          7           0        2.019355   -0.896216    0.000051
      7          6           0        0.791675   -0.147935    0.000023
      8          8           0        3.014991   -0.201472   -0.000085
      9          8           0       -0.264224   -0.982856    0.000044
     10          1           0       -3.394600   -0.792492   -0.000464
     11          1           0       -2.595230    1.456035   -0.000633
     12          1           0        1.542396    1.827427   -0.000142
 ---------------------------------------------------------------------

 SCF Done:  E(RB3LYP) =  -468.816621208     A.U. after    1 cycles

 The electronic state is 1-A.
 Alpha  occ. eigenvalues --  -19.23808 -19.21548 -14.46341 -14.38357 -14.33264
 Alpha  occ. eigenvalues --  -10.31458 -10.30610 -10.27845 -10.25916  -1.17638
 Alpha  occ. eigenvalues --   -1.14310  -0.98155  -0.93462  -0.83105  -0.75484
 Alpha  occ. eigenvalues --   -0.69501  -0.66704  -0.57983  -0.56246  -0.53237
 Alpha  occ. eigenvalues --   -0.51141  -0.50611  -0.46045  -0.44619  -0.44335
 Alpha  occ. eigenvalues --   -0.42067  -0.40083  -0.35821  -0.33329  -0.28972
 Alpha  occ. eigenvalues --   -0.25690  -0.24551
 Alpha virt. eigenvalues --   -0.13835  -0.07397   0.00832   0.07077   0.09882
 Alpha virt. eigenvalues --    0.11268   0.13143   0.13353   0.17843   0.23200
 Alpha virt. eigenvalues --    0.24882   0.25684   0.31801   0.32767   0.33364

 Mulliken charges:
               1
     1  N   -0.489478
     2  C    0.362976
     3  C   -0.041766
     4  N   -0.220457
     5  C   -0.089234
     6  N   -0.046209
     7  C    0.395652
     8  O   -0.204929
     9  O   -0.208245
    10  H    0.238544
    11  H    0.143804
    12  H    0.159341
 Sum of Mulliken charges =  -0.00000

 Dipole moment (field-independent basis, Debye):
    X=             -2.0160    Y=              2.5741    Z=             -0.0002  Tot=              3.2696
 Quadrupole moment (field-independent basis, Debye-Ang):
   XX=            -48.6524   YY=            -57.7214   ZZ=            -48.1916
   XY=             -2.1178   XZ=              0.0019   YZ=             -0.0002

  Exact polarizability: 118.612   0.559  69.071   0.000  -0.001  31.721
 Approx polarizability: 214.514  -0.936 131.803  -0.009  -0.001  51.638

                      1                      2                      3
                      A                      A                      A
 Frequencies --     77.6510               115.1250               170.9633
 Red. masses --      9.7845                 5.8469                 5.5529
 Frc consts  --      0.0348                 0.0457                 0.0956
 IR Inten    --      0.0020                 0.2088                 0.0372

                      4                      5                      6
                      A                      A                      A
 Frequencies --    232.8398               405.5600               413.9716
 Red. masses --      9.0240                 6.8305                10.3854
 Frc consts  --      0.2882                 0.6619                 1.0486
 IR Inten    --      1.4722                 1.3157                36.2593

                      7                      8                      9
                      A                      A                      A
 Frequencies --    472.0432               560.6030               563.9221
 Red. masses --      6.4572                 8.3854                 5.1406
 Frc consts  --      0.8477                 1.5527                 0.9632
 IR Inten    --      0.9861                14.9618                 0.0053

                     10                     11                     12
                      A                      A                      A
 Frequencies --    641.4665               717.3793               783.2057
 Red. masses --      9.0194                 3.1181                11.3792
 Frc consts  --      2.1866                 0.9454                 4.1126
 IR Inten    --     16.2720                 0.3894                72.3136

                     13                     14                     15
                      A                      A                      A
 Frequencies --    821.8442               911.0108               911.1080
 Red. masses --      1.0970                 4.8433                 1.5778
 Frc consts  --      0.4366                 2.3683                 0.7717
 IR Inten    --     34.6674                44.4014                31.6683

                     16                     17                     18
                      A                      A                      A
 Frequencies --    958.1370              1000.7876              1069.5128
 Red. masses --      1.5280                 4.9024                 2.2001
 Frc consts  --      0.8265                 2.8930                 1.4828
 IR Inten    --      2.2850                 2.3997               166.2804

                     19                     20                     21
                      A                      A                      A
 Frequencies --   1119.4371              1159.4519              1318.8597
 Red. masses --      3.8338                 2.2007                 2.5368
 Frc consts  --      2.8306                 1.7431                 2.5998
 IR Inten    --     42.6260                99.9834                 2.1857

                     22                     23                     24
                      A                      A                      A
 Frequencies --   1363.4274              1406.3978              1518.3957
 Red. masses --      1.5590                 1.9201                10.5333
 Frc consts  --      1.7075                 2.2377                14.3082
 IR Inten    --     10.9475                34.1052               178.5622

                     25                     26                     27
                      A                      A                      A
 Frequencies --   1615.5332              1679.8721              1713.8992
 Red. masses --     10.1020                 9.4975                 9.0181
 Frc consts  --     15.5342                15.7910                15.6075
 IR Inten    --     22.3687                52.7314               164.6466

                     28                     29                     30
                      A                      A                      A
 Frequencies --   3147.5265              3239.5378              3514.5978
 Red. masses --      1.0909                 1.0918                 1.0753
 Frc consts  --      6.3678                 6.7506                 7.8257
 IR Inten    --      4.5547                 2.4061                14.1997

 - Thermochemistry -
 -------------------
 Temperature   298.150 Kelvin.  Pressure   1.00000 Atm.
 Atom     1 has atomic number  7 and mass  14.00307

 Molecular mass:   125.02253 amu.
 Principal axes and moments of inertia in atomic units:
                           1         2         3
     Eigenvalues --   479.095091388.188351867.28343
           X            0.99998   0.00639   0.00001
           Y           -0.00639   0.99998  -0.00001
           Z           -0.00001   0.00001   1.00000
 This molecule is an asymmetric top.
 Rotational symmetry number  1.
 Warning -- assumption of classical behavior for rotation
           may cause significant error
 Rotational temperatures (Kelvin)      0.18079     0.06239     0.04638
 Rotational constants (GHZ):           3.76698     1.30007     0.96651
 Zero-point vibrational energy     201116.6 (Joules/Mol)
                                   48.06802 (Kcal/Mol)
 Warning -- explicit consideration of   9 degrees of freedom as
           vibrations may cause significant error
 Vibrational temperatures:    111.72   165.64   245.98   335.00   583.51
          (Kelvin)            595.61   679.16   806.58   811.36   922.93
                             1032.15  1126.86  1182.45  1310.74  1310.88
                             1378.55  1439.91  1538.79  1610.62  1668.19
                             1897.54  1961.67  2023.49  2184.63  2324.39
                             2416.96  2465.92  4528.59  4660.97  5056.72

 Zero-point correction=                           0.076601 (Hartree/Particle)
 Thermal correction to Energy=                    0.083939
 Thermal correction to Enthalpy=                  0.084883
 Thermal correction to Gibbs Free Energy=         0.044093
 Sum of electronic and zero-point Energies=           -468.740020
 Sum of electronic and thermal Energies=              -468.732682
 Sum of electronic and thermal Enthalpies=            -468.731738
 Sum of electronic and thermal Free Energies=         -468.772529

                     E (Thermal)             CV                S
                      KCal/Mol        Cal/Mol-Kelvin    Cal/Mol-Kelvin
 Total                   52.673             26.136             85.852
 Electronic               0.000              0.000              0.000
 Translational            0.889              2.981             40.384
 Rotational               0.889              2.981             28.609
 Vibrational             50.895             20.174             16.859
 Vibration     1          0.599              1.964              3.949
 Vibration     2          0.608              1.937              3.181
 Vibration     3          0.626              1.878              2.425
 Vibration     4          0.654              1.791              1.857
 Vibration     5          0.771              1.458              0.942
 Vibration     6          0.778              1.440              0.913
 Vibration     7          0.829              1.312              0.732
 Vibration     8          0.916              1.117              0.523
 Vibration     9          0.920              1.109              0.516

                           ! Non-Optimized Parameters !
 Normal termination of Gaussian 16 at Thu Aug  4 08:10:02 2022.
