 Gaussian 16, Revision A.03,
 Gaussian 16:  ES64L-G16RevA.03 25-Dec-2016

 -----------------------------
 # opt freq b3lyp/6-31g(2df,p)
 -----------------------------

 -------------------
 Title Card Required
 -------------------
 Symbolic Z-matrix:
 Charge =  0 Multiplicity = 1

 SCF Done:  E(RB3LYP) =  -398.642490630     A.U. after   15 cycles
 SCF Done:  E(RB3LYP) =  -398.664208322     A.U. after   13 cycles
 SCF Done:  E(RB3LYP) =  -398.667741403     A.U. after   12 cycles
 SCF Done:  E(RB3LYP) =  -398.667836933     A.U. after   10 cycles
 SCF Done:  E(RB3LYP) =  -398.667848149     A.U. after    9 cycles
 SCF Done:  E(RB3LYP) =  -398.667834778     A.U. after   10 cycles
 SCF Done:  E(RB3LYP) =  -398.667841752     A.U. after   10 cycles
 SCF Done:  E(RB3LYP) =  -398.667849056     A.U. after    9 cycles
 SCF Done:  E(RB3LYP) =  -398.667850447     A.U. after    8 cycles
 Optimization completed.
    -- Stationary point found.
 Normal termination of Gaussian 16 at Sun Jul  3 09:11:32 2022.

 ----------------------------------------------------------------------
 #N Geom=AllCheck Guess=TCheck SCRF=Check GenChk RB3LYP/6-31G(2df,p) Fr
 eq
 ----------------------------------------------------------------------

 Structure from the checkpoint file:  "NdC1OCdC1CCdO.chk"
 -------------------
 Title Card Required
 -------------------
 Charge =  0 Multiplicity = 1

                         Standard orientation:
 ---------------------------------------------------------------------
 Center     Atomic      Atomic             Coordinates (Angstroms)
 Number     Number       Type             X           Y           Z
 ---------------------------------------------------------------------
      1          7           0        1.050044    1.840108    0.000163
      2          6           0        1.187190    0.600478    0.000018
      3          8           0        2.391763   -0.185117   -0.000144
      4          6           0        1.517065   -1.289763   -0.000244
      5          6           0        0.349125   -0.629706    0.000112
      6          6           0       -1.111492   -0.923114    0.000433
      7          6           0       -2.007474    0.316363   -0.000092
      8          8           0       -3.207751    0.235314   -0.000296
      9          1           0        1.951202    2.321268    0.000074
     10          1           0        1.906297   -2.297000   -0.000431
     11          1           0       -1.399852   -1.522905    0.873755
     12          1           0       -1.400039   -1.523839   -0.872173
     13          1           0       -1.486480    1.294606   -0.000216
 ---------------------------------------------------------------------

 SCF Done:  E(RB3LYP) =  -398.667850447     A.U. after    1 cycles

 The electronic state is 1-A.
 Alpha  occ. eigenvalues --  -19.18289 -19.14272 -14.33835 -10.29962 -10.27683
 Alpha  occ. eigenvalues --  -10.27151 -10.21720 -10.21527  -1.10175  -1.05076
 Alpha  occ. eigenvalues --   -0.92016  -0.81686  -0.73490  -0.65479  -0.59292
 Alpha  occ. eigenvalues --   -0.54932  -0.51652  -0.49961  -0.47523  -0.44965
 Alpha  occ. eigenvalues --   -0.44367  -0.43672  -0.40657  -0.37458  -0.37025
 Alpha  occ. eigenvalues --   -0.32044  -0.30484  -0.25497  -0.24675
 Alpha virt. eigenvalues --   -0.05386  -0.02695   0.07209   0.08990   0.10229
 Alpha virt. eigenvalues --    0.10462   0.13162   0.14604   0.16632   0.17953
 Alpha virt. eigenvalues --    0.22117   0.25505   0.26292   0.31998   0.32801

 Mulliken charges:
               1
     1  N   -0.522426
     2  C    0.438627
     3  O   -0.292809
     4  C    0.014441
     5  C    0.048457
     6  C   -0.440186
     7  C    0.147857
     8  O   -0.252218
     9  H    0.249588
    10  H    0.161752
    11  H    0.156797
    12  H    0.156785
    13  H    0.133335
 Sum of Mulliken charges =  -0.00000

 Dipole moment (field-independent basis, Debye):
    X=              2.4416    Y=             -2.0916    Z=              0.0004  Tot=              3.2150
 Quadrupole moment (field-independent basis, Debye-Ang):
   XX=            -56.2577   YY=            -40.3335   ZZ=            -44.4560
   XY=              1.7605   XZ=             -0.0025   YZ=              0.0000

  Exact polarizability:  75.681  -1.564  73.817  -0.003   0.002  34.868
 Approx polarizability: 116.535 -10.018 120.943  -0.007   0.008  55.333

 ******    2 imaginary frequencies (negative Signs) ******

                      1                      2                      3
                      A                      A                      A
 Frequencies --    -67.4911               -46.2769               136.6889
 Red. masses --      2.9075                 2.4346                 7.0501
 Frc consts  --      0.0078                 0.0031                 0.0776
 IR Inten    --      0.5729                12.8210                 1.3845

                      4                      5                      6
                      A                      A                      A
 Frequencies --    260.0517               273.3768               325.4431
 Red. masses --      4.1144                 2.7424                 5.0188
 Frc consts  --      0.1639                 0.1208                 0.3132
 IR Inten    --      0.9909                12.6472                16.5351

                      7                      8                      9
                      A                      A                      A
 Frequencies --    435.4556               513.7388               670.8123
 Red. masses --      8.2900                 3.6117                 1.5699
 Frc consts  --      0.9262                 0.5616                 0.4162
 IR Inten    --      4.4397                 9.4369                 0.1926

                     10                     11                     12
                      A                      A                      A
 Frequencies --    723.9900               749.0011               773.8267
 Red. masses --     10.6860                 3.2713                 3.0885
 Frc consts  --      3.3001                 1.0813                 1.0896
 IR Inten    --     25.0549                 2.1380                21.2040

                     13                     14                     15
                      A                      A                      A
 Frequencies --    805.2714               877.7760               889.1533
 Red. masses --      7.0326                 1.4002                 1.3440
 Frc consts  --      2.6869                 0.6356                 0.6260
 IR Inten    --      3.9887                12.4005                76.2056

                     16                     17                     18
                      A                      A                      A
 Frequencies --   1017.9996              1029.6976              1057.8063
 Red. masses --      3.0072                 2.9151                 1.6458
 Frc consts  --      1.8361                 1.8210                 1.0851
 IR Inten    --     85.1925               129.1585                 0.3075

                     19                     20                     21
                      A                      A                      A
 Frequencies --   1159.7847              1220.0444              1249.1916
 Red. masses --      1.5133                 1.2060                 6.1244
 Frc consts  --      1.1993                 1.0576                 5.6308
 IR Inten    --     63.8286                 0.0168                 6.5904

                     22                     23                     24
                      A                      A                      A
 Frequencies --   1256.7293              1322.3779              1434.8822
 Red. masses --      1.5458                 1.8356                 1.0638
 Frc consts  --      1.4385                 1.8912                 1.2904
 IR Inten    --     45.7107                 6.9371                11.4362

                     25                     26                     27
                      A                      A                      A
 Frequencies --   1439.5826              1692.6845              1831.4106
 Red. masses --      1.1956                 8.0290                10.1425
 Frc consts  --      1.4599                13.5538                20.0433
 IR Inten    --      6.4713                20.3190               187.9052

                     28                     29                     30
                      A                      A                      A
 Frequencies --   1845.6717              2947.3494              3022.7808
 Red. masses --      9.4190                 1.0871                 1.0598
 Frc consts  --     18.9044                 5.5640                 5.7054
 IR Inten    --    159.6572                32.3395                13.8641

                     31                     32                     33
                      A                      A                      A
 Frequencies --   3050.4118              3260.8031              3483.6430
 Red. masses --      1.0997                 1.1039                 1.0747
 Frc consts  --      6.0288                 6.9154                 7.6846
 IR Inten    --      2.7984                 0.6767                14.5657

 - Thermochemistry -
 -------------------
 Temperature   298.150 Kelvin.  Pressure   1.00000 Atm.
 Atom     1 has atomic number  7 and mass  14.00307

 Molecular mass:   111.03203 amu.
 Principal axes and moments of inertia in atomic units:
                           1         2         3
     Eigenvalues --   385.407181413.897121788.33352
           X            0.99996   0.00856  -0.00001
           Y           -0.00856   0.99996  -0.00001
           Z            0.00001   0.00001   1.00000
 This molecule is an asymmetric top.
 Rotational symmetry number  1.
 Rotational temperatures (Kelvin)      0.22473     0.06126     0.04843
 Rotational constants (GHZ):           4.68269     1.27643     1.00917
    2 imaginary frequencies ignored.
 Zero-point vibrational energy     243783.6 (Joules/Mol)
                                   58.26568 (Kcal/Mol)
 Warning -- explicit consideration of   6 degrees of freedom as
           vibrations may cause significant error
 Vibrational temperatures:    196.66   374.16   393.33   468.24   626.52
          (Kelvin)            739.16   965.15  1041.66  1077.65  1113.36
                             1158.61  1262.92  1279.29  1464.67  1481.51
                             1521.95  1668.67  1755.37  1797.31  1808.15
                             1902.61  2064.48  2071.24  2435.40  2634.99
                             2655.51  4240.58  4349.11  4388.86  4691.57
                             5012.19

 Zero-point correction=                           0.092852 (Hartree/Particle)
 Thermal correction to Energy=                    0.098946
 Thermal correction to Enthalpy=                  0.099890
 Thermal correction to Gibbs Free Energy=         0.062211
 Sum of electronic and zero-point Energies=           -398.574998
 Sum of electronic and thermal Energies=              -398.568905
 Sum of electronic and thermal Enthalpies=            -398.567960
 Sum of electronic and thermal Free Energies=         -398.605639

                     E (Thermal)             CV                S
                      KCal/Mol        Cal/Mol-Kelvin    Cal/Mol-Kelvin
 Total                   62.089             22.573             79.301
 Electronic               0.000              0.000              0.000
 Translational            0.889              2.981             40.030
 Rotational               0.889              2.981             28.368
 Vibrational             60.312             16.612             10.903
 Vibration     1          0.614              1.917              2.850
 Vibration     2          0.668              1.746              1.661
 Vibration     3          0.676              1.722              1.575
 Vibration     4          0.710              1.625              1.283
 Vibration     5          0.796              1.393              0.841
 Vibration     6          0.869              1.220              0.625

 Optimization completed.
    -- Stationary point found.
 Normal termination of Gaussian 16 at Sun Jul  3 09:25:47 2022.
