 Gaussian 16, Revision A.03,
 Gaussian 16:  ES64L-G16RevA.03 25-Dec-2016

 -----------------------------
 # opt freq b3lyp/6-31g(2df,p)
 -----------------------------

 -------------------
 Title Card Required
 -------------------
 Symbolic Z-matrix:
 Charge =  0 Multiplicity = 1

 SCF Done:  E(RB3LYP) =  -340.196447571     A.U. after   17 cycles
 SCF Done:  E(RB3LYP) =  -340.288375367     A.U. after   14 cycles
 SCF Done:  E(RB3LYP) =  -340.385090982     A.U. after   15 cycles
 SCF Done:  E(RB3LYP) =  -340.403804251     A.U. after   16 cycles
 SCF Done:  E(RB3LYP) =  -340.429268969     A.U. after   13 cycles
 SCF Done:  E(RB3LYP) =  -340.432354013     A.U. after   12 cycles
 SCF Done:  E(RB3LYP) =  -340.432727801     A.U. after   11 cycles
 SCF Done:  E(RB3LYP) =  -340.432475466     A.U. after   12 cycles
 SCF Done:  E(RB3LYP) =  -340.432738871     A.U. after   12 cycles
 SCF Done:  E(RB3LYP) =  -340.432759915     A.U. after   10 cycles
 SCF Done:  E(RB3LYP) =  -340.432762645     A.U. after    8 cycles
 Optimization completed.
    -- Stationary point found.
 Normal termination of Gaussian 16 at Thu Aug  4 15:58:31 2022.

 ----------------------------------------------------------------------
 #N Geom=AllCheck Guess=TCheck SCRF=Check GenChk RB3LYP/6-31G(2df,p) Fr
 eq
 ----------------------------------------------------------------------

 Structure from the checkpoint file:  "Ndc1cc2ccnc1-2.chk"
 -------------------
 Title Card Required
 -------------------
 Charge =  0 Multiplicity = 1

                         Standard orientation:
 ---------------------------------------------------------------------
 Center     Atomic      Atomic             Coordinates (Angstroms)
 Number     Number       Type             X           Y           Z
 ---------------------------------------------------------------------
      1          7           0       -2.679325   -0.486871    0.000059
      2          6           0       -1.494075   -0.055548   -0.000044
      3          6           0       -0.906802    1.337787    0.000207
      4          6           0        0.389461    0.891018   -0.000380
      5          6           0        1.814397    0.820028   -0.000065
      6          6           0        2.061357   -0.537217    0.000167
      7          7           0        0.905770   -1.382191    0.000151
      8          6           0       -0.046002   -0.509461   -0.000341
      9          1           0       -2.699403   -1.507514   -0.000131
     10          1           0       -1.380690    2.313272    0.000976
     11          1           0        2.549039    1.609556   -0.000074
     12          1           0        3.035910   -1.011512    0.000496
 ---------------------------------------------------------------------

 SCF Done:  E(RB3LYP) =  -340.432762645     A.U. after    1 cycles

 The electronic state is 1-A.
 Alpha  occ. eigenvalues --  -14.33844 -14.31604 -10.25990 -10.25179 -10.24288
 Alpha  occ. eigenvalues --  -10.23895 -10.22172 -10.20910  -0.97859  -0.91408
 Alpha  occ. eigenvalues --   -0.85204  -0.77264  -0.66057  -0.62185  -0.57399
 Alpha  occ. eigenvalues --   -0.53240  -0.50078  -0.45170  -0.44130  -0.44013
 Alpha  occ. eigenvalues --   -0.39922  -0.37465  -0.35211  -0.29110  -0.28691
 Alpha  occ. eigenvalues --   -0.26330  -0.24927
 Alpha virt. eigenvalues --   -0.09636  -0.02626   0.05795   0.09939   0.11063
 Alpha virt. eigenvalues --    0.12383   0.14122   0.14137   0.14706   0.19593
 Alpha virt. eigenvalues --    0.20846   0.25893   0.26690   0.33551   0.35634

 Mulliken charges:
               1
     1  N   -0.535034
     2  C    0.241523
     3  C   -0.302018
     4  C    0.407773
     5  C   -0.338140
     6  C   -0.008140
     7  N   -0.379117
     8  C    0.275037
     9  H    0.237717
    10  H    0.144982
    11  H    0.126128
    12  H    0.129289
 Sum of Mulliken charges =  -0.00000

 Dipole moment (field-independent basis, Debye):
    X=              1.9720    Y=              1.9750    Z=             -0.0001  Tot=              2.7909
 Quadrupole moment (field-independent basis, Debye-Ang):
   XX=            -46.5816   YY=            -42.4107   ZZ=            -45.7897
   XY=              2.0979   XZ=              0.0007   YZ=              0.0023

  Exact polarizability: 112.290  -3.040  72.941  -0.002   0.002  31.274
 Approx polarizability: 204.738 -20.577 139.193  -0.007   0.002  52.462

                      1                      2                      3
                      A                      A                      A
 Frequencies --    159.6577               164.1938               290.6854
 Red. masses --      3.2927                 4.6917                 4.8002
 Frc consts  --      0.0495                 0.0745                 0.2390
 IR Inten    --      0.0102                 0.0516                 8.2775

                      4                      5                      6
                      A                      A                      A
 Frequencies --    518.0598               608.4919               619.8110
 Red. masses --      3.2779                 3.4545                 6.1058
 Frc consts  --      0.5183                 0.7536                 1.3820
 IR Inten    --      6.8441                15.3884                 0.1045

                      7                      8                      9
                      A                      A                      A
 Frequencies --    643.5320               788.9148               789.5341
 Red. masses --      7.2168                 1.2516                 5.3252
 Frc consts  --      1.7609                 0.4590                 1.9558
 IR Inten    --      0.0152                22.4103                 6.0305

                     10                     11                     12
                      A                      A                      A
 Frequencies --    801.9527               879.7940               904.0677
 Red. masses --      2.9405                 1.5347                 3.7094
 Frc consts  --      1.1142                 0.6999                 1.7863
 IR Inten    --     25.2459                65.5032                29.1744

                     13                     14                     15
                      A                      A                      A
 Frequencies --    915.0711               950.1205               954.1387
 Red. masses --      3.9614                 1.4398                 1.5087
 Frc consts  --      1.9544                 0.7658                 0.8092
 IR Inten    --     14.7522                 3.1964                 2.2405

                     16                     17                     18
                      A                      A                      A
 Frequencies --    991.8400              1059.3388              1119.7147
 Red. masses --      4.8683                 3.0842                 1.4480
 Frc consts  --      2.8217                 2.0392                 1.0696
 IR Inten    --      2.9552                18.2633                14.5109

                     19                     20                     21
                      A                      A                      A
 Frequencies --   1181.6747              1251.5970              1265.2765
 Red. masses --      1.6948                 1.9505                 3.4768
 Frc consts  --      1.3943                 1.8002                 3.2795
 IR Inten    --      6.2126               112.7127                46.3312

                     22                     23                     24
                      A                      A                      A
 Frequencies --   1330.4970              1445.1184              1597.9631
 Red. masses --      1.6107                 4.0955                 7.8320
 Frc consts  --      1.6800                 5.0392                11.7830
 IR Inten    --     10.3897                 2.9850                34.3389

                     25                     26                     27
                      A                      A                      A
 Frequencies --   1652.0892              1782.1737              3203.9250
 Red. masses --      9.7376                 9.7406                 1.0989
 Frc consts  --     15.6591                18.2278                 6.6464
 IR Inten    --    100.2945               213.6033                 3.6579

                     28                     29                     30
                      A                      A                      A
 Frequencies --   3214.2022              3262.8320              3478.4517
 Red. masses --      1.0922                 1.0992                 1.0749
 Frc consts  --      6.6480                 6.8950                 7.6626
 IR Inten    --      6.2766                 2.9802                 7.5895

 - Thermochemistry -
 -------------------
 Temperature   298.150 Kelvin.  Pressure   1.00000 Atm.
 Atom     1 has atomic number  7 and mass  14.00307

 Molecular mass:   104.03745 amu.
 Principal axes and moments of inertia in atomic units:
                           1         2         3
     Eigenvalues --   310.84403 950.294331261.13832
           X            0.99994   0.01068   0.00000
           Y           -0.01068   0.99994   0.00002
           Z           -0.00000  -0.00002   1.00000
 This molecule is an asymmetric top.
 Rotational symmetry number  1.
 Rotational temperatures (Kelvin)      0.27864     0.09114     0.06868
 Rotational constants (GHZ):           5.80594     1.89914     1.43104
 Zero-point vibrational energy     226242.1 (Joules/Mol)
                                   54.07315 (Kcal/Mol)
 Warning -- explicit consideration of   6 degrees of freedom as
           vibrations may cause significant error
 Vibrational temperatures:    229.71   236.24   418.23   745.37   875.48
          (Kelvin)            891.77   925.90  1135.07  1135.96  1153.83
                             1265.83  1300.75  1316.58  1367.01  1372.79
                             1427.04  1524.15  1611.02  1700.17  1800.77
                             1820.45  1914.29  2079.20  2299.11  2376.99
                             2564.15  4609.73  4624.52  4694.49  5004.72

 Zero-point correction=                           0.086171 (Hartree/Particle)
 Thermal correction to Energy=                    0.091985
 Thermal correction to Enthalpy=                  0.092929
 Thermal correction to Gibbs Free Energy=         0.056202
 Sum of electronic and zero-point Energies=           -340.346592
 Sum of electronic and thermal Energies=              -340.340778
 Sum of electronic and thermal Enthalpies=            -340.339834
 Sum of electronic and thermal Free Energies=         -340.376561

                     E (Thermal)             CV                S
                      KCal/Mol        Cal/Mol-Kelvin    Cal/Mol-Kelvin
 Total                   57.721             21.810             77.299
 Electronic               0.000              0.000              0.000
 Translational            0.889              2.981             39.836
 Rotational               0.889              2.981             27.412
 Vibrational             55.944             15.848             10.051
 Vibration     1          0.622              1.892              2.554
 Vibration     2          0.623              1.886              2.501
 Vibration     3          0.687              1.691              1.470
 Vibration     4          0.873              1.210              0.614
 Vibration     5          0.967              1.014              0.435
 Vibration     6          0.980              0.990              0.417

 Optimization completed.
    -- Stationary point found.
 Normal termination of Gaussian 16 at Thu Aug  4 16:18:18 2022.
