 Gaussian 16, Revision A.03,
 Gaussian 16:  ES64L-G16RevA.03 25-Dec-2016

 -----------------------------
 # opt freq b3lyp/6-31g(2df,p)
 -----------------------------

 -------------------
 Title Card Required
 -------------------
 Symbolic Z-matrix:
 Charge =  0 Multiplicity = 1

 SCF Done:  E(RB3LYP) =  -395.954486565     A.U. after   14 cycles
 SCF Done:  E(RB3LYP) =  -395.982979586     A.U. after   13 cycles
 SCF Done:  E(RB3LYP) =  -396.000983878     A.U. after   13 cycles
 SCF Done:  E(RB3LYP) =  -396.008122973     A.U. after   12 cycles
 SCF Done:  E(RB3LYP) =  -396.011550764     A.U. after   12 cycles
 SCF Done:  E(RB3LYP) =  -396.013997609     A.U. after   12 cycles
 SCF Done:  E(RB3LYP) =  -396.016902943     A.U. after   12 cycles
 SCF Done:  E(RB3LYP) =  -396.019246356     A.U. after   12 cycles
 SCF Done:  E(RB3LYP) =  -396.020537341     A.U. after   12 cycles
 SCF Done:  E(RB3LYP) =  -396.021076358     A.U. after   12 cycles
 SCF Done:  E(RB3LYP) =  -396.021178500     A.U. after   10 cycles
 SCF Done:  E(RB3LYP) =  -396.021246695     A.U. after   10 cycles
 SCF Done:  E(RB3LYP) =  -396.021281205     A.U. after   10 cycles
 SCF Done:  E(RB3LYP) =  -396.021287433     A.U. after    9 cycles
 SCF Done:  E(RB3LYP) =  -396.021292100     A.U. after    8 cycles
 SCF Done:  E(RB3LYP) =  -396.021293159     A.U. after    8 cycles
 SCF Done:  E(RB3LYP) =  -396.021293397     A.U. after    7 cycles
 Optimization completed.
    -- Stationary point found.
 Normal termination of Gaussian 16 at Sun Jul  3 13:58:10 2022.

 ----------------------------------------------------------------------
 #N Geom=AllCheck Guess=TCheck SCRF=Check GenChk RB3LYP/6-31G(2df,p) Fr
 eq
 ----------------------------------------------------------------------

 Structure from the checkpoint file:  "NdC1NCC2OC2N1.chk"
 -------------------
 Title Card Required
 -------------------
 Charge =  0 Multiplicity = 1

                         Standard orientation:
 ---------------------------------------------------------------------
 Center     Atomic      Atomic             Coordinates (Angstroms)
 Number     Number       Type             X           Y           Z
 ---------------------------------------------------------------------
      1          7           0        2.521758   -0.450541   -0.115676
      2          6           0        1.278268   -0.172633   -0.038017
      3          7           0        0.748135    1.131226    0.114044
      4          6           0       -0.679737    1.577019    0.147586
      5          6           0       -1.274196    0.325756   -0.450321
      6          8           0       -2.205715   -0.707714   -0.124145
      7          6           0       -0.879286   -0.772291    0.430721
      8          7           0        0.353051   -1.262258   -0.067739
      9          1           0        3.104451    0.381833   -0.059293
     10          1           0        1.434453    1.848339   -0.056087
     11          1           0       -0.787479    2.480835   -0.462124
     12          1           0       -1.017081    1.791668    1.167214
     13          1           0       -0.950214    0.214856   -1.483044
     14          1           0       -0.941533   -0.633160    1.512361
     15          1           0        0.772219   -2.098752    0.319913
 ---------------------------------------------------------------------

 SCF Done:  E(RB3LYP) =  -396.021293397     A.U. after    1 cycles

 The electronic state is 1-A.
 Alpha  occ. eigenvalues --  -19.17687 -14.35896 -14.35179 -14.27949 -10.28551
 Alpha  occ. eigenvalues --  -10.26622 -10.24916 -10.24338  -1.09115  -0.98173
 Alpha  occ. eigenvalues --   -0.90000  -0.85909  -0.74338  -0.65989  -0.63612
 Alpha  occ. eigenvalues --   -0.58753  -0.52828  -0.51036  -0.49588  -0.48629
 Alpha  occ. eigenvalues --   -0.46108  -0.44444  -0.41655  -0.40051  -0.37089
 Alpha  occ. eigenvalues --   -0.29941  -0.28145  -0.26308  -0.26116  -0.22444
 Alpha virt. eigenvalues --    0.04379   0.04832   0.07421   0.09142   0.10444
 Alpha virt. eigenvalues --    0.11565   0.13148   0.13349   0.16183   0.16510
 Alpha virt. eigenvalues --    0.18443   0.22904   0.27226   0.27678   0.30192

 Mulliken charges:
               1
     1  N   -0.578529
     2  C    0.430608
     3  N   -0.344491
     4  C   -0.241382
     5  C    0.086105
     6  O   -0.258948
     7  C    0.088746
     8  N   -0.344704
     9  H    0.202001
    10  H    0.240593
    11  H    0.115495
    12  H    0.126588
    13  H    0.124285
    14  H    0.103628
    15  H    0.250006
 Sum of Mulliken charges =   0.00000

 Dipole moment (field-independent basis, Debye):
    X=             -0.2582    Y=              2.9906    Z=              1.0254  Tot=              3.1720
 Quadrupole moment (field-independent basis, Debye-Ang):
   XX=            -55.8165   YY=            -40.8328   ZZ=            -45.9875
   XY=              3.1670   XZ=              0.0323   YZ=             -2.8769

  Exact polarizability:  78.636  -2.848  65.858  -1.766  -2.070  45.199
 Approx polarizability: 120.502  -4.333 101.116  -1.760  -3.904  70.680

                      1                      2                      3
                      A                      A                      A
 Frequencies --    117.3047               223.2047               381.3571
 Red. masses --      5.9731                 3.3288                 1.4256
 Frc consts  --      0.0484                 0.0977                 0.1222
 IR Inten    --      0.8068                 1.4181                41.0071

                      4                      5                      6
                      A                      A                      A
 Frequencies --    396.4797               412.5399               465.7137
 Red. masses --      2.8816                 2.6601                 5.8057
 Frc consts  --      0.2669                 0.2667                 0.7419
 IR Inten    --     19.3002                 1.7763                 0.6961

                      7                      8                      9
                      A                      A                      A
 Frequencies --    495.3613               584.5469               610.0825
 Red. masses --      3.6207                 2.8492                 2.6928
 Frc consts  --      0.5235                 0.5736                 0.5905
 IR Inten    --      7.9236                29.2299                59.2066

                     10                     11                     12
                      A                      A                      A
 Frequencies --    682.9373               748.6634               755.6533
 Red. masses --      4.1941                 3.1938                 1.4384
 Frc consts  --      1.1525                 1.0547                 0.4839
 IR Inten    --      9.6829                96.2430                46.3958

                     13                     14                     15
                      A                      A                      A
 Frequencies --    821.6773               872.3502               924.2479
 Red. masses --      2.3787                 3.5090                 2.3779
 Frc consts  --      0.9462                 1.5733                 1.1968
 IR Inten    --     29.9004                38.2719                 6.5019

                     16                     17                     18
                      A                      A                      A
 Frequencies --    968.1508               999.8299              1054.6609
 Red. masses --      2.6742                 2.3425                 2.3573
 Frc consts  --      1.4768                 1.3797                 1.5448
 IR Inten    --     13.2853                59.6405               100.1503

                     19                     20                     21
                      A                      A                      A
 Frequencies --   1109.4408              1118.2573              1129.1649
 Red. masses --      1.7171                 2.0815                 1.6606
 Frc consts  --      1.2453                 1.5336                 1.2475
 IR Inten    --     64.9476                 0.8658                15.9973

                     22                     23                     24
                      A                      A                      A
 Frequencies --   1156.8411              1200.1651              1267.9997
 Red. masses --      2.1443                 1.2078                 1.5482
 Frc consts  --      1.6908                 1.0250                 1.4666
 IR Inten    --      3.9092                 3.0211               100.3326

                     25                     26                     27
                      A                      A                      A
 Frequencies --   1349.6969              1372.4249              1411.6960
 Red. masses --      1.6978                 1.6805                 1.6390
 Frc consts  --      1.8223                 1.8650                 1.9245
 IR Inten    --     26.2659                54.1873                46.0781

                     28                     29                     30
                      A                      A                      A
 Frequencies --   1423.4523              1446.9223              1475.5847
 Red. masses --      1.1557                 1.4385                 1.9714
 Frc consts  --      1.3797                 1.7744                 2.5291
 IR Inten    --     33.5890                53.2714                53.2830

                     31                     32                     33
                      A                      A                      A
 Frequencies --   1521.4847              1716.1209              3029.1550
 Red. masses --      1.0984                 5.6936                 1.0558
 Frc consts  --      1.4982                 9.8794                 5.7078
 IR Inten    --      1.3170               335.8248                61.4618

                     34                     35                     36
                      A                      A                      A
 Frequencies --   3067.5199              3075.5006              3127.9292
 Red. masses --      1.0898                 1.1038                 1.0869
 Frc consts  --      6.0419                 6.1512                 6.2655
 IR Inten    --     16.6364                41.3094                19.2464

                     37                     38                     39
                      A                      A                      A
 Frequencies --   3508.0758              3563.3419              3638.9201
 Red. masses --      1.0754                 1.0755                 1.0763
 Frc consts  --      7.7972                 8.0457                 8.3974
 IR Inten    --      2.4363                13.7111                16.7417

 - Thermochemistry -
 -------------------
 Temperature   298.150 Kelvin.  Pressure   1.00000 Atm.
 Atom     1 has atomic number  7 and mass  14.00307

 Molecular mass:   113.05891 amu.
 Principal axes and moments of inertia in atomic units:
                           1         2         3
     Eigenvalues --   426.08129 921.431541263.12366
           X            0.99996  -0.00795  -0.00350
           Y            0.00791   0.99990  -0.01133
           Z            0.00359   0.01130   0.99993
 This molecule is an asymmetric top.
 Rotational symmetry number  1.
 Rotational temperatures (Kelvin)      0.20328     0.09400     0.06857
 Rotational constants (GHZ):           4.23567     1.95863     1.42879
 Zero-point vibrational energy     318352.9 (Joules/Mol)
                                   76.08818 (Kcal/Mol)
 Warning -- explicit consideration of   9 degrees of freedom as
           vibrations may cause significant error
 Vibrational temperatures:    168.78   321.14   548.69   570.45   593.55
          (Kelvin)            670.06   712.71   841.03   877.77   982.59
                             1077.16  1087.22  1182.21  1255.12  1329.79
                             1392.95  1438.53  1517.42  1596.24  1608.92
                             1624.62  1664.44  1726.77  1824.37  1941.91
                             1974.61  2031.12  2048.03  2081.80  2123.04
                             2189.08  2469.12  4358.28  4413.48  4424.96
                             4500.39  5047.34  5126.85  5235.59

 Zero-point correction=                           0.121254 (Hartree/Particle)
 Thermal correction to Energy=                    0.127818
 Thermal correction to Enthalpy=                  0.128762
 Thermal correction to Gibbs Free Energy=         0.090703
 Sum of electronic and zero-point Energies=           -395.900039
 Sum of electronic and thermal Energies=              -395.893475
 Sum of electronic and thermal Enthalpies=            -395.892531
 Sum of electronic and thermal Free Energies=         -395.930591

                     E (Thermal)             CV                S
                      KCal/Mol        Cal/Mol-Kelvin    Cal/Mol-Kelvin
 Total                   80.207             25.971             80.103
 Electronic               0.000              0.000              0.000
 Translational            0.889              2.981             40.084
 Rotational               0.889              2.981             27.697
 Vibrational             78.430             20.009             12.322
 Vibration     1          0.608              1.935              3.144
 Vibration     2          0.649              1.806              1.933
 Vibration     3          0.751              1.510              1.034
 Vibration     4          0.763              1.478              0.976
 Vibration     5          0.776              1.443              0.918
 Vibration     6          0.823              1.326              0.750
 Vibration     7          0.851              1.260              0.670
 Vibration     8          0.941              1.065              0.477
 Vibration     9          0.969              1.010              0.433

 Optimization completed.
    -- Stationary point found.
 Normal termination of Gaussian 16 at Sun Jul  3 14:17:25 2022.
