 Gaussian 16, Revision A.03,
 Gaussian 16:  ES64L-G16RevA.03 25-Dec-2016

 -----------------------------
 # opt freq b3lyp/6-31g(2df,p)
 -----------------------------

 -------------------
 Title Card Required
 -------------------
 Symbolic Z-matrix:
 Charge =  0 Multiplicity = 1

 SCF Done:  E(RB3LYP) =  -397.761425447     A.U. after   17 cycles
 SCF Done:  E(RB3LYP) =  -397.845344601     A.U. after   14 cycles
 SCF Done:  E(RB3LYP) =  -397.908230021     A.U. after   15 cycles
 SCF Done:  E(RB3LYP) =  -397.965129506     A.U. after   14 cycles
 SCF Done:  E(RB3LYP) =  -397.984349736     A.U. after   14 cycles
 SCF Done:  E(RB3LYP) =  -397.992002908     A.U. after   13 cycles
 SCF Done:  E(RB3LYP) =  -397.996614936     A.U. after   13 cycles
 SCF Done:  E(RB3LYP) =  -398.005454840     A.U. after   14 cycles
 SCF Done:  E(RB3LYP) =  -398.016203766     A.U. after   13 cycles
 SCF Done:  E(RB3LYP) =  -398.029803124     A.U. after   14 cycles
 SCF Done:  E(RB3LYP) =  -398.252335362     A.U. after   10 cycles
 SCF Done:  E(RB3LYP) =  -398.252358300     A.U. after   11 cycles
 SCF Done:  E(RB3LYP) =  -398.252405753     A.U. after   10 cycles
 SCF Done:  E(RB3LYP) =  -398.252423134     A.U. after   11 cycles
 SCF Done:  E(RB3LYP) =  -398.252428986     A.U. after    9 cycles
 SCF Done:  E(RB3LYP) =  -398.252431898     A.U. after    9 cycles
 SCF Done:  E(RB3LYP) =  -398.252433209     A.U. after    8 cycles
 SCF Done:  E(RB3LYP) =  -398.252433652     A.U. after    8 cycles
 SCF Done:  E(RB3LYP) =  -398.252433932     A.U. after    7 cycles
 Optimization completed.
    -- Stationary point found.
 Normal termination of Gaussian 16 at Thu Aug  4 19:16:39 2022.

 ----------------------------------------------------------------------
 #N Geom=AllCheck Guess=TCheck SCRF=Check GenChk RB3LYP/6-31G(2df,p) Fr
 eq
 ----------------------------------------------------------------------

 Structure from the checkpoint file:  "NdC1CdCCCNdCN1.chk"
 -------------------
 Title Card Required
 -------------------
 Charge =  0 Multiplicity = 1

                         Standard orientation:
 ---------------------------------------------------------------------
 Center     Atomic      Atomic             Coordinates (Angstroms)
 Number     Number       Type             X           Y           Z
 ---------------------------------------------------------------------
      1          7           0       -2.792991    0.514696   -0.321479
      2          6           0       -1.610384    0.215720    0.041884
      3          6           0       -0.499360    0.985333    0.635003
      4          6           0        0.435633    1.496874   -0.164626
      5          6           0        1.860661    1.211020    0.147987
      6          6           0        2.052486   -0.237911   -0.427928
      7          7           0        1.310576   -1.351617    0.131480
      8          6           0        0.088394   -1.693629    0.169889
      9          7           0       -1.167668   -1.110272   -0.100214
     10          1           0       -2.983438    1.490266   -0.099256
     11          1           0       -0.217114    0.679767    1.641825
     12          1           0        0.192585    1.707106   -1.205595
     13          1           0        2.054357    1.208217    1.224899
     14          1           0        2.585520    1.868271   -0.341734
     15          1           0        3.114696   -0.489761   -0.326161
     16          1           0        1.846388   -0.188565   -1.507646
     17          1           0       -0.087555   -2.734669    0.468994
     18          1           0       -1.919436   -1.774726   -0.237082
 ---------------------------------------------------------------------

 SCF Done:  E(RB3LYP) =  -398.252433932     A.U. after    1 cycles

 The electronic state is 1-A.
 Alpha  occ. eigenvalues --  -14.36438 -14.31139 -14.29885 -10.26452 -10.26432
 Alpha  occ. eigenvalues --  -10.22170 -10.20108 -10.19971 -10.19139  -0.97208
 Alpha  occ. eigenvalues --   -0.90560  -0.86137  -0.81804  -0.74129  -0.68914
 Alpha  occ. eigenvalues --   -0.61328  -0.59574  -0.54959  -0.52196  -0.47824
 Alpha  occ. eigenvalues --   -0.47456  -0.45455  -0.44376  -0.42825  -0.40974
 Alpha  occ. eigenvalues --   -0.37326  -0.36960  -0.35990  -0.31129  -0.28223
 Alpha  occ. eigenvalues --   -0.24739  -0.23655  -0.23065
 Alpha virt. eigenvalues --   -0.02111  -0.00425   0.04649   0.08960   0.10822
 Alpha virt. eigenvalues --    0.11581   0.12267   0.15102   0.15556   0.16545
 Alpha virt. eigenvalues --    0.16610   0.17949   0.19158   0.22139   0.24948

 Mulliken charges:
               1
     1  N   -0.529800
     2  C    0.325734
     3  C   -0.175791
     4  C   -0.042949
     5  C   -0.260014
     6  C   -0.129381
     7  N   -0.225352
     8  C    0.097852
     9  N   -0.301680
    10  H    0.223650
    11  H    0.111125
    12  H    0.105676
    13  H    0.116555
    14  H    0.104495
    15  H    0.111837
    16  H    0.113071
    17  H    0.102861
    18  H    0.252114
 Sum of Mulliken charges =  -0.00000

 Dipole moment (field-independent basis, Debye):
    X=              1.0796    Y=              0.6296    Z=              0.2312  Tot=              1.2709
 Quadrupole moment (field-independent basis, Debye-Ang):
   XX=            -58.6733   YY=            -50.5564   ZZ=            -52.7124
   XY=              4.5528   XZ=             -3.3486   YZ=             -0.0836

  Exact polarizability: 114.866   0.265  80.170  -1.116  -3.900  57.762
 Approx polarizability: 186.900  -0.866 118.198  -3.622  -9.328  96.174

                      1                      2                      3
                      A                      A                      A
 Frequencies --     82.9834               115.7125               213.9058
 Red. masses --      2.8551                 4.9890                 3.0067
 Frc consts  --      0.0116                 0.0394                 0.0811
 IR Inten    --      0.9476                 0.6808                 3.3757

                      4                      5                      6
                      A                      A                      A
 Frequencies --    222.5916               324.8851               373.1486
 Red. masses --      3.0520                 4.4601                 2.6576
 Frc consts  --      0.0891                 0.2774                 0.2180
 IR Inten    --      1.4257                12.7514                 2.7432

                      7                      8                      9
                      A                      A                      A
 Frequencies --    395.7754               492.7766               521.8384
 Red. masses --      2.6254                 3.3645                 2.6719
 Frc consts  --      0.2423                 0.4814                 0.4287
 IR Inten    --      2.9541                11.2318                13.7033

                     10                     11                     12
                      A                      A                      A
 Frequencies --    587.5796               619.5375               685.7096
 Red. masses --      3.1683                 1.2963                 4.6726
 Frc consts  --      0.6445                 0.2931                 1.2945
 IR Inten    --     11.5180                87.1748                14.9404

                     13                     14                     15
                      A                      A                      A
 Frequencies --    769.0401               805.5597               841.8932
 Red. masses --      2.8267                 3.8202                 1.9036
 Frc consts  --      0.9850                 1.4606                 0.7949
 IR Inten    --     10.0437                11.2071                16.4240

                     16                     17                     18
                      A                      A                      A
 Frequencies --    851.8915               886.3057               910.4797
 Red. masses --      1.3100                 3.0589                 1.8382
 Frc consts  --      0.5601                 1.4157                 0.8978
 IR Inten    --     46.8835                24.6745                 0.2419

                     19                     20                     21
                      A                      A                      A
 Frequencies --    945.0814               962.5319               993.9143
 Red. masses --      1.8672                 3.0382                 2.0216
 Frc consts  --      0.9826                 1.6584                 1.1766
 IR Inten    --      3.3215                 4.5198                 5.5288

                     22                     23                     24
                      A                      A                      A
 Frequencies --   1032.2611              1076.4778              1124.0422
 Red. masses --      1.1743                 2.3121                 2.0248
 Frc consts  --      0.7372                 1.5786                 1.5073
 IR Inten    --     29.0367                15.4381                15.5574

                     25                     26                     27
                      A                      A                      A
 Frequencies --   1155.9975              1181.6730              1256.3906
 Red. masses --      1.9741                 1.2588                 1.2776
 Frc consts  --      1.5543                 1.0357                 1.1882
 IR Inten    --    305.3280                 2.2631                 2.7858

                     28                     29                     30
                      A                      A                      A
 Frequencies --   1298.4617              1313.9361              1332.8719
 Red. masses --      1.2953                 1.1721                 1.2758
 Frc consts  --      1.2867                 1.1922                 1.3354
 IR Inten    --     10.8740                 8.1592                 7.1385

                     31                     32                     33
                      A                      A                      A
 Frequencies --   1369.0040              1386.7380              1448.2068
 Red. masses --      1.5413                 1.5922                 1.4482
 Frc consts  --      1.7019                 1.8040                 1.7895
 IR Inten    --     21.2530                35.3247                75.9705

                     34                     35                     36
                      A                      A                      A
 Frequencies --   1485.2331              1491.9153              1513.4622
 Red. masses --      1.1178                 1.1020                 1.2419
 Frc consts  --      1.4528                 1.4452                 1.6761
 IR Inten    --      6.2151                 4.8778                23.9691

                     37                     38                     39
                      A                      A                      A
 Frequencies --   1696.2014              1729.5722              1744.7595
 Red. masses --      6.4443                 8.6527                 7.6416
 Frc consts  --     10.9241                15.2503                13.7059
 IR Inten    --     66.6965               369.0415               167.5726

                     40                     41                     42
                      A                      A                      A
 Frequencies --   2993.2076              3036.6363              3040.5838
 Red. masses --      1.0644                 1.0851                 1.0835
 Frc consts  --      5.6184                 5.8954                 5.9020
 IR Inten    --     40.1602                50.3457                20.1426

                     43                     44                     45
                      A                      A                      A
 Frequencies --   3054.1196              3101.6960              3128.4978
 Red. masses --      1.0706                 1.1050                 1.0885
 Frc consts  --      5.8839                 6.2635                 6.2767
 IR Inten    --     68.2676                16.9497                 2.6758

                     46                     47                     48
                      A                      A                      A
 Frequencies --   3139.4541              3504.5253              3570.3068
 Red. masses --      1.0885                 1.0750                 1.0755
 Frc consts  --      6.3211                 7.7792                 8.0771
 IR Inten    --     18.0534                 5.0607                20.7911

 - Thermochemistry -
 -------------------
 Temperature   298.150 Kelvin.  Pressure   1.00000 Atm.
 Atom     1 has atomic number  7 and mass  14.00307

 Molecular mass:   123.07965 amu.
 Principal axes and moments of inertia in atomic units:
                           1         2         3
     Eigenvalues --   635.995951200.714791706.00612
           X            0.99951   0.03064  -0.00691
           Y           -0.03067   0.99952  -0.00494
           Z            0.00676   0.00515   0.99996
 This molecule is an asymmetric top.
 Rotational symmetry number  1.
 Warning -- assumption of classical behavior for rotation
           may cause significant error
 Rotational temperatures (Kelvin)      0.13619     0.07214     0.05077
 Rotational constants (GHZ):           2.83766     1.50306     1.05787
 Zero-point vibrational energy     393627.5 (Joules/Mol)
                                   94.07922 (Kcal/Mol)
 Warning -- explicit consideration of  11 degrees of freedom as
           vibrations may cause significant error
 Vibrational temperatures:    119.39   166.48   307.76   320.26   467.44
          (Kelvin)            536.88   569.43   709.00   750.81   845.40
                              891.38   986.58  1106.48  1159.02  1211.30
                             1225.68  1275.20  1309.98  1359.76  1384.87
                             1430.02  1485.19  1548.81  1617.25  1663.22
                             1700.16  1807.67  1868.20  1890.46  1917.71
                             1969.69  1995.21  2083.65  2136.92  2146.53
                             2177.53  2440.46  2488.47  2510.32  4306.56
                             4369.04  4374.72  4394.20  4462.65  4501.21
                             4516.97  5042.23  5136.88

 Zero-point correction=                           0.149925 (Hartree/Particle)
 Thermal correction to Energy=                    0.157948
 Thermal correction to Enthalpy=                  0.158892
 Thermal correction to Gibbs Free Energy=         0.117244
 Sum of electronic and zero-point Energies=           -398.102509
 Sum of electronic and thermal Energies=              -398.094486
 Sum of electronic and thermal Enthalpies=            -398.093542
 Sum of electronic and thermal Free Energies=         -398.135190

                     E (Thermal)             CV                S
                      KCal/Mol        Cal/Mol-Kelvin    Cal/Mol-Kelvin
 Total                   99.114             30.837             87.655
 Electronic               0.000              0.000              0.000
 Translational            0.889              2.981             40.337
 Rotational               0.889              2.981             28.656
 Vibrational             97.336             24.875             18.662
 Vibration     1          0.600              1.961              3.819
 Vibration     2          0.608              1.936              3.171
 Vibration     3          0.644              1.820              2.010
 Vibration     4          0.648              1.807              1.938
 Vibration     5          0.709              1.626              1.285
 Vibration     6          0.745              1.527              1.067
 Vibration     7          0.763              1.479              0.978
 Vibration     8          0.848              1.266              0.676
 Vibration     9          0.877              1.202              0.606
 Vibration    10          0.945              1.058              0.472
 Vibration    11          0.979              0.991              0.417

                           ! Non-Optimized Parameters !
 Normal termination of Gaussian 16 at Thu Aug  4 19:43:07 2022.
