 Gaussian 16, Revision A.03,
 Gaussian 16:  ES64L-G16RevA.03 25-Dec-2016

 -----------------------------
 # opt freq b3lyp/6-31g(2df,p)
 -----------------------------

 -------------------
 Title Card Required
 -------------------
 Symbolic Z-matrix:
 Charge =  0 Multiplicity = 1

 SCF Done:  E(RB3LYP) =  -396.977622015     A.U. after   17 cycles
 SCF Done:  E(RB3LYP) =  -396.995609928     A.U. after   14 cycles
 SCF Done:  E(RB3LYP) =  -396.999151641     A.U. after   13 cycles
 SCF Done:  E(RB3LYP) =  -396.999590480     A.U. after   11 cycles
 SCF Done:  E(RB3LYP) =  -396.999753459     A.U. after   11 cycles
 SCF Done:  E(RB3LYP) =  -397.000151019     A.U. after   12 cycles
 SCF Done:  E(RB3LYP) =  -396.999807809     A.U. after   13 cycles
 SCF Done:  E(RB3LYP) =  -397.000751715     A.U. after   11 cycles
 SCF Done:  E(RB3LYP) =  -397.001271456     A.U. after   13 cycles
 SCF Done:  E(RB3LYP) =  -397.001679268     A.U. after   13 cycles
 SCF Done:  E(RB3LYP) =  -397.002959087     A.U. after   12 cycles
 SCF Done:  E(RB3LYP) =  -397.003370039     A.U. after   12 cycles
 SCF Done:  E(RB3LYP) =  -397.003423959     A.U. after   11 cycles
 SCF Done:  E(RB3LYP) =  -397.003445769     A.U. after   10 cycles
 SCF Done:  E(RB3LYP) =  -397.003447595     A.U. after    8 cycles
 Optimization completed.
    -- Stationary point found.
 Normal termination of Gaussian 16 at Thu Aug  4 08:31:46 2022.

 ----------------------------------------------------------------------
 #N Geom=AllCheck Guess=TCheck SCRF=Check GenChk RB3LYP/6-31G(2df,p) Fr
 eq
 ----------------------------------------------------------------------

 Structure from the checkpoint file:  "NdC1NC2CdCNdC1C2.chk"
 -------------------
 Title Card Required
 -------------------
 Charge =  0 Multiplicity = 1

                         Standard orientation:
 ---------------------------------------------------------------------
 Center     Atomic      Atomic             Coordinates (Angstroms)
 Number     Number       Type             X           Y           Z
 ---------------------------------------------------------------------
      1          7           0       -2.566562   -0.570328   -0.214391
      2          6           0       -1.410878   -0.102042   -0.028674
      3          7           0       -0.773998    1.052729   -0.586707
      4          6           0        0.629216    1.221538   -0.044031
      5          6           0        1.730622    0.338635   -0.669534
      6          6           0        1.706734   -0.982889   -0.381073
      7          7           0        0.476781   -1.478043    0.070549
      8          6           0       -0.220600   -0.625973    0.735119
      9          6           0        0.415217    0.622065    1.349195
     10          1           0       -3.093617   -0.000751   -0.880483
     11          1           0       -0.883045    1.154292   -1.588100
     12          1           0        0.901091    2.278229   -0.064176
     13          1           0        2.513019    0.786534   -1.269477
     14          1           0        2.459621   -1.697650   -0.692639
     15          1           0        1.346573    0.445424    1.882868
     16          1           0       -0.299049    1.175418    1.959830
 ---------------------------------------------------------------------

 SCF Done:  E(RB3LYP) =  -397.003447595     A.U. after    1 cycles

 The electronic state is 1-A.
 Alpha  occ. eigenvalues --  -14.35889 -14.33412 -14.30145 -10.26504 -10.24812
 Alpha  occ. eigenvalues --  -10.24811 -10.22523 -10.19815 -10.19190  -0.99156
 Alpha  occ. eigenvalues --   -0.92458  -0.87475  -0.77836  -0.76702  -0.65944
 Alpha  occ. eigenvalues --   -0.63881  -0.58089  -0.53241  -0.51290  -0.49710
 Alpha  occ. eigenvalues --   -0.45671  -0.45271  -0.43797  -0.41864  -0.39259
 Alpha  occ. eigenvalues --   -0.36944  -0.35284  -0.31755  -0.29988  -0.26290
 Alpha  occ. eigenvalues --   -0.25108  -0.20769
 Alpha virt. eigenvalues --   -0.06840   0.01590   0.02483   0.09262   0.10444
 Alpha virt. eigenvalues --    0.12336   0.13863   0.14814   0.15453   0.15986
 Alpha virt. eigenvalues --    0.18205   0.19463   0.20676   0.24029   0.25815

 Mulliken charges:
               1
     1  N   -0.544890
     2  C    0.393917
     3  N   -0.335327
     4  C   -0.031068
     5  C   -0.120265
     6  C   -0.035112
     7  N   -0.156772
     8  C    0.080398
     9  C   -0.267405
    10  H    0.213572
    11  H    0.248053
    12  H    0.089665
    13  H    0.104780
    14  H    0.115916
    15  H    0.123971
    16  H    0.120566
 Sum of Mulliken charges =  -0.00000

 Dipole moment (field-independent basis, Debye):
    X=              2.3907    Y=              3.1577    Z=             -0.9327  Tot=              4.0690
 Quadrupole moment (field-independent basis, Debye-Ang):
   XX=            -53.3629   YY=            -54.7596   ZZ=            -47.5355
   XY=             -4.0813   XZ=              2.1548   YZ=             -1.4784

  Exact polarizability:  96.260   1.900  73.911  -3.773  -2.517  61.655
 Approx polarizability: 149.262   8.172 140.235 -13.985 -10.952 104.033

                      1                      2                      3
                      A                      A                      A
 Frequencies --    154.2329               302.3970               318.8149
 Red. masses --      4.4539                 2.6115                 4.2761
 Frc consts  --      0.0624                 0.1407                 0.2561
 IR Inten    --      0.9438                 6.0832                 1.2471

                      4                      5                      6
                      A                      A                      A
 Frequencies --    430.9922               466.4431               483.0680
 Red. masses --      4.0096                 2.0641                 2.9977
 Frc consts  --      0.4388                 0.2646                 0.4122
 IR Inten    --     14.1346                11.4158                 7.8492

                      7                      8                      9
                      A                      A                      A
 Frequencies --    515.3076               558.6024               643.8034
 Red. masses --      2.0919                 4.9637                 4.7560
 Frc consts  --      0.3273                 0.9126                 1.1614
 IR Inten    --     96.2408                21.0297                 5.3295

                     10                     11                     12
                      A                      A                      A
 Frequencies --    701.8002               707.0637               741.9139
 Red. masses --      4.0177                 2.7586                 2.3717
 Frc consts  --      1.1659                 0.8125                 0.7691
 IR Inten    --     13.3373                20.6085                23.2866

                     13                     14                     15
                      A                      A                      A
 Frequencies --    804.6100               861.1936               875.2452
 Red. masses --      2.8731                 2.3819                 3.7364
 Frc consts  --      1.0959                 1.0408                 1.6864
 IR Inten    --     23.5776                14.5324                10.2792

                     16                     17                     18
                      A                      A                      A
 Frequencies --    881.4223               936.8584               953.7116
 Red. masses --      1.7614                 1.6880                 2.0905
 Frc consts  --      0.8062                 0.8729                 1.1203
 IR Inten    --     42.8708                10.3988                21.3609

                     19                     20                     21
                      A                      A                      A
 Frequencies --    975.0447               986.9123              1015.0640
 Red. masses --      1.9617                 4.1995                 1.8951
 Frc consts  --      1.0988                 2.4099                 1.1505
 IR Inten    --      9.9599                26.7915                47.3903

                     22                     23                     24
                      A                      A                      A
 Frequencies --   1060.8809              1113.9459              1138.6664
 Red. masses --      2.2682                 1.7770                 1.2078
 Frc consts  --      1.5040                 1.2991                 0.9227
 IR Inten    --     22.9601                 0.9606                 5.5903

                     25                     26                     27
                      A                      A                      A
 Frequencies --   1189.9336              1198.6398              1260.9237
 Red. masses --      1.7953                 1.3226                 1.7367
 Frc consts  --      1.4977                 1.1196                 1.6269
 IR Inten    --      5.3786                68.9486                77.1923

                     28                     29                     30
                      A                      A                      A
 Frequencies --   1294.9387              1331.5579              1364.2290
 Red. masses --      1.4942                 1.5078                 1.5117
 Frc consts  --      1.4762                 1.5751                 1.6576
 IR Inten    --     12.5228                33.9506                12.7252

                     31                     32                     33
                      A                      A                      A
 Frequencies --   1375.1564              1488.0045              1560.8463
 Red. masses --      1.4115                 1.1130                 5.6920
 Frc consts  --      1.5726                 1.4520                 8.1703
 IR Inten    --      4.1064                 7.3181                 9.1234

                     34                     35                     36
                      A                      A                      A
 Frequencies --   1612.8450              1785.0339              3088.5383
 Red. masses --      7.4994                 9.1944                 1.0690
 Frc consts  --     11.4938                17.2610                 6.0082
 IR Inten    --     64.6477               282.4612                16.2723

                     37                     38                     39
                      A                      A                      A
 Frequencies --   3097.0827              3167.0531              3193.5709
 Red. masses --      1.0774                 1.1081                 1.0861
 Frc consts  --      6.0886                 6.5482                 6.5265
 IR Inten    --     28.9801                 6.5304                 8.4128

                     40                     41                     42
                      A                      A                      A
 Frequencies --   3215.7287              3445.9698              3571.7377
 Red. masses --      1.0995                 1.0742                 1.0762
 Frc consts  --      6.6987                 7.5154                 8.0891
 IR Inten    --     14.2485                 0.4680                16.0119

 - Thermochemistry -
 -------------------
 Temperature   298.150 Kelvin.  Pressure   1.00000 Atm.
 Atom     1 has atomic number  7 and mass  14.00307

 Molecular mass:   121.06400 amu.
 Principal axes and moments of inertia in atomic units:
                           1         2         3
     Eigenvalues --   558.677341019.257491193.32411
           X            0.99996  -0.00649   0.00605
           Y            0.00633   0.99962   0.02679
           Z           -0.00622  -0.02675   0.99962
 This molecule is an asymmetric top.
 Rotational symmetry number  1.
 Warning -- assumption of classical behavior for rotation
           may cause significant error
 Rotational temperatures (Kelvin)      0.15503     0.08498     0.07258
 Rotational constants (GHZ):           3.23038     1.77064     1.51236
 Zero-point vibrational energy     334175.5 (Joules/Mol)
                                   79.86987 (Kcal/Mol)
 Warning -- explicit consideration of   8 degrees of freedom as
           vibrations may cause significant error
 Vibrational temperatures:    221.91   435.08   458.70   620.10   671.11
          (Kelvin)            695.03   741.41   803.70   926.29  1009.73
                             1017.31  1067.45  1157.65  1239.07  1259.28
                             1268.17  1347.93  1372.18  1402.87  1419.95
                             1460.45  1526.37  1602.72  1638.29  1712.05
                             1724.58  1814.19  1863.13  1915.81  1962.82
                             1978.54  2140.91  2245.71  2320.52  2568.27
                             4443.72  4456.01  4556.68  4594.84  4626.72
                             4957.98  5138.93

 Zero-point correction=                           0.127281 (Hartree/Particle)
 Thermal correction to Energy=                    0.133819
 Thermal correction to Enthalpy=                  0.134764
 Thermal correction to Gibbs Free Energy=         0.096776
 Sum of electronic and zero-point Energies=           -396.876167
 Sum of electronic and thermal Energies=              -396.869628
 Sum of electronic and thermal Enthalpies=            -396.868684
 Sum of electronic and thermal Free Energies=         -396.906672

                     E (Thermal)             CV                S
                      KCal/Mol        Cal/Mol-Kelvin    Cal/Mol-Kelvin
 Total                   83.973             27.303             79.952
 Electronic               0.000              0.000              0.000
 Translational            0.889              2.981             40.288
 Rotational               0.889              2.981             28.010
 Vibrational             82.195             21.341             11.655
 Vibration     1          0.620              1.898              2.619
 Vibration     2          0.694              1.669              1.404
 Vibration     3          0.705              1.638              1.316
 Vibration     4          0.792              1.403              0.855
 Vibration     5          0.824              1.324              0.748
 Vibration     6          0.839              1.288              0.702
 Vibration     7          0.870              1.216              0.621
 Vibration     8          0.914              1.121              0.527

 Optimization completed.
    -- Stationary point found.
 Normal termination of Gaussian 16 at Thu Aug  4 08:58:31 2022.
