 Gaussian 16, Revision A.03,
 Gaussian 16:  ES64L-G16RevA.03 25-Dec-2016

 -----------------------------
 # opt freq b3lyp/6-31g(2df,p)
 -----------------------------

 -------------------
 Title Card Required
 -------------------
 Symbolic Z-matrix:
 Charge =  0 Multiplicity = 1

 SCF Done:  E(RB3LYP) =  -373.566071901     A.U. after   21 cycles
 SCF Done:  E(RB3LYP) =  -373.622062889     A.U. after   16 cycles
 SCF Done:  E(RB3LYP) =  -373.672042084     A.U. after   15 cycles
 SCF Done:  E(RB3LYP) =  -373.704394191     A.U. after   15 cycles
 SCF Done:  E(RB3LYP) =  -373.728026339     A.U. after   15 cycles
 SCF Done:  E(RB3LYP) =  -373.740769647     A.U. after   14 cycles
 SCF Done:  E(RB3LYP) =  -373.745877109     A.U. after   14 cycles
 SCF Done:  E(RB3LYP) =  -373.747048686     A.U. after   13 cycles
 SCF Done:  E(RB3LYP) =  -373.747220970     A.U. after   12 cycles
 SCF Done:  E(RB3LYP) =  -373.747263025     A.U. after   11 cycles
 SCF Done:  E(RB3LYP) =  -373.747278223     A.U. after   10 cycles
 SCF Done:  E(RB3LYP) =  -373.747282276     A.U. after    9 cycles
 SCF Done:  E(RB3LYP) =  -373.747282651     A.U. after    8 cycles
 Optimization completed.
    -- Stationary point found.
 Normal termination of Gaussian 16 at Thu Aug  4 11:39:58 2022.

 ----------------------------------------------------------------------
 #N Geom=AllCheck Guess=TCheck SCRF=Check GenChk RB3LYP/6-31G(2df,p) Fr
 eq
 ----------------------------------------------------------------------

 Structure from the checkpoint file:  "Ndc1cnnccn1.chk"
 -------------------
 Title Card Required
 -------------------
 Charge =  0 Multiplicity = 1

                         Standard orientation:
 ---------------------------------------------------------------------
 Center     Atomic      Atomic             Coordinates (Angstroms)
 Number     Number       Type             X           Y           Z
 ---------------------------------------------------------------------
      1          7           0       -2.188356   -0.177562   -0.721827
      2          6           0       -1.162874   -0.097399    0.020438
      3          6           0       -0.521406    1.144440    0.560145
      4          7           0        0.687255    1.485746    0.317865
      5          7           0        1.503720    0.781819   -0.516929
      6          6           0        1.585829   -0.506342   -0.442423
      7          6           0        0.724834   -1.406076    0.327658
      8          7           0       -0.531577   -1.244659    0.523102
      9          1           0       -2.536652    0.756341   -0.946743
     10          1           0       -1.092799    1.789177    1.227232
     11          1           0        2.393466   -0.956585   -1.019107
     12          1           0        1.180399   -2.314080    0.728233
 ---------------------------------------------------------------------

 SCF Done:  E(RB3LYP) =  -373.747282651     A.U. after    1 cycles

 The electronic state is 1-A.
 Alpha  occ. eigenvalues --  -14.39214 -14.39154 -14.36875 -14.32994 -10.27838
 Alpha  occ. eigenvalues --  -10.26847 -10.26177 -10.25706  -1.03941  -0.97490
 Alpha  occ. eigenvalues --   -0.90724  -0.86461  -0.72701  -0.70551  -0.59729
 Alpha  occ. eigenvalues --   -0.58568  -0.53432  -0.50456  -0.49032  -0.47475
 Alpha  occ. eigenvalues --   -0.43238  -0.37695  -0.36276  -0.33356  -0.32516
 Alpha  occ. eigenvalues --   -0.29100  -0.26372  -0.26063
 Alpha virt. eigenvalues --   -0.09009  -0.06299   0.01501   0.03499   0.09888
 Alpha virt. eigenvalues --    0.11238   0.12792   0.13966   0.18030   0.22504
 Alpha virt. eigenvalues --    0.25269   0.28801   0.32004   0.33358   0.35043

 Mulliken charges:
               1
     1  N   -0.465992
     2  C    0.293948
     3  C   -0.045324
     4  N   -0.117089
     5  N   -0.152428
     6  C    0.015591
     7  C   -0.010714
     8  N   -0.172923
     9  H    0.232707
    10  H    0.148864
    11  H    0.136772
    12  H    0.136588
 Sum of Mulliken charges =  -0.00000

 Dipole moment (field-independent basis, Debye):
    X=              0.8735    Y=             -0.2275    Z=              0.7583  Tot=              1.1789
 Quadrupole moment (field-independent basis, Debye-Ang):
   XX=            -46.4006   YY=            -45.6533   ZZ=            -45.2405
   XY=            -12.1235   XZ=             -1.1927   YZ=              0.5158

  Exact polarizability:  82.381  -8.858  68.120  -1.296   1.108  43.930
 Approx polarizability: 146.685  -5.773 121.774  -4.127   0.880  75.409

                      1                      2                      3
                      A                      A                      A
 Frequencies --    116.2095               253.5304               317.8643
 Red. masses --      5.8025                 5.3464                 4.6369
 Frc consts  --      0.0462                 0.2025                 0.2760
 IR Inten    --      0.9262                26.1534                 3.8121

                      4                      5                      6
                      A                      A                      A
 Frequencies --    392.6266               405.6653               485.9386
 Red. masses --      5.5197                 3.5390                 5.5270
 Frc consts  --      0.5013                 0.3431                 0.7690
 IR Inten    --      2.2518                 9.2045                 7.4123

                      7                      8                      9
                      A                      A                      A
 Frequencies --    626.7498               652.0574               773.9216
 Red. masses --      4.9543                 4.2696                 8.2947
 Frc consts  --      1.1466                 1.0696                 2.9272
 IR Inten    --      7.3978                14.3797                 2.4043

                     10                     11                     12
                      A                      A                      A
 Frequencies --    850.8751               868.6997               891.2472
 Red. masses --      1.9389                 2.7019                 1.2964
 Frc consts  --      0.8271                 1.2013                 0.6067
 IR Inten    --     22.1899                 5.8214                33.9365

                     13                     14                     15
                      A                      A                      A
 Frequencies --    912.1223               930.8515               953.5708
 Red. masses --      2.3712                 3.9549                 1.9506
 Frc consts  --      1.1623                 2.0191                 1.0450
 IR Inten    --     20.2702                65.8544                11.0751

                     16                     17                     18
                      A                      A                      A
 Frequencies --    969.0503              1029.7758              1059.2518
 Red. masses --      2.2921                 2.2108                 2.0138
 Frc consts  --      1.2682                 1.3813                 1.3313
 IR Inten    --      3.1806                 2.9569               100.0143

                     19                     20                     21
                      A                      A                      A
 Frequencies --   1314.1636              1338.0296              1382.6235
 Red. masses --      1.6076                 1.2863                 1.3551
 Frc consts  --      1.6358                 1.3568                 1.5262
 IR Inten    --     47.1691                 3.7756                 6.6942

                     22                     23                     24
                      A                      A                      A
 Frequencies --   1412.1575              1567.1736              1630.2827
 Red. masses --      1.4608                 8.4416                10.2418
 Frc consts  --      1.7163                12.2154                16.0381
 IR Inten    --     10.1771                 7.2625                 8.7345

                     25                     26                     27
                      A                      A                      A
 Frequencies --   1679.0880              1725.4881              3109.0051
 Red. masses --      8.7647                 9.7921                 1.0877
 Frc consts  --     14.5590                17.1771                 6.1945
 IR Inten    --     19.6968               147.5205                17.8343

                     28                     29                     30
                      A                      A                      A
 Frequencies --   3137.6159              3139.9523              3465.9430
 Red. masses --      1.0898                 1.0891                 1.0752
 Frc consts  --      6.3213                 6.3266                 7.6101
 IR Inten    --     20.9733                 3.3916                 3.2290

 - Thermochemistry -
 -------------------
 Temperature   298.150 Kelvin.  Pressure   1.00000 Atm.
 Atom     1 has atomic number  7 and mass  14.00307

 Molecular mass:   108.04360 amu.
 Principal axes and moments of inertia in atomic units:
                           1         2         3
     Eigenvalues --   503.09541 746.297351051.66173
           X            0.99140  -0.13078  -0.00393
           Y            0.13081   0.99137   0.00922
           Z            0.00269  -0.00966   0.99995
 This molecule is an asymmetric top.
 Rotational symmetry number  1.
 Warning -- assumption of classical behavior for rotation
           may cause significant error
 Rotational temperatures (Kelvin)      0.17216     0.11606     0.08236
 Rotational constants (GHZ):           3.58727     2.41826     1.71609
 Zero-point vibrational energy     223651.0 (Joules/Mol)
                                   53.45388 (Kcal/Mol)
 Warning -- explicit consideration of   6 degrees of freedom as
           vibrations may cause significant error
 Vibrational temperatures:    167.20   364.77   457.34   564.90   583.66
          (Kelvin)            699.16   901.75   938.17  1113.50  1224.22
                             1249.87  1282.31  1312.34  1339.29  1371.98
                             1394.25  1481.62  1524.03  1890.79  1925.13
                             1989.29  2031.78  2254.81  2345.61  2415.83
                             2482.59  4473.16  4514.33  4517.69  4986.72

 Zero-point correction=                           0.085184 (Hartree/Particle)
 Thermal correction to Energy=                    0.091296
 Thermal correction to Enthalpy=                  0.092240
 Thermal correction to Gibbs Free Energy=         0.054964
 Sum of electronic and zero-point Energies=           -373.662098
 Sum of electronic and thermal Energies=              -373.655987
 Sum of electronic and thermal Enthalpies=            -373.655042
 Sum of electronic and thermal Free Energies=         -373.692318

                     E (Thermal)             CV                S
                      KCal/Mol        Cal/Mol-Kelvin    Cal/Mol-Kelvin
 Total                   57.289             22.853             78.454
 Electronic               0.000              0.000              0.000
 Translational            0.889              2.981             39.949
 Rotational               0.889              2.981             27.470
 Vibrational             55.512             16.892             11.035
 Vibration     1          0.608              1.936              3.162
 Vibration     2          0.665              1.757              1.706
 Vibration     3          0.704              1.639              1.321
 Vibration     4          0.760              1.486              0.990
 Vibration     5          0.771              1.458              0.942
 Vibration     6          0.842              1.281              0.694

 Optimization completed.
    -- Stationary point found.
 Normal termination of Gaussian 16 at Thu Aug  4 11:54:07 2022.
