 Gaussian 16, Revision A.03,
 Gaussian 16:  ES64L-G16RevA.03 25-Dec-2016

 -----------------------------
 # opt freq b3lyp/6-31g(2df,p)
 -----------------------------

 -------------------
 Title Card Required
 -------------------
 Symbolic Z-matrix:
 Charge =  0 Multiplicity = 1

 SCF Done:  E(RB3LYP) =  -372.524510526     A.U. after   28 cycles
 SCF Done:  E(RB3LYP) =  -372.976293260     A.U. after   17 cycles
 SCF Done:  E(RB3LYP) =  -373.260241848     A.U. after   18 cycles
 SCF Done:  E(RB3LYP) =  -373.293223969     A.U. after   24 cycles
 SCF Done:  E(RB3LYP) =  -373.363610873     A.U. after   29 cycles
 SCF Done:  E(RB3LYP) =  -373.405392212     A.U. after   30 cycles
 SCF Done:  E(RB3LYP) =  -373.458188616     A.U. after   24 cycles
 SCF Done:  E(RB3LYP) =  -373.506177309     A.U. after   19 cycles
 SCF Done:  E(RB3LYP) =  -373.541501287     A.U. after   18 cycles
 SCF Done:  E(RB3LYP) =  -373.570438323     A.U. after   18 cycles
 SCF Done:  E(RB3LYP) =  -373.763941697     A.U. after    9 cycles
 SCF Done:  E(RB3LYP) =  -373.763949265     A.U. after    9 cycles
 SCF Done:  E(RB3LYP) =  -373.763957219     A.U. after    9 cycles
 SCF Done:  E(RB3LYP) =  -373.763963314     A.U. after    9 cycles
 SCF Done:  E(RB3LYP) =  -373.763967412     A.U. after    9 cycles
 SCF Done:  E(RB3LYP) =  -373.763970526     A.U. after    9 cycles
 SCF Done:  E(RB3LYP) =  -373.763972847     A.U. after    9 cycles
 SCF Done:  E(RB3LYP) =  -373.763974002     A.U. after    9 cycles
 SCF Done:  E(RB3LYP) =  -373.763974339     A.U. after    8 cycles
 Optimization completed.
    -- Stationary point found.
 Normal termination of Gaussian 16 at Thu Aug  4 14:06:42 2022.

 ----------------------------------------------------------------------
 #N Geom=AllCheck Guess=TCheck SCRF=Check GenChk RB3LYP/6-31G(2df,p) Fr
 eq
 ----------------------------------------------------------------------

 Structure from the checkpoint file:  "Ndc1ccnncn1.chk"
 -------------------
 Title Card Required
 -------------------
 Charge =  0 Multiplicity = 1

                         Standard orientation:
 ---------------------------------------------------------------------
 Center     Atomic      Atomic             Coordinates (Angstroms)
 Number     Number       Type             X           Y           Z
 ---------------------------------------------------------------------
      1          7           0        3.028062   -0.677897    0.018136
      2          6           0        1.890100   -0.142207   -0.037590
      3          6           0        1.189518    1.161288   -0.016762
      4          6           0        0.026269    0.467664    0.015269
      5          7           0       -1.293199    0.792570    0.073382
      6          7           0       -3.307819   -0.570484    0.082127
      7          6           0       -2.273234    0.056523   -0.005453
      8          7           0        0.602644   -0.850701   -0.116674
      9          1           0        3.756600    0.035184    0.072131
     10          1           0        1.472532    2.194088   -0.127004
     11          1           0        0.429352   -1.507317    0.643732
     12          1           0       -3.862226   -0.835987   -0.720434
 ---------------------------------------------------------------------

 SCF Done:  E(RB3LYP) =  -373.763974339     A.U. after    1 cycles

 The electronic state is 1-A.
 Alpha  occ. eigenvalues --  -14.37705 -14.36917 -14.34246 -14.30959 -10.31292
 Alpha  occ. eigenvalues --  -10.28109 -10.26076 -10.18845  -1.01118  -0.97386
 Alpha  occ. eigenvalues --   -0.93213  -0.87709  -0.74917  -0.68399  -0.59614
 Alpha  occ. eigenvalues --   -0.55327  -0.54863  -0.47724  -0.46364  -0.43896
 Alpha  occ. eigenvalues --   -0.43135  -0.40990  -0.38031  -0.33444  -0.30302
 Alpha  occ. eigenvalues --   -0.27618  -0.26490  -0.22672
 Alpha virt. eigenvalues --   -0.05448   0.00858   0.03725   0.07873   0.08388
 Alpha virt. eigenvalues --    0.11168   0.12505   0.15034   0.16368   0.19668
 Alpha virt. eigenvalues --    0.22253   0.26929   0.31816   0.35654   0.39457

 Mulliken charges:
               1
     1  N   -0.523667
     2  C    0.416715
     3  C   -0.421840
     4  C    0.472950
     5  N   -0.366402
     6  N   -0.525774
     7  C    0.467967
     8  N   -0.410624
     9  H    0.229742
    10  H    0.124845
    11  H    0.240717
    12  H    0.295371
 Sum of Mulliken charges =  -0.00000

 Dipole moment (field-independent basis, Debye):
    X=             -2.1313    Y=              1.0651    Z=             -0.3969  Tot=              2.4154
 Quadrupole moment (field-independent basis, Debye-Ang):
   XX=            -40.7812   YY=            -45.5604   ZZ=            -44.7111
   XY=              8.6930   XZ=              5.9244   YZ=             -1.0665

  Exact polarizability: 135.163  13.129  59.554   1.280  -0.913  33.610
 Approx polarizability: 225.096  33.621 106.539  -0.316  -1.182  53.128

                      1                      2                      3
                      A                      A                      A
 Frequencies --     79.2888                97.9341               174.4750
 Red. masses --      4.3145                 6.4099                 5.7253
 Frc consts  --      0.0160                 0.0362                 0.1027
 IR Inten    --      4.8897                 0.6499                11.1994

                      4                      5                      6
                      A                      A                      A
 Frequencies --    346.4227               410.9565               509.9891
 Red. masses --      5.6652                 1.4859                 4.1365
 Frc consts  --      0.4006                 0.1479                 0.6339
 IR Inten    --      4.9778               101.7033                 3.7266

                      7                      8                      9
                      A                      A                      A
 Frequencies --    523.2799               550.0334               612.3046
 Red. masses --      4.2622                 3.8433                 2.7769
 Frc consts  --      0.6876                 0.6851                 0.6134
 IR Inten    --     33.4941                14.9890                 6.8862

                     10                     11                     12
                      A                      A                      A
 Frequencies --    643.8442               695.8919               750.7044
 Red. masses --      1.5257                 6.9489                 1.8030
 Frc consts  --      0.3726                 1.9827                 0.5987
 IR Inten    --     81.9269                 6.8880                12.7521

                     13                     14                     15
                      A                      A                      A
 Frequencies --    790.0524               829.9148               853.7640
 Red. masses --      3.6111                 1.6794                 1.9691
 Frc consts  --      1.3280                 0.6815                 0.8456
 IR Inten    --     25.9390               392.7086               223.9310

                     16                     17                     18
                      A                      A                      A
 Frequencies --    894.3015               948.2200              1063.9604
 Red. masses --      1.4840                 2.3746                 3.9130
 Frc consts  --      0.6993                 1.2579                 2.6098
 IR Inten    --     82.8219                60.6077                33.3368

                     19                     20                     21
                      A                      A                      A
 Frequencies --   1126.9539              1196.4397              1258.4074
 Red. masses --      2.0561                 1.6176                 1.3805
 Frc consts  --      1.5386                 1.3643                 1.2880
 IR Inten    --     15.1650                21.3344                 3.6045

                     22                     23                     24
                      A                      A                      A
 Frequencies --   1313.4253              1427.9675              1673.6138
 Red. masses --      2.6619                 8.0744                 8.4824
 Frc consts  --      2.7055                 9.7006                13.9985
 IR Inten    --    145.6627                53.3984               449.4445

                     25                     26                     27
                      A                      A                      A
 Frequencies --   1806.0505              2252.8765              3281.4725
 Red. masses --     10.0779                10.1293                 1.1038
 Frc consts  --     19.3679                30.2903                 7.0028
 IR Inten    --    124.7063              1291.9768                 1.0586

                     28                     29                     30
                      A                      A                      A
 Frequencies --   3474.0118              3478.5928              3616.7883
 Red. masses --      1.0747                 1.0749                 1.0820
 Frc consts  --      7.6418                 7.6633                 8.3395
 IR Inten    --      3.3406                 4.6124               133.5183

 - Thermochemistry -
 -------------------
 Temperature   298.150 Kelvin.  Pressure   1.00000 Atm.
 Atom     1 has atomic number  7 and mass  14.00307

 Molecular mass:   108.04360 amu.
 Principal axes and moments of inertia in atomic units:
                           1         2         3
     Eigenvalues --   207.486031660.592441858.62854
           X            0.99987   0.01459   0.00660
           Y           -0.01451   0.99984  -0.01081
           Z           -0.00676   0.01071   0.99992
 This molecule is an asymmetric top.
 Rotational symmetry number  1.
 Rotational temperatures (Kelvin)      0.41744     0.05216     0.04660
 Rotational constants (GHZ):           8.69813     1.08681     0.97101
 Zero-point vibrational energy     219406.7 (Joules/Mol)
                                   52.43946 (Kcal/Mol)
 Warning -- explicit consideration of   9 degrees of freedom as
           vibrations may cause significant error
 Vibrational temperatures:    114.08   140.91   251.03   498.42   591.27
          (Kelvin)            733.76   752.88   791.38   880.97   926.35
                             1001.23  1080.10  1136.71  1194.06  1228.38
                             1286.70  1364.28  1530.80  1621.44  1721.41
                             1810.57  1889.73  2054.53  2407.96  2598.50
                             3241.39  4721.31  4998.33  5004.92  5203.75

 Zero-point correction=                           0.083568 (Hartree/Particle)
 Thermal correction to Energy=                    0.090711
 Thermal correction to Enthalpy=                  0.091655
 Thermal correction to Gibbs Free Energy=         0.051732
 Sum of electronic and zero-point Energies=           -373.680407
 Sum of electronic and thermal Energies=              -373.673263
 Sum of electronic and thermal Enthalpies=            -373.672319
 Sum of electronic and thermal Free Energies=         -373.712243

                     E (Thermal)             CV                S
                      KCal/Mol        Cal/Mol-Kelvin    Cal/Mol-Kelvin
 Total                   56.922             25.899             84.026
 Electronic               0.000              0.000              0.000
 Translational            0.889              2.981             39.949
 Rotational               0.889              2.981             27.951
 Vibrational             55.145             19.937             16.126
 Vibration     1          0.600              1.963              3.908
 Vibration     2          0.603              1.951              3.495
 Vibration     3          0.627              1.874              2.387
 Vibration     4          0.724              1.583              1.182
 Vibration     5          0.775              1.446              0.923
 Vibration     6          0.865              1.228              0.634
 Vibration     7          0.878              1.198              0.602
 Vibration     8          0.905              1.140              0.544
 Vibration     9          0.972              1.006              0.429

                           ! Non-Optimized Parameters !
 Normal termination of Gaussian 16 at Thu Aug  4 14:18:35 2022.
