 Gaussian 16, Revision A.03,
 Gaussian 16:  ES64L-G16RevA.03 25-Dec-2016

 -----------------------------
 # opt freq b3lyp/6-31g(2df,p)
 -----------------------------

 -------------------
 Title Card Required
 -------------------
 Symbolic Z-matrix:
 Charge =  0 Multiplicity = 1

 SCF Done:  E(RB3LYP) =  -414.660451955     A.U. after   15 cycles
 SCF Done:  E(RB3LYP) =  -414.668308218     A.U. after   13 cycles
 SCF Done:  E(RB3LYP) =  -414.670077940     A.U. after   13 cycles
 SCF Done:  E(RB3LYP) =  -414.671466802     A.U. after   13 cycles
 SCF Done:  E(RB3LYP) =  -414.672573609     A.U. after   13 cycles
 SCF Done:  E(RB3LYP) =  -414.673532061     A.U. after   13 cycles
 SCF Done:  E(RB3LYP) =  -414.674138891     A.U. after   12 cycles
 SCF Done:  E(RB3LYP) =  -414.674541994     A.U. after   12 cycles
 SCF Done:  E(RB3LYP) =  -414.675014166     A.U. after   13 cycles
 SCF Done:  E(RB3LYP) =  -414.675407523     A.U. after   13 cycles
 SCF Done:  E(RB3LYP) =  -414.675788961     A.U. after   12 cycles
 SCF Done:  E(RB3LYP) =  -414.676012735     A.U. after   13 cycles
 SCF Done:  E(RB3LYP) =  -414.676251235     A.U. after   12 cycles
 SCF Done:  E(RB3LYP) =  -414.676444151     A.U. after   11 cycles
 SCF Done:  E(RB3LYP) =  -414.676488136     A.U. after   11 cycles
 SCF Done:  E(RB3LYP) =  -414.676495202     A.U. after   10 cycles
 SCF Done:  E(RB3LYP) =  -414.676495848     A.U. after    8 cycles
 Optimization completed.
    -- Stationary point found.
 Normal termination of Gaussian 16 at Thu Aug  4 10:26:56 2022.

 ----------------------------------------------------------------------
 #N Geom=AllCheck Guess=TCheck SCRF=Check GenChk RB3LYP/6-31G(2df,p) Fr
 eq
 ----------------------------------------------------------------------

 Structure from the checkpoint file:  "NdC1CdNOCdCO1.chk"
 -------------------
 Title Card Required
 -------------------
 Charge =  0 Multiplicity = 1

                         Standard orientation:
 ---------------------------------------------------------------------
 Center     Atomic      Atomic             Coordinates (Angstroms)
 Number     Number       Type             X           Y           Z
 ---------------------------------------------------------------------
      1          7           0       -2.521673   -0.013059    0.000643
      2          6           0       -1.253862    0.020261   -0.000040
      3          6           0       -0.441202   -1.225767   -0.000954
      4          7           0        0.793636   -1.567847   -0.000209
      5          8           0        1.827795   -0.683893    0.000983
      6          6           0        1.680444    0.682475   -0.000055
      7          6           0        0.626254    1.492152   -0.000435
      8          8           0       -0.717306    1.264475    0.000122
      9          1           0       -2.861979   -0.972410    0.000344
     10          1           0       -1.076869   -2.109051   -0.001516
     11          1           0        2.665505    1.130993   -0.000531
     12          1           0        0.815887    2.557431   -0.001266
 ---------------------------------------------------------------------

 SCF Done:  E(RB3LYP) =  -414.676495848     A.U. after    1 cycles

 The electronic state is 1-A.
 Alpha  occ. eigenvalues --  -19.23040 -19.21092 -14.41638 -14.33760 -10.31121
 Alpha  occ. eigenvalues --  -10.25964 -10.25325 -10.25272  -1.13887  -1.11458
 Alpha  occ. eigenvalues --   -0.93486  -0.89686  -0.78718  -0.72061  -0.64588
 Alpha  occ. eigenvalues --   -0.62518  -0.54865  -0.51286  -0.48521  -0.47894
 Alpha  occ. eigenvalues --   -0.45478  -0.44755  -0.42902  -0.36805  -0.35824
 Alpha  occ. eigenvalues --   -0.32318  -0.29357  -0.28830  -0.23808
 Alpha virt. eigenvalues --   -0.07874   0.03994   0.04621   0.07445   0.08808
 Alpha virt. eigenvalues --    0.11227   0.14255   0.15040   0.16838   0.22763
 Alpha virt. eigenvalues --    0.27596   0.28803   0.31334   0.38219   0.38488

 Mulliken charges:
               1
     1  N   -0.454824
     2  C    0.373871
     3  C   -0.045144
     4  N   -0.058798
     5  O   -0.252229
     6  C    0.011170
     7  C   -0.022593
     8  O   -0.214407
     9  H    0.243202
    10  H    0.136888
    11  H    0.141090
    12  H    0.141775
 Sum of Mulliken charges =  -0.00000

 Dipole moment (field-independent basis, Debye):
    X=              0.5521    Y=              0.1758    Z=             -0.0030  Tot=              0.5794
 Quadrupole moment (field-independent basis, Debye-Ang):
   XX=            -47.0647   YY=            -43.2406   ZZ=            -45.4739
   XY=             10.8756   XZ=              0.0020   YZ=             -0.0021

  Exact polarizability:  90.487   5.219  64.025   0.000   0.000  29.642
 Approx polarizability: 168.046  -7.400  99.454   0.013  -0.001  47.455

                      1                      2                      3
                      A                      A                      A
 Frequencies --     72.1357                89.6736               390.6834
 Red. masses --      5.5775                 4.3192                 9.6365
 Frc consts  --      0.0171                 0.0205                 0.8666
 IR Inten    --      5.3851                10.9312                 9.5006

                      4                      5                      6
                      A                      A                      A
 Frequencies --    393.0325               419.0241               501.9941
 Red. masses --      7.1845                 8.3977                 5.9789
 Frc consts  --      0.6539                 0.8687                 0.8877
 IR Inten    --      2.8062                 0.4577                11.2969

                      7                      8                      9
                      A                      A                      A
 Frequencies --    502.0869               701.3345               722.3221
 Red. masses --      5.9685                 4.9697                 9.1333
 Frc consts  --      0.8865                 1.4402                 2.8076
 IR Inten    --      7.8046                 3.4520                 2.5344

                     10                     11                     12
                      A                      A                      A
 Frequencies --    768.1599               849.2140               875.6412
 Red. masses --      1.3176                 1.1254                 7.5206
 Frc consts  --      0.4581                 0.4782                 3.3975
 IR Inten    --     32.4424                 8.4077                24.4119

                     13                     14                     15
                      A                      A                      A
 Frequencies --    881.9179               900.1868               912.6683
 Red. masses --      5.5607                 1.1774                 1.3019
 Frc consts  --      2.5482                 0.5621                 0.6389
 IR Inten    --     27.2656                 0.1866                47.3723

                     16                     17                     18
                      A                      A                      A
 Frequencies --    946.4291               986.4600              1103.2455
 Red. masses --      7.5545                 4.0677                 1.9885
 Frc consts  --      3.9869                 2.3322                 1.4260
 IR Inten    --      1.5119                10.4567               171.5374

                     19                     20                     21
                      A                      A                      A
 Frequencies --   1180.0921              1325.8016              1380.8624
 Red. masses --      3.3900                 1.5809                 1.2792
 Frc consts  --      2.7815                 1.6372                 1.4371
 IR Inten    --    165.6002                27.0605                 1.7278

                     22                     23                     24
                      A                      A                      A
 Frequencies --   1406.0472              1439.6605              1641.9914
 Red. masses --      1.4830                 1.5400                11.1392
 Frc consts  --      1.7274                 1.8805                17.6948
 IR Inten    --    136.9830                19.0106                 7.8599

                     25                     26                     27
                      A                      A                      A
 Frequencies --   1699.4319              1765.3762              3151.0579
 Red. masses --      8.3338                 8.1698                 1.0871
 Frc consts  --     14.1808                15.0015                 6.3598
 IR Inten    --    111.0806               109.5860                 2.4012

                     28                     29                     30
                      A                      A                      A
 Frequencies --   3216.2535              3234.9792              3522.2889
 Red. masses --      1.0851                 1.0960                 1.0754
 Frc consts  --      6.6133                 6.7576                 7.8607
 IR Inten    --      1.2486                 3.3425                 8.0600

 - Thermochemistry -
 -------------------
 Temperature   298.150 Kelvin.  Pressure   1.00000 Atm.
 Atom     1 has atomic number  7 and mass  14.00307

 Molecular mass:   112.02728 amu.
 Principal axes and moments of inertia in atomic units:
                           1         2         3
     Eigenvalues --   464.89062 848.235491313.12583
           X            0.99555   0.09419  -0.00001
           Y           -0.09419   0.99555  -0.00001
           Z            0.00001   0.00001   1.00000
 This molecule is an asymmetric top.
 Rotational symmetry number  1.
 Warning -- assumption of classical behavior for rotation
           may cause significant error
 Rotational temperatures (Kelvin)      0.18631     0.10211     0.06596
 Rotational constants (GHZ):           3.88208     2.12764     1.37439
 Zero-point vibrational energy     221189.8 (Joules/Mol)
                                   52.86564 (Kcal/Mol)
 Warning -- explicit consideration of   7 degrees of freedom as
           vibrations may cause significant error
 Vibrational temperatures:    103.79   129.02   562.11   565.49   602.88
          (Kelvin)            722.26   722.39  1009.06  1039.26  1105.21
                             1221.83  1259.85  1268.88  1295.17  1313.13
                             1361.70  1419.30  1587.32  1697.89  1907.53
                             1986.75  2022.99  2071.35  2362.46  2445.10
                             2539.98  4533.67  4627.47  4654.41  5067.79

 Zero-point correction=                           0.084247 (Hartree/Particle)
 Thermal correction to Energy=                    0.090751
 Thermal correction to Enthalpy=                  0.091696
 Thermal correction to Gibbs Free Energy=         0.052865
 Sum of electronic and zero-point Energies=           -414.592249
 Sum of electronic and thermal Energies=              -414.585744
 Sum of electronic and thermal Enthalpies=            -414.584800
 Sum of electronic and thermal Free Energies=         -414.623631

                     E (Thermal)             CV                S
                      KCal/Mol        Cal/Mol-Kelvin    Cal/Mol-Kelvin
 Total                   56.947             23.597             81.725
 Electronic               0.000              0.000              0.000
 Translational            0.889              2.981             40.057
 Rotational               0.889              2.981             27.740
 Vibrational             55.170             17.636             13.929
 Vibration     1          0.598              1.967              4.094
 Vibration     2          0.602              1.956              3.667
 Vibration     3          0.758              1.490              0.998
 Vibration     4          0.760              1.485              0.989
 Vibration     5          0.782              1.429              0.895
 Vibration     6          0.857              1.246              0.653
 Vibration     7          0.857              1.245              0.653

                           ! Non-Optimized Parameters !
 Normal termination of Gaussian 16 at Thu Aug  4 10:42:04 2022.
