 Gaussian 16, Revision A.03,
 Gaussian 16:  ES64L-G16RevA.03 25-Dec-2016

 -----------------------------
 # opt freq b3lyp/6-31g(2df,p)
 -----------------------------

 -------------------
 Title Card Required
 -------------------
 Symbolic Z-matrix:
 Charge =  0 Multiplicity = 1

 SCF Done:  E(RB3LYP) =  -380.783539303     A.U. after   17 cycles
 SCF Done:  E(RB3LYP) =  -380.826722945     A.U. after   14 cycles
 SCF Done:  E(RB3LYP) =  -380.859756788     A.U. after   14 cycles
 SCF Done:  E(RB3LYP) =  -380.867294852     A.U. after   13 cycles
 SCF Done:  E(RB3LYP) =  -380.871800719     A.U. after   13 cycles
 SCF Done:  E(RB3LYP) =  -380.873035473     A.U. after   12 cycles
 SCF Done:  E(RB3LYP) =  -380.873348981     A.U. after   12 cycles
 SCF Done:  E(RB3LYP) =  -380.873395456     A.U. after    9 cycles
 SCF Done:  E(RB3LYP) =  -380.873409270     A.U. after    9 cycles
 SCF Done:  E(RB3LYP) =  -380.873412052     A.U. after    8 cycles
 SCF Done:  E(RB3LYP) =  -380.873412767     A.U. after    7 cycles
 Optimization completed.
    -- Stationary point found.
 Normal termination of Gaussian 16 at Sun Jul  3 20:10:18 2022.

 ----------------------------------------------------------------------
 #N Geom=AllCheck Guess=TCheck SCRF=Check GenChk RB3LYP/6-31G(2df,p) Fr
 eq
 ----------------------------------------------------------------------

 Structure from the checkpoint file:  "NdC1CdC2CN2C2CC12.chk"
 -------------------
 Title Card Required
 -------------------
 Charge =  0 Multiplicity = 1

                         Standard orientation:
 ---------------------------------------------------------------------
 Center     Atomic      Atomic             Coordinates (Angstroms)
 Number     Number       Type             X           Y           Z
 ---------------------------------------------------------------------
      1          7           0       -2.572104   -0.757740   -0.135474
      2          6           0       -1.339972   -0.548396    0.090225
      3          6           0       -0.170989   -1.524611    0.095133
      4          6           0        1.062526   -1.050035   -0.171827
      5          6           0        2.331250   -0.535243    0.346838
      6          7           0        1.462914    0.197134   -0.622139
      7          6           0        0.297561    1.081591   -0.533696
      8          6           0       -0.414414    2.196638    0.190340
      9          6           0       -0.687684    0.733322    0.540226
     10          1           0       -2.710077   -1.715469   -0.470242
     11          1           0       -0.310163   -2.490213    0.569028
     12          1           0        3.300488   -0.790656   -0.072514
     13          1           0        2.344910   -0.262558    1.404559
     14          1           0       -0.150349    0.988278   -1.523315
     15          1           0       -1.069015    2.801761   -0.430222
     16          1           0        0.049767    2.738579    1.007780
     17          1           0       -0.160897    0.534930    1.474790
 ---------------------------------------------------------------------

 SCF Done:  E(RB3LYP) =  -380.873412767     A.U. after    1 cycles

 The electronic state is 1-A.
 Alpha  occ. eigenvalues --  -14.36274 -14.29957 -10.25478 -10.23745 -10.23264
 Alpha  occ. eigenvalues --  -10.23261 -10.21981 -10.19370 -10.18550  -1.00509
 Alpha  occ. eigenvalues --   -0.89909  -0.86427  -0.75403  -0.71413  -0.64813
 Alpha  occ. eigenvalues --   -0.59908  -0.56130  -0.54852  -0.50802  -0.48049
 Alpha  occ. eigenvalues --   -0.47789  -0.44627  -0.42462  -0.39379  -0.37885
 Alpha  occ. eigenvalues --   -0.37114  -0.32964  -0.32290  -0.30399  -0.25872
 Alpha  occ. eigenvalues --   -0.23820  -0.22238
 Alpha virt. eigenvalues --   -0.03671   0.04290   0.06902   0.08212   0.09874
 Alpha virt. eigenvalues --    0.10766   0.12229   0.12865   0.14229   0.15632
 Alpha virt. eigenvalues --    0.16888   0.17710   0.20187   0.21603   0.23330

 Mulliken charges:
               1
     1  N   -0.513500
     2  C    0.258994
     3  C   -0.318738
     4  C    0.239099
     5  C   -0.301025
     6  N   -0.122922
     7  C    0.037416
     8  C   -0.354661
     9  C   -0.032443
    10  H    0.214525
    11  H    0.109241
    12  H    0.146160
    13  H    0.134954
    14  H    0.129643
    15  H    0.136828
    16  H    0.130832
    17  H    0.105597
 Sum of Mulliken charges =  -0.00000

 Dipole moment (field-independent basis, Debye):
    X=              2.7565    Y=              0.1374    Z=              1.0694  Tot=              2.9598
 Quadrupole moment (field-independent basis, Debye-Ang):
   XX=            -57.8266   YY=            -47.5940   ZZ=            -51.9963
   XY=              0.1422   XZ=              3.8487   YZ=              0.0149

  Exact polarizability: 106.712   4.570  86.683   3.921  -0.798  57.547
 Approx polarizability: 180.281  15.103 131.584  -1.963  -5.955  97.822

                      1                      2                      3
                      A                      A                      A
 Frequencies --    126.7977               211.2836               234.5311
 Red. masses --      4.6528                 2.7713                 3.0739
 Frc consts  --      0.0441                 0.0729                 0.0996
 IR Inten    --      0.6952                 3.3498                 2.3716

                      4                      5                      6
                      A                      A                      A
 Frequencies --    335.5205               376.7957               441.0256
 Red. masses --      3.5634                 3.2164                 4.2847
 Frc consts  --      0.2364                 0.2690                 0.4910
 IR Inten    --      1.8068                23.7720                14.9948

                      7                      8                      9
                      A                      A                      A
 Frequencies --    499.3519               535.2851               607.2869
 Red. masses --      3.0718                 3.4337                 4.4969
 Frc consts  --      0.4513                 0.5797                 0.9771
 IR Inten    --     12.5811                 9.1754                 5.7063

                     10                     11                     12
                      A                      A                      A
 Frequencies --    623.8544               672.9364               740.7759
 Red. masses --      3.9375                 4.2960                 1.5638
 Frc consts  --      0.9029                 1.1462                 0.5056
 IR Inten    --      3.2114                 4.4167                14.6260

                     13                     14                     15
                      A                      A                      A
 Frequencies --    781.7016               857.5450               877.0947
 Red. masses --      2.6689                 2.2276                 3.3461
 Frc consts  --      0.9609                 0.9652                 1.5166
 IR Inten    --     27.1393                30.4899                 8.4824

                     16                     17                     18
                      A                      A                      A
 Frequencies --    913.4728               934.1124               964.4337
 Red. masses --      1.4280                 3.4130                 1.5014
 Frc consts  --      0.7020                 1.7546                 0.8228
 IR Inten    --     44.0631                23.6134                 7.2164

                     19                     20                     21
                      A                      A                      A
 Frequencies --    995.0059              1022.8153              1034.8567
 Red. masses --      1.9217                 2.5101                 2.3048
 Frc consts  --      1.1210                 1.5471                 1.4543
 IR Inten    --      1.7201                34.7923                 6.0707

                     22                     23                     24
                      A                      A                      A
 Frequencies --   1052.1219              1087.6850              1096.4843
 Red. masses --      1.7227                 1.3771                 1.4040
 Frc consts  --      1.1235                 0.9599                 0.9945
 IR Inten    --      0.6578                 9.4085                 2.5128

                     25                     26                     27
                      A                      A                      A
 Frequencies --   1128.2829              1142.4929              1172.2766
 Red. masses --      1.4004                 1.5414                 1.2588
 Frc consts  --      1.0503                 1.1854                 1.0192
 IR Inten    --      5.5769                 5.6187                 4.9056

                     28                     29                     30
                      A                      A                      A
 Frequencies --   1189.4618              1286.7309              1297.8561
 Red. masses --      2.0287                 1.8319                 1.5457
 Frc consts  --      1.6911                 1.7870                 1.5341
 IR Inten    --     13.8935                19.4693               128.1612

                     31                     32                     33
                      A                      A                      A
 Frequencies --   1317.1317              1412.5279              1441.6504
 Red. masses --      2.4850                 1.4716                 1.1491
 Frc consts  --      2.5401                 1.7300                 1.4071
 IR Inten    --     40.1569                 6.8741                 6.7983

                     34                     35                     36
                      A                      A                      A
 Frequencies --   1485.5993              1490.3168              1697.8220
 Red. masses --      1.2377                 1.1254                 9.6726
 Frc consts  --      1.6095                 1.4727                16.4278
 IR Inten    --      1.9773                 6.6412                78.0689

                     37                     38                     39
                      A                      A                      A
 Frequencies --   1724.4297              3072.5848              3084.5281
 Red. masses --      9.2382                 1.0546                 1.0829
 Frc consts  --     16.1857                 5.8661                 6.0704
 IR Inten    --    179.3418                29.8677                 3.9480

                     40                     41                     42
                      A                      A                      A
 Frequencies --   3103.7046              3124.0989              3174.5229
 Red. masses --      1.0835                 1.0552                 1.1135
 Frc consts  --      6.1498                 6.0676                 6.6117
 IR Inten    --      8.5884                18.6403                16.8320

                     43                     44                     45
                      A                      A                      A
 Frequencies --   3185.0388              3214.8085              3424.8950
 Red. masses --      1.0895                 1.1166                 1.0739
 Frc consts  --      6.5119                 6.7990                 7.4219
 IR Inten    --      3.5736                 6.6847                 1.9496

 - Thermochemistry -
 -------------------
 Temperature   298.150 Kelvin.  Pressure   1.00000 Atm.
 Atom     1 has atomic number  7 and mass  14.00307

 Molecular mass:   120.06875 amu.
 Principal axes and moments of inertia in atomic units:
                           1         2         3
     Eigenvalues --   660.531561001.942541496.80601
           X            0.99976  -0.00916   0.01982
           Y            0.00917   0.99996  -0.00052
           Z           -0.01982   0.00070   0.99980
 This molecule is an asymmetric top.
 Rotational symmetry number  1.
 Warning -- assumption of classical behavior for rotation
           may cause significant error
 Rotational temperatures (Kelvin)      0.13113     0.08645     0.05787
 Rotational constants (GHZ):           2.73226     1.80124     1.20573
 Zero-point vibrational energy     360037.3 (Joules/Mol)
                                   86.05098 (Kcal/Mol)
 Warning -- explicit consideration of   9 degrees of freedom as
           vibrations may cause significant error
 Vibrational temperatures:    182.43   303.99   337.44   482.74   542.12
          (Kelvin)            634.54   718.46   770.16   873.75   897.59
                              968.21  1065.81  1124.69  1233.82  1261.94
                             1314.28  1343.98  1387.60  1431.59  1471.60
                             1488.93  1513.77  1564.94  1577.60  1623.35
                             1643.79  1686.64  1711.37  1851.32  1867.33
                             1895.06  2032.31  2074.21  2137.45  2144.23
                             2442.79  2481.07  4420.76  4437.95  4465.54
                             4494.88  4567.43  4582.56  4625.39  4927.66

 Zero-point correction=                           0.137131 (Hartree/Particle)
 Thermal correction to Energy=                    0.144303
 Thermal correction to Enthalpy=                  0.145247
 Thermal correction to Gibbs Free Energy=         0.105799
 Sum of electronic and zero-point Energies=           -380.736282
 Sum of electronic and thermal Energies=              -380.729110
 Sum of electronic and thermal Enthalpies=            -380.728165
 Sum of electronic and thermal Free Energies=         -380.767614

                     E (Thermal)             CV                S
                      KCal/Mol        Cal/Mol-Kelvin    Cal/Mol-Kelvin
 Total                   90.552             28.965             83.026
 Electronic               0.000              0.000              0.000
 Translational            0.889              2.981             40.263
 Rotational               0.889              2.981             28.384
 Vibrational             88.774             23.004             14.379
 Vibration     1          0.611              1.926              2.994
 Vibration     2          0.643              1.824              2.033
 Vibration     3          0.654              1.788              1.844
 Vibration     4          0.717              1.605              1.233
 Vibration     5          0.747              1.520              1.052
 Vibration     6          0.801              1.381              0.823
 Vibration     7          0.855              1.251              0.660
 Vibration     8          0.890              1.172              0.576
 Vibration     9          0.966              1.016              0.437

                           ! Non-Optimized Parameters !
 Normal termination of Gaussian 16 at Sun Jul  3 20:35:13 2022.
