 Gaussian 16, Revision A.03,
 Gaussian 16:  ES64L-G16RevA.03 25-Dec-2016

 -----------------------------
 # opt freq b3lyp/6-31g(2df,p)
 -----------------------------

 -------------------
 Title Card Required
 -------------------
 Symbolic Z-matrix:
 Charge =  0 Multiplicity = 1

 SCF Done:  E(RB3LYP) =  -378.821385425     A.U. after   15 cycles
 SCF Done:  E(RB3LYP) =  -378.825936872     A.U. after   12 cycles
 SCF Done:  E(RB3LYP) =  -378.826285002     A.U. after   12 cycles
 SCF Done:  E(RB3LYP) =  -378.826380861     A.U. after   11 cycles
 SCF Done:  E(RB3LYP) =  -378.826499589     A.U. after   12 cycles
 SCF Done:  E(RB3LYP) =  -378.827076833     A.U. after   13 cycles
 SCF Done:  E(RB3LYP) =  -378.827564864     A.U. after   13 cycles
 SCF Done:  E(RB3LYP) =  -378.829165188     A.U. after   12 cycles
 SCF Done:  E(RB3LYP) =  -378.831505786     A.U. after   13 cycles
 SCF Done:  E(RB3LYP) =  -378.833205550     A.U. after   13 cycles
 SCF Done:  E(RB3LYP) =  -378.833739817     A.U. after   13 cycles
 SCF Done:  E(RB3LYP) =  -378.834834455     A.U. after   13 cycles
 SCF Done:  E(RB3LYP) =  -378.835706502     A.U. after   12 cycles
 SCF Done:  E(RB3LYP) =  -378.836019540     A.U. after   12 cycles
 SCF Done:  E(RB3LYP) =  -378.836064718     A.U. after   11 cycles
 SCF Done:  E(RB3LYP) =  -378.836070237     A.U. after    9 cycles
 SCF Done:  E(RB3LYP) =  -378.836071452     A.U. after    8 cycles
 Optimization completed.
    -- Stationary point found.
 Normal termination of Gaussian 16 at Thu Aug  4 04:04:22 2022.

 ----------------------------------------------------------------------
 #N Geom=AllCheck Guess=TCheck SCRF=Check GenChk RB3LYP/6-31G(2df,p) Fr
 eq
 ----------------------------------------------------------------------

 Structure from the checkpoint file:  "NdC1CdCNdCC1O.chk"
 -------------------
 Title Card Required
 -------------------
 Charge =  0 Multiplicity = 1

                         Standard orientation:
 ---------------------------------------------------------------------
 Center     Atomic      Atomic             Coordinates (Angstroms)
 Number     Number       Type             X           Y           Z
 ---------------------------------------------------------------------
      1          7           0        1.617515    1.429041    0.206214
      2          6           0        0.523087    0.827697   -0.056887
      3          6           0       -0.833088    1.363724   -0.115755
      4          6           0       -1.879804    0.519581   -0.016895
      5          7           0       -1.781493   -0.866772    0.208919
      6          6           0       -0.620155   -1.391887    0.104922
      7          6           0        0.607993   -0.655733   -0.370844
      8          8           0        1.792627   -1.251529    0.067054
      9          1           0        1.482721    2.430426    0.354780
     10          1           0       -0.983939    2.438146   -0.151147
     11          1           0       -2.899357    0.892561   -0.029559
     12          1           0       -0.497241   -2.453189    0.324527
     13          1           0        0.533747   -0.704031   -1.482523
     14          1           0        2.382697   -0.507849    0.274317
 ---------------------------------------------------------------------

 SCF Done:  E(RB3LYP) =  -378.836071452     A.U. after    1 cycles

 The electronic state is 1-A.
 Alpha  occ. eigenvalues --  -19.13975 -14.34162 -14.33003 -10.25364 -10.25021
 Alpha  occ. eigenvalues --  -10.24584 -10.23882 -10.20810  -1.03472  -0.95235
 Alpha  occ. eigenvalues --   -0.91501  -0.78323  -0.75099  -0.64115  -0.61878
 Alpha  occ. eigenvalues --   -0.54075  -0.51767  -0.50702  -0.48390  -0.45079
 Alpha  occ. eigenvalues --   -0.44223  -0.41192  -0.37951  -0.35966  -0.33856
 Alpha  occ. eigenvalues --   -0.29641  -0.28420  -0.25744  -0.25473
 Alpha virt. eigenvalues --   -0.08056   0.00365   0.06933   0.08829   0.10573
 Alpha virt. eigenvalues --    0.13380   0.14280   0.15160   0.16405   0.19440
 Alpha virt. eigenvalues --    0.23142   0.25933   0.27321   0.30231   0.35249

 Mulliken charges:
               1
     1  N   -0.534443
     2  C    0.289105
     3  C   -0.174223
     4  C    0.013980
     5  N   -0.220726
     6  C    0.008283
     7  C    0.039941
     8  O   -0.438894
     9  H    0.227291
    10  H    0.108032
    11  H    0.123112
    12  H    0.136824
    13  H    0.120741
    14  H    0.300977
 Sum of Mulliken charges =  -0.00000

 Dipole moment (field-independent basis, Debye):
    X=             -0.8730    Y=              2.1499    Z=             -0.6736  Tot=              2.4162
 Quadrupole moment (field-independent basis, Debye-Ang):
   XX=            -50.6982   YY=            -42.1787   ZZ=            -46.1447
   XY=             -1.5701   XZ=              0.8529   YZ=              0.8790

  Exact polarizability:  82.938   5.680  80.378   1.724   0.588  37.718
 Approx polarizability: 142.908  18.725 130.364   4.561   1.521  61.712

                      1                      2                      3
                      A                      A                      A
 Frequencies --    109.3843               224.6912               302.4229
 Red. masses --      5.1450                 3.9029                 4.6024
 Frc consts  --      0.0363                 0.1161                 0.2480
 IR Inten    --      0.2494                 1.3328                14.4006

                      4                      5                      6
                      A                      A                      A
 Frequencies --    368.5406               415.1133               456.6645
 Red. masses --      3.9049                 2.9509                 1.2626
 Frc consts  --      0.3125                 0.2996                 0.1551
 IR Inten    --      7.2552                12.0658                60.4799

                      7                      8                      9
                      A                      A                      A
 Frequencies --    496.2639               540.3296               580.4859
 Red. masses --      2.9742                 4.3805                 5.3712
 Frc consts  --      0.4316                 0.7535                 1.0664
 IR Inten    --     12.8319                 9.2481                 4.4683

                     10                     11                     12
                      A                      A                      A
 Frequencies --    690.9580               768.1604               812.3261
 Red. masses --      3.8606                 1.3672                 2.3237
 Frc consts  --      1.0859                 0.4753                 0.9034
 IR Inten    --      0.7867                 1.8507                 3.3441

                     13                     14                     15
                      A                      A                      A
 Frequencies --    862.7932               913.0857               969.8820
 Red. masses --      5.0011                 1.4678                 1.7090
 Frc consts  --      2.1934                 0.7210                 0.9472
 IR Inten    --     12.8831                68.6227                19.9257

                     16                     17                     18
                      A                      A                      A
 Frequencies --    978.8530              1006.3996              1058.0848
 Red. masses --      3.1181                 1.4534                 2.4686
 Frc consts  --      1.7603                 0.8673                 1.6283
 IR Inten    --      1.9664                 4.3458                 8.5698

                     19                     20                     21
                      A                      A                      A
 Frequencies --   1103.0284              1168.2164              1215.6457
 Red. masses --      1.5973                 3.8325                 1.2754
 Frc consts  --      1.1450                 3.0816                 1.1104
 IR Inten    --     57.1689               123.5411                 0.2081

                     22                     23                     24
                      A                      A                      A
 Frequencies --   1222.3915              1302.1171              1334.9121
 Red. masses --      1.2990                 1.2150                 1.4697
 Frc consts  --      1.1436                 1.2138                 1.5431
 IR Inten    --     20.9626                45.0740                29.1306

                     25                     26                     27
                      A                      A                      A
 Frequencies --   1394.6683              1424.5337              1440.7960
 Red. masses --      1.6718                 1.8585                 1.4486
 Frc consts  --      1.9159                 2.2220                 1.7717
 IR Inten    --     26.5680                11.1734                95.1432

                     28                     29                     30
                      A                      A                      A
 Frequencies --   1604.2236              1680.5664              1711.2073
 Red. masses --      6.9046                 8.0968                 8.9970
 Frc consts  --     10.4693                13.4733                15.5222
 IR Inten    --     12.3609                38.8423               121.1614

                     31                     32                     33
                      A                      A                      A
 Frequencies --   2838.8947              3130.5386              3171.0589
 Red. masses --      1.0749                 1.0903                 1.0854
 Frc consts  --      5.1041                 6.2958                 6.4305
 IR Inten    --     25.4485                12.1462                 2.2103

                     34                     35                     36
                      A                      A                      A
 Frequencies --   3190.2848              3462.0633              3669.2911
 Red. masses --      1.0978                 1.0751                 1.0650
 Frc consts  --      6.5834                 7.5920                 8.4478
 IR Inten    --     19.6689                 0.6769                61.7142

 - Thermochemistry -
 -------------------
 Temperature   298.150 Kelvin.  Pressure   1.00000 Atm.
 Atom     1 has atomic number  7 and mass  14.00307

 Molecular mass:   110.04801 amu.
 Principal axes and moments of inertia in atomic units:
                           1         2         3
     Eigenvalues --   541.54866 783.197991283.29279
           X            0.99966  -0.02602   0.00217
           Y            0.02601   0.99965   0.00395
           Z           -0.00228  -0.00389   0.99999
 This molecule is an asymmetric top.
 Rotational symmetry number  1.
 Warning -- assumption of classical behavior for rotation
           may cause significant error
 Rotational temperatures (Kelvin)      0.15994     0.11059     0.06749
 Rotational constants (GHZ):           3.33256     2.30432     1.40634
 Zero-point vibrational energy     284824.1 (Joules/Mol)
                                   68.07460 (Kcal/Mol)
 Warning -- explicit consideration of   9 degrees of freedom as
           vibrations may cause significant error
 Vibrational temperatures:    157.38   323.28   435.12   530.25   597.26
          (Kelvin)            657.04   714.01   777.41   835.19   994.13
                             1105.21  1168.76  1241.37  1313.73  1395.44
                             1408.35  1447.98  1522.35  1587.01  1680.80
                             1749.04  1758.75  1873.46  1920.64  2006.62
                             2049.59  2072.98  2308.12  2417.96  2462.05
                             4084.54  4504.15  4562.45  4590.11  4981.14
                             5279.29

 Zero-point correction=                           0.108484 (Hartree/Particle)
 Thermal correction to Energy=                    0.115125
 Thermal correction to Enthalpy=                  0.116069
 Thermal correction to Gibbs Free Energy=         0.077772
 Sum of electronic and zero-point Energies=           -378.727588
 Sum of electronic and thermal Energies=              -378.720947
 Sum of electronic and thermal Enthalpies=            -378.720003
 Sum of electronic and thermal Free Energies=         -378.758300

                     E (Thermal)             CV                S
                      KCal/Mol        Cal/Mol-Kelvin    Cal/Mol-Kelvin
 Total                   72.242             25.499             80.603
 Electronic               0.000              0.000              0.000
 Translational            0.889              2.981             40.003
 Rotational               0.889              2.981             27.789
 Vibrational             70.464             19.537             12.811
 Vibration     1          0.606              1.942              3.280
 Vibration     2          0.649              1.803              1.921
 Vibration     3          0.694              1.669              1.403
 Vibration     4          0.741              1.537              1.086
 Vibration     5          0.779              1.437              0.909
 Vibration     6          0.815              1.346              0.776
 Vibration     7          0.852              1.258              0.668
 Vibration     8          0.895              1.161              0.565
 Vibration     9          0.937              1.074              0.484

 Optimization completed.
    -- Stationary point found.
 Normal termination of Gaussian 16 at Thu Aug  4 04:23:15 2022.
