 Gaussian 16, Revision A.03,
 Gaussian 16:  ES64L-G16RevA.03 25-Dec-2016

 -----------------------------
 # opt freq b3lyp/6-31g(2df,p)
 -----------------------------

 -------------------
 Title Card Required
 -------------------
 Symbolic Z-matrix:
 Charge =  0 Multiplicity = 1

 SCF Done:  E(RB3LYP) =  -513.945399159     A.U. after   15 cycles
 SCF Done:  E(RB3LYP) =  -513.950885637     A.U. after   13 cycles
 SCF Done:  E(RB3LYP) =  -513.951427961     A.U. after   11 cycles
 SCF Done:  E(RB3LYP) =  -513.951572574     A.U. after   10 cycles
 SCF Done:  E(RB3LYP) =  -513.951584688     A.U. after    9 cycles
 Optimization completed.
    -- Stationary point found.
 Normal termination of Gaussian 16 at Sun Jul  3 11:11:52 2022.

 ----------------------------------------------------------------------
 #N Geom=AllCheck Guess=TCheck SCRF=Check GenChk RB3LYP/6-31G(2df,p) Fr
 eq
 ----------------------------------------------------------------------

 Structure from the checkpoint file:  "Ndc1ccpFpcpOpno1.chk"
 -------------------
 Title Card Required
 -------------------
 Charge =  0 Multiplicity = 1

                         Standard orientation:
 ---------------------------------------------------------------------
 Center     Atomic      Atomic             Coordinates (Angstroms)
 Number     Number       Type             X           Y           Z
 ---------------------------------------------------------------------
      1          7           0       -2.907368    0.221816    0.001056
      2          6           0       -1.645441    0.098880   -0.000088
      3          6           0       -0.631111    1.147033   -0.000490
      4          6           0        0.652364    0.789134   -0.000198
      5          9           0        1.666468    1.656564   -0.000187
      6          6           0        1.022458   -0.612209    0.000111
      7          8           0        2.323910   -0.955514    0.000744
      8          7           0        0.157069   -1.561119   -0.000231
      9          8           0       -1.183170   -1.208189   -0.000948
     10          1           0       -3.175422    1.203165    0.001302
     11          1           0       -0.940331    2.184466   -0.000687
     12          1           0        2.854092   -0.148993    0.000921
 ---------------------------------------------------------------------

 SCF Done:  E(RB3LYP) =  -513.951584688     A.U. after    1 cycles

 The electronic state is 1-A.
 Alpha  occ. eigenvalues --  -24.76515 -19.22329 -19.21037 -14.40050 -14.30952
 Alpha  occ. eigenvalues --  -10.32344 -10.31134 -10.29832 -10.24168  -1.28571
 Alpha  occ. eigenvalues --   -1.13508  -1.10351  -0.93050  -0.88262  -0.83051
 Alpha  occ. eigenvalues --   -0.70251  -0.67793  -0.62019  -0.58303  -0.56402
 Alpha  occ. eigenvalues --   -0.52792  -0.50843  -0.49154  -0.47634  -0.45786
 Alpha  occ. eigenvalues --   -0.42544  -0.41912  -0.39897  -0.34968  -0.31561
 Alpha  occ. eigenvalues --   -0.31392  -0.27978  -0.23946
 Alpha virt. eigenvalues --   -0.07986   0.00913   0.02917   0.07662   0.10205
 Alpha virt. eigenvalues --    0.11320   0.12821   0.14086   0.19552   0.25893
 Alpha virt. eigenvalues --    0.27355   0.28824   0.32891   0.35540   0.39949

 Mulliken charges:
               1
     1  N   -0.498914
     2  C    0.435911
     3  C   -0.351737
     4  C    0.232279
     5  F   -0.066950
     6  C    0.333548
     7  O   -0.394087
     8  N   -0.114115
     9  O   -0.267708
    10  H    0.227721
    11  H    0.147128
    12  H    0.316925
 Sum of Mulliken charges =  -0.00000

 Dipole moment (field-independent basis, Debye):
    X=              2.9175    Y=              4.6940    Z=             -0.0003  Tot=              5.5268
 Quadrupole moment (field-independent basis, Debye-Ang):
   XX=            -51.7508   YY=            -51.4255   ZZ=            -48.6417
   XY=             -3.8003   XZ=              0.0046   YZ=              0.0007

  Exact polarizability:  96.322  -6.196  60.989  -0.006   0.002  29.861
 Approx polarizability: 167.696  -6.724 105.865  -0.012   0.010  47.345

                      1                      2                      3
                      A                      A                      A
 Frequencies --     75.9077               188.3522               298.8887
 Red. masses --      8.3193                 7.2815                 5.0643
 Frc consts  --      0.0282                 0.1522                 0.2666
 IR Inten    --      0.0199                 7.1894                19.6861

                      4                      5                      6
                      A                      A                      A
 Frequencies --    305.8152               373.2532               379.3183
 Red. masses --      8.1245                 5.5153                 2.5857
 Frc consts  --      0.4477                 0.4527                 0.2192
 IR Inten    --     10.2112                 4.8097                54.0031

                      7                      8                      9
                      A                      A                      A
 Frequencies --    404.2513               449.6779               532.6303
 Red. masses --      1.6567                 8.6066                10.8241
 Frc consts  --      0.1595                 1.0254                 1.8092
 IR Inten    --     35.2512                 1.3003                 2.2319

                     10                     11                     12
                      A                      A                      A
 Frequencies --    602.3573               675.6850               719.4911
 Red. masses --      5.4719                 6.8506                 7.3627
 Frc consts  --      1.1698                 1.8428                 2.2456
 IR Inten    --      8.9666                 1.0085                 1.3253

                     13                     14                     15
                      A                      A                      A
 Frequencies --    722.3067               780.2285               801.7952
 Red. masses --     10.5366                 1.1010                10.4721
 Frc consts  --      3.2389                 0.3949                 3.9665
 IR Inten    --     10.6813                32.0511                24.8058

                     16                     17                     18
                      A                      A                      A
 Frequencies --    892.1743               895.4021              1030.6212
 Red. masses --      3.9101                 1.4698                 6.6216
 Frc consts  --      1.8337                 0.6943                 4.1439
 IR Inten    --     31.1700                45.9501               126.6589

                     19                     20                     21
                      A                      A                      A
 Frequencies --   1065.6577              1217.2567              1268.8879
 Red. masses --      1.6412                 3.7032                 1.8763
 Frc consts  --      1.0981                 3.2329                 1.7799
 IR Inten    --    227.8866                57.3358                 0.0085

                     22                     23                     24
                      A                      A                      A
 Frequencies --   1294.7591              1338.7438              1463.9012
 Red. masses --      1.7461                 2.3843                 7.8232
 Frc consts  --      1.7246                 2.5177                 9.8778
 IR Inten    --    138.9108                79.4554               258.3597

                     25                     26                     27
                      A                      A                      A
 Frequencies --   1664.6034              1695.8710              1747.5037
 Red. masses --      6.9988                10.0520                 8.7990
 Frc consts  --     11.4260                17.0329                15.8315
 IR Inten    --     42.5531               135.7668               135.6949

                     28                     29                     30
                      A                      A                      A
 Frequencies --   3219.0573              3523.9567              3803.9386
 Red. masses --      1.0939                 1.0756                 1.0656
 Frc consts  --      6.6788                 7.8700                 9.0849
 IR Inten    --      1.0066                 7.1034               112.2819

 - Thermochemistry -
 -------------------
 Temperature   298.150 Kelvin.  Pressure   1.00000 Atm.
 Atom     1 has atomic number  7 and mass  14.00307

 Molecular mass:   130.01786 amu.
 Principal axes and moments of inertia in atomic units:
                           1         2         3
     Eigenvalues --   566.488871266.946811833.43534
           X            0.99893  -0.04615  -0.00000
           Y            0.04615   0.99893   0.00000
           Z            0.00000  -0.00000   1.00000
 This molecule is an asymmetric top.
 Rotational symmetry number  1.
 Warning -- assumption of classical behavior for rotation
           may cause significant error
 Rotational temperatures (Kelvin)      0.15290     0.06836     0.04724
 Rotational constants (GHZ):           3.18584     1.42448     0.98435
 Zero-point vibrational energy     199969.5 (Joules/Mol)
                                   47.79386 (Kcal/Mol)
 Warning -- explicit consideration of  10 degrees of freedom as
           vibrations may cause significant error
 Vibrational temperatures:    109.21   271.00   430.03   440.00   537.03
          (Kelvin)            545.75   581.63   646.99   766.34   866.66
                              972.16  1035.19  1039.24  1122.57  1153.60
                             1283.64  1288.28  1482.83  1533.24  1751.36
                             1825.65  1862.87  1926.15  2106.23  2394.99
                             2439.98  2514.27  4631.51  5070.19  5473.02

 Zero-point correction=                           0.076164 (Hartree/Particle)
 Thermal correction to Energy=                    0.083515
 Thermal correction to Enthalpy=                  0.084459
 Thermal correction to Gibbs Free Energy=         0.044067
 Sum of electronic and zero-point Energies=           -513.875420
 Sum of electronic and thermal Energies=              -513.868070
 Sum of electronic and thermal Enthalpies=            -513.867125
 Sum of electronic and thermal Free Energies=         -513.907518

                     E (Thermal)             CV                S
                      KCal/Mol        Cal/Mol-Kelvin    Cal/Mol-Kelvin
 Total                   52.407             27.483             85.013
 Electronic               0.000              0.000              0.000
 Translational            0.889              2.981             40.500
 Rotational               0.889              2.981             28.666
 Vibrational             50.629             21.522             15.846
 Vibration     1          0.599              1.965              3.994
 Vibration     2          0.633              1.856              2.244
 Vibration     3          0.692              1.676              1.423
 Vibration     4          0.696              1.663              1.385
 Vibration     5          0.745              1.527              1.066
 Vibration     6          0.749              1.514              1.042
 Vibration     7          0.769              1.461              0.947
 Vibration     8          0.809              1.362              0.797
 Vibration     9          0.888              1.178              0.581
 Vibration    10          0.961              1.027              0.446

                           ! Non-Optimized Parameters !
 Normal termination of Gaussian 16 at Sun Jul  3 11:30:17 2022.
