 Gaussian 16, Revision A.03,
 Gaussian 16:  ES64L-G16RevA.03 25-Dec-2016

 -----------------------------
 # opt freq b3lyp/6-31g(2df,p)
 -----------------------------

 -------------------
 Title Card Required
 -------------------
 Symbolic Z-matrix:
 Charge =  0 Multiplicity = 1

 SCF Done:  E(RB3LYP) =  -373.142971758     A.U. after   20 cycles
 SCF Done:  E(RB3LYP) =  -373.225855432     A.U. after   15 cycles
 SCF Done:  E(RB3LYP) =  -373.345495157     A.U. after   17 cycles
 SCF Done:  E(RB3LYP) =  -373.387854124     A.U. after   16 cycles
 SCF Done:  E(RB3LYP) =  -373.389228666     A.U. after   15 cycles
 SCF Done:  E(RB3LYP) =  -373.389824985     A.U. after   14 cycles
 SCF Done:  E(RB3LYP) =  -373.391189681     A.U. after   15 cycles
 SCF Done:  E(RB3LYP) =  -373.399685251     A.U. after   19 cycles
 SCF Done:  E(RB3LYP) =  -373.413145837     A.U. after   18 cycles
 SCF Done:  E(RB3LYP) =  -373.435940465     A.U. after   18 cycles
 SCF Done:  E(RB3LYP) =  -373.751251414     A.U. after   11 cycles
 SCF Done:  E(RB3LYP) =  -373.751317883     A.U. after   10 cycles
 SCF Done:  E(RB3LYP) =  -373.751331164     A.U. after   10 cycles
 SCF Done:  E(RB3LYP) =  -373.751364216     A.U. after   11 cycles
 SCF Done:  E(RB3LYP) =  -373.751374089     A.U. after   10 cycles
 SCF Done:  E(RB3LYP) =  -373.751377400     A.U. after    9 cycles
 SCF Done:  E(RB3LYP) =  -373.751378666     A.U. after    8 cycles
 SCF Done:  E(RB3LYP) =  -373.751380102     A.U. after    9 cycles
 SCF Done:  E(RB3LYP) =  -373.751380366     A.U. after    8 cycles
 Optimization completed.
    -- Stationary point found.
 Normal termination of Gaussian 16 at Thu Aug  4 23:22:16 2022.

 ----------------------------------------------------------------------
 #N Geom=AllCheck Guess=TCheck SCRF=Check GenChk RB3LYP/6-31G(2df,p) Fr
 eq
 ----------------------------------------------------------------------

 Structure from the checkpoint file:  "Ndc1ccncnn1.chk"
 -------------------
 Title Card Required
 -------------------
 Charge =  0 Multiplicity = 1

                         Standard orientation:
 ---------------------------------------------------------------------
 Center     Atomic      Atomic             Coordinates (Angstroms)
 Number     Number       Type             X           Y           Z
 ---------------------------------------------------------------------
      1          7           0        3.700289    0.059456    0.135571
      2          6           0        2.487340    0.100729   -0.012269
      3          6           0        0.242059   -0.652351    0.004253
      4          6           0       -1.028608   -0.256735   -0.047894
      5          7           0       -2.274706   -0.955875    0.004564
      6          6           0       -2.819503    0.229223    0.054201
      7          7           0       -1.671865    1.034413   -0.133357
      8          7           0        1.278523    0.269811   -0.010377
      9          1           0        4.307050    0.013573   -0.674407
     10          1           0        0.458247   -1.714433    0.072482
     11          1           0       -1.422686    1.785731    0.501674
     12          1           0       -3.856021    0.535302    0.135699
 ---------------------------------------------------------------------

 SCF Done:  E(RB3LYP) =  -373.751380366     A.U. after    1 cycles

 The electronic state is 1-A.
 Alpha  occ. eigenvalues --  -14.36141 -14.35816 -14.34778 -14.32291 -10.28892
 Alpha  occ. eigenvalues --  -10.26532 -10.25195 -10.23583  -1.03576  -0.97801
 Alpha  occ. eigenvalues --   -0.91598  -0.82855  -0.77192  -0.64528  -0.58430
 Alpha  occ. eigenvalues --   -0.55744  -0.55339  -0.52302  -0.44965  -0.44004
 Alpha  occ. eigenvalues --   -0.42020  -0.41406  -0.38139  -0.33079  -0.29563
 Alpha  occ. eigenvalues --   -0.28054  -0.25357  -0.22918
 Alpha virt. eigenvalues --   -0.04429   0.02376   0.02983   0.07431   0.09395
 Alpha virt. eigenvalues --    0.10201   0.12447   0.13247   0.17242   0.19156
 Alpha virt. eigenvalues --    0.21593   0.28263   0.29660   0.33898   0.39332

 Mulliken charges:
               1
     1  N   -0.534828
     2  C    0.473265
     3  C   -0.208144
     4  C    0.397555
     5  N   -0.293554
     6  C    0.034839
     7  N   -0.394860
     8  N   -0.286567
     9  H    0.278273
    10  H    0.136323
    11  H    0.253922
    12  H    0.143777
 Sum of Mulliken charges =  -0.00000

 Dipole moment (field-independent basis, Debye):
    X=              0.3691    Y=              1.4428    Z=             -0.2363  Tot=              1.5079
 Quadrupole moment (field-independent basis, Debye-Ang):
   XX=            -38.3583   YY=            -45.0061   ZZ=            -45.1911
   XY=             -7.8834   XZ=             -8.0029   YZ=              1.9797

  Exact polarizability: 148.853  -6.331  52.731  -1.470   0.765  33.504
 Approx polarizability: 246.023 -15.935  90.325   1.349   0.245  52.987

                      1                      2                      3
                      A                      A                      A
 Frequencies --     72.7551                97.5568               209.0480
 Red. masses --      5.7170                 5.7323                 4.6273
 Frc consts  --      0.0178                 0.0321                 0.1191
 IR Inten    --      4.8889                 0.1155                 6.9338

                      4                      5                      6
                      A                      A                      A
 Frequencies --    226.1217               355.2391               448.8455
 Red. masses --      5.0032                 2.6075                 8.2843
 Frc consts  --      0.1507                 0.1939                 0.9833
 IR Inten    --      9.0712                45.0965                 4.7017

                      7                      8                      9
                      A                      A                      A
 Frequencies --    472.2763               571.9258               618.0238
 Red. masses --      2.2159                 1.9883                 1.4110
 Frc consts  --      0.2912                 0.3832                 0.3175
 IR Inten    --     48.9900                53.2392               133.4382

                     10                     11                     12
                      A                      A                      A
 Frequencies --    634.9574               760.7150               811.4447
 Red. masses --      5.6811                 2.9335                 4.1905
 Frc consts  --      1.3495                 1.0002                 1.6257
 IR Inten    --     19.0797                60.2848                23.8137

                     13                     14                     15
                      A                      A                      A
 Frequencies --    854.7385               876.2311               907.1946
 Red. masses --      1.4117                 1.6525                 1.4360
 Frc consts  --      0.6077                 0.7475                 0.6963
 IR Inten    --     22.6415                29.8137               500.7841

                     16                     17                     18
                      A                      A                      A
 Frequencies --    985.8260              1018.7988              1069.6645
 Red. masses --      2.9490                 6.2790                 8.9566
 Frc consts  --      1.6886                 3.8399                 6.0379
 IR Inten    --     23.4641                25.1800                 0.2303

                     19                     20                     21
                      A                      A                      A
 Frequencies --   1102.4568              1236.3504              1299.0301
 Red. masses --      1.9627                 1.3798                 1.5563
 Frc consts  --      1.4055                 1.2426                 1.5473
 IR Inten    --      4.0099                 4.7816                66.0725

                     22                     23                     24
                      A                      A                      A
 Frequencies --   1351.1107              1453.1083              1555.2455
 Red. masses --      1.8494                 8.0262                 5.3937
 Frc consts  --      1.9891                 9.9851                 7.6866
 IR Inten    --      3.4770                29.0349                42.2058

                     25                     26                     27
                      A                      A                      A
 Frequencies --   1785.5188              2253.0104              3170.0291
 Red. masses --      9.2822                10.3998                 1.0901
 Frc consts  --     17.4353                31.1031                 6.4543
 IR Inten    --     18.3288              1347.7562                15.3047

                     28                     29                     30
                      A                      A                      A
 Frequencies --   3215.6963              3540.0973              3580.6876
 Red. masses --      1.0993                 1.0772                 1.0794
 Frc consts  --      6.6978                 7.9538                 8.1540
 IR Inten    --      1.6355                11.2828                69.4843

 - Thermochemistry -
 -------------------
 Temperature   298.150 Kelvin.  Pressure   1.00000 Atm.
 Atom     1 has atomic number  7 and mass  14.00307

 Molecular mass:   108.04360 amu.
 Principal axes and moments of inertia in atomic units:
                           1         2         3
     Eigenvalues --   154.202521951.698442096.90388
           X            0.99992  -0.01035  -0.00770
           Y            0.01051   0.99972   0.02137
           Z            0.00748  -0.02145   0.99974
 This molecule is an asymmetric top.
 Rotational symmetry number  1.
 Rotational temperatures (Kelvin)      0.56169     0.04438     0.04131
 Rotational constants (GHZ):          11.70371     0.92470     0.86067
 Zero-point vibrational energy     218520.1 (Joules/Mol)
                                   52.22755 (Kcal/Mol)
 Warning -- explicit consideration of   9 degrees of freedom as
           vibrations may cause significant error
 Vibrational temperatures:    104.68   140.36   300.77   325.34   511.11
          (Kelvin)            645.79   679.50   822.87   889.20   913.56
                             1094.50  1167.49  1229.78  1260.70  1305.25
                             1418.38  1465.82  1539.01  1586.19  1778.83
                             1869.01  1943.95  2090.70  2237.65  2568.96
                             3241.58  4560.96  4626.67  5093.41  5151.81

 Zero-point correction=                           0.083230 (Hartree/Particle)
 Thermal correction to Energy=                    0.090505
 Thermal correction to Enthalpy=                  0.091449
 Thermal correction to Gibbs Free Energy=         0.051186
 Sum of electronic and zero-point Energies=           -373.668150
 Sum of electronic and thermal Energies=              -373.660875
 Sum of electronic and thermal Enthalpies=            -373.659931
 Sum of electronic and thermal Free Energies=         -373.700194

                     E (Thermal)             CV                S
                      KCal/Mol        Cal/Mol-Kelvin    Cal/Mol-Kelvin
 Total                   56.793             25.701             84.740
 Electronic               0.000              0.000              0.000
 Translational            0.889              2.981             39.949
 Rotational               0.889              2.981             27.936
 Vibrational             55.015             19.740             16.855
 Vibration     1          0.599              1.967              4.077
 Vibration     2          0.603              1.951              3.503
 Vibration     3          0.642              1.827              2.052
 Vibration     4          0.650              1.801              1.910
 Vibration     5          0.731              1.565              1.143
 Vibration     6          0.808              1.363              0.799
 Vibration     7          0.829              1.312              0.731
 Vibration     8          0.928              1.092              0.501
 Vibration     9          0.978              0.994              0.420

                           ! Non-Optimized Parameters !
 Normal termination of Gaussian 16 at Thu Aug  4 23:37:51 2022.
