 Gaussian 16, Revision A.03,
 Gaussian 16:  ES64L-G16RevA.03 25-Dec-2016

 -----------------------------
 # opt freq b3lyp/6-31g(2df,p)
 -----------------------------

 -------------------
 Title Card Required
 -------------------
 Symbolic Z-matrix:
 Charge =  0 Multiplicity = 1

 SCF Done:  E(RB3LYP) =  -341.967627220     A.U. after   13 cycles
 SCF Done:  E(RB3LYP) =  -341.972431473     A.U. after   12 cycles
 SCF Done:  E(RB3LYP) =  -341.973100136     A.U. after   11 cycles
 SCF Done:  E(RB3LYP) =  -341.973559345     A.U. after   11 cycles
 SCF Done:  E(RB3LYP) =  -341.973660435     A.U. after   10 cycles
 SCF Done:  E(RB3LYP) =  -341.973702148     A.U. after    9 cycles
 SCF Done:  E(RB3LYP) =  -341.973719465     A.U. after    9 cycles
 SCF Done:  E(RB3LYP) =  -341.973720079     A.U. after    7 cycles
 SCF Done:  E(RB3LYP) =  -341.973720229     A.U. after    7 cycles
 Optimization completed.
    -- Stationary point found.
 Normal termination of Gaussian 16 at Sun Jul  3 14:31:11 2022.

 ----------------------------------------------------------------------
 #N Geom=AllCheck Guess=TCheck SCRF=Check GenChk RB3LYP/6-31G(2df,p) Fr
 eq
 ----------------------------------------------------------------------

 Structure from the checkpoint file:  "NdC1CCpNpCO1.chk"
 -------------------
 Title Card Required
 -------------------
 Charge =  0 Multiplicity = 1

                         Standard orientation:
 ---------------------------------------------------------------------
 Center     Atomic      Atomic             Coordinates (Angstroms)
 Number     Number       Type             X           Y           Z
 ---------------------------------------------------------------------
      1          7           0        2.329960   -0.326569   -0.390438
      2          6           0        1.150313   -0.072358   -0.016435
      3          6           0        0.127862   -0.904481    0.746457
      4          6           0       -1.201801   -0.201029    0.439463
      5          7           0       -1.820571   -0.793731   -0.745641
      6          6           0       -0.702285    1.250800    0.276172
      7          8           0        0.603715    1.143738   -0.302820
      8          1           0        2.583834   -1.275459   -0.121754
      9          1           0        0.358106   -0.860621    1.816601
     10          1           0        0.130780   -1.950857    0.437254
     11          1           0       -1.913665   -0.277704    1.266059
     12          1           0       -1.189150   -0.722505   -1.540434
     13          1           0       -2.656057   -0.274455   -1.000211
     14          1           0       -0.631559    1.769390    1.242446
     15          1           0       -1.322256    1.846816   -0.398796
 ---------------------------------------------------------------------

 SCF Done:  E(RB3LYP) =  -341.973720229     A.U. after    1 cycles

 The electronic state is 1-A.
 Alpha  occ. eigenvalues --  -19.17028 -14.32345 -14.29194 -10.26919 -10.24235
 Alpha  occ. eigenvalues --  -10.23160 -10.20231  -1.07701  -0.89988  -0.88412
 Alpha  occ. eigenvalues --   -0.77135  -0.71599  -0.61273  -0.56216  -0.52673
 Alpha  occ. eigenvalues --   -0.50359  -0.48197  -0.45202  -0.44095  -0.41508
 Alpha  occ. eigenvalues --   -0.39489  -0.37187  -0.35301  -0.34588  -0.26550
 Alpha  occ. eigenvalues --   -0.25793  -0.24479
 Alpha virt. eigenvalues --    0.02643   0.06916   0.09164   0.10780   0.12662
 Alpha virt. eigenvalues --    0.13575   0.14514   0.16172   0.16713   0.18472
 Alpha virt. eigenvalues --    0.19948   0.21339   0.24129   0.26940   0.34277

 Mulliken charges:
               1
     1  N   -0.517604
     2  C    0.396076
     3  C   -0.327516
     4  C    0.006003
     5  N   -0.511200
     6  C   -0.089648
     7  O   -0.216198
     8  H    0.220709
     9  H    0.132328
    10  H    0.133580
    11  H    0.087813
    12  H    0.238000
    13  H    0.229705
    14  H    0.106732
    15  H    0.111220
 Sum of Mulliken charges =  -0.00000

 Dipole moment (field-independent basis, Debye):
    X=             -3.1040    Y=             -0.4497    Z=              1.5330  Tot=              3.4910
 Quadrupole moment (field-independent basis, Debye-Ang):
   XX=            -46.6412   YY=            -42.1598   ZZ=            -39.6298
   XY=             -7.4713   XZ=              3.5755   YZ=              0.0935

  Exact polarizability:  69.353  -7.712  54.771  -2.327   0.533  49.399
 Approx polarizability:  97.574 -11.593  79.742  -6.274   0.547  73.881

                      1                      2                      3
                      A                      A                      A
 Frequencies --     96.9074               166.6020               267.6420
 Red. masses --      3.7684                 3.9038                 1.0717
 Frc consts  --      0.0209                 0.0638                 0.0452
 IR Inten    --      1.1226                 8.1426                39.5654

                      4                      5                      6
                      A                      A                      A
 Frequencies --    385.4636               392.0181               469.9070
 Red. masses --      1.9262                 2.4509                 3.1013
 Frc consts  --      0.1686                 0.2219                 0.4035
 IR Inten    --      0.8438                14.9748                 5.1435

                      7                      8                      9
                      A                      A                      A
 Frequencies --    540.3189               679.0276               758.0196
 Red. masses --      3.1482                 6.4116                 4.1268
 Frc consts  --      0.5415                 1.7418                 1.3971
 IR Inten    --      7.6166                 7.4318                 7.1760

                     10                     11                     12
                      A                      A                      A
 Frequencies --    833.2951               838.9660               860.8239
 Red. masses --      3.3415                 1.2794                 2.7041
 Frc consts  --      1.3671                 0.5306                 1.1806
 IR Inten    --     30.1072                27.2183                39.1911

                     13                     14                     15
                      A                      A                      A
 Frequencies --    885.1508               915.4181               969.9820
 Red. masses --      1.6153                 1.6718                 1.8681
 Frc consts  --      0.7457                 0.8254                 1.0355
 IR Inten    --     43.0709                69.9041                 0.4160

                     16                     17                     18
                      A                      A                      A
 Frequencies --   1008.0430              1036.7040              1099.3976
 Red. masses --      2.3795                 2.0327                 2.3733
 Frc consts  --      1.4246                 1.2871                 1.6901
 IR Inten    --     29.7452                65.4808               196.0325

                     19                     20                     21
                      A                      A                      A
 Frequencies --   1126.1738              1153.3542              1208.3262
 Red. masses --      1.6538                 1.1916                 1.3489
 Frc consts  --      1.2358                 0.9339                 1.1604
 IR Inten    --     50.8233                 5.1379                16.3518

                     22                     23                     24
                      A                      A                      A
 Frequencies --   1262.8190              1289.2301              1301.1884
 Red. masses --      1.5216                 1.5393                 1.5395
 Frc consts  --      1.4296                 1.5074                 1.5357
 IR Inten    --      9.7202                 6.9636                 6.4549

                     25                     26                     27
                      A                      A                      A
 Frequencies --   1317.2499              1401.1340              1425.8549
 Red. masses --      1.6854                 1.4905                 1.4787
 Frc consts  --      1.7230                 1.7240                 1.7712
 IR Inten    --     29.0239                29.4020                 5.6168

                     28                     29                     30
                      A                      A                      A
 Frequencies --   1463.0607              1513.5764              1662.9209
 Red. masses --      1.1083                 1.0959                 1.0912
 Frc consts  --      1.3977                 1.4793                 1.7779
 IR Inten    --     11.6984                 2.9883                26.6383

                     31                     32                     33
                      A                      A                      A
 Frequencies --   1763.7843              3009.0741              3053.6861
 Red. masses --      9.6366                 1.0675                 1.0672
 Frc consts  --     17.6630                 5.6948                 5.8633
 IR Inten    --    266.4677                53.8893                 6.9488

                     34                     35                     36
                      A                      A                      A
 Frequencies --   3074.9368              3094.3015              3125.2926
 Red. masses --      1.0850                 1.0984                 1.0985
 Frc consts  --      6.0444                 6.1965                 6.3215
 IR Inten    --     35.0281                28.8631                 5.1376

                     37                     38                     39
                      A                      A                      A
 Frequencies --   3478.8181              3508.0403              3559.0735
 Red. masses --      1.0493                 1.0753                 1.0921
 Frc consts  --      7.4816                 7.7969                 8.1506
 IR Inten    --      0.1492                 2.7522                 0.5594

 - Thermochemistry -
 -------------------
 Temperature   298.150 Kelvin.  Pressure   1.00000 Atm.
 Atom     1 has atomic number  7 and mass  14.00307

 Molecular mass:   100.06366 amu.
 Principal axes and moments of inertia in atomic units:
                           1         2         3
     Eigenvalues --   375.41284 787.12559 937.44116
           X            0.99890  -0.04500   0.01329
           Y            0.04497   0.99898   0.00314
           Z           -0.01341  -0.00254   0.99991
 This molecule is an asymmetric top.
 Rotational symmetry number  1.
 Rotational temperatures (Kelvin)      0.23072     0.11004     0.09239
 Rotational constants (GHZ):           4.80735     2.29282     1.92518
 Zero-point vibrational energy     334928.0 (Joules/Mol)
                                   80.04970 (Kcal/Mol)
 Warning -- explicit consideration of   7 degrees of freedom as
           vibrations may cause significant error
 Vibrational temperatures:    139.43   239.70   385.08   554.60   564.03
          (Kelvin)            676.09   777.40   976.97  1090.62  1198.93
                             1207.08  1238.53  1273.53  1317.08  1395.59
                             1450.35  1491.59  1581.79  1620.31  1659.42
                             1738.51  1816.91  1854.91  1872.12  1895.23
                             2015.92  2051.49  2105.02  2177.70  2392.57
                             2537.69  4329.39  4393.57  4424.15  4452.01
                             4496.60  5005.24  5047.29  5120.71

 Zero-point correction=                           0.127567 (Hartree/Particle)
 Thermal correction to Energy=                    0.134090
 Thermal correction to Enthalpy=                  0.135034
 Thermal correction to Gibbs Free Energy=         0.097121
 Sum of electronic and zero-point Energies=           -341.846153
 Sum of electronic and thermal Energies=              -341.839630
 Sum of electronic and thermal Enthalpies=            -341.838686
 Sum of electronic and thermal Free Energies=         -341.876600

                     E (Thermal)             CV                S
                      KCal/Mol        Cal/Mol-Kelvin    Cal/Mol-Kelvin
 Total                   84.143             24.462             79.796
 Electronic               0.000              0.000              0.000
 Translational            0.889              2.981             39.720
 Rotational               0.889              2.981             27.118
 Vibrational             82.365             18.500             12.958
 Vibration     1          0.603              1.951              3.516
 Vibration     2          0.624              1.884              2.473
 Vibration     3          0.673              1.733              1.611
 Vibration     4          0.754              1.501              1.018
 Vibration     5          0.759              1.487              0.992
 Vibration     6          0.827              1.317              0.738
 Vibration     7          0.895              1.161              0.565

 Optimization completed.
    -- Stationary point found.
 Normal termination of Gaussian 16 at Sun Jul  3 14:47:18 2022.
