 Gaussian 16, Revision A.03,
 Gaussian 16:  ES64L-G16RevA.03 25-Dec-2016

 -----------------------------
 # opt freq b3lyp/6-31g(2df,p)
 -----------------------------

 -------------------
 Title Card Required
 -------------------
 Symbolic Z-matrix:
 Charge =  0 Multiplicity = 1

 SCF Done:  E(RB3LYP) =  -382.156780268     A.U. after   13 cycles
 SCF Done:  E(RB3LYP) =  -382.180030638     A.U. after   12 cycles
 SCF Done:  E(RB3LYP) =  -382.184313818     A.U. after   12 cycles
 SCF Done:  E(RB3LYP) =  -382.186377375     A.U. after   12 cycles
 SCF Done:  E(RB3LYP) =  -382.186736084     A.U. after   11 cycles
 SCF Done:  E(RB3LYP) =  -382.186830220     A.U. after   11 cycles
 SCF Done:  E(RB3LYP) =  -382.186846133     A.U. after    8 cycles
 SCF Done:  E(RB3LYP) =  -382.186849266     A.U. after    7 cycles
 SCF Done:  E(RB3LYP) =  -382.186849811     A.U. after    7 cycles
 SCF Done:  E(RB3LYP) =  -382.186849944     A.U. after    6 cycles
 Optimization completed.
    -- Stationary point found.
 Normal termination of Gaussian 16 at Sun Jul  3 22:18:05 2022.

 ----------------------------------------------------------------------
 #N Geom=AllCheck Guess=TCheck SCRF=Check GenChk RB3LYP/6-31G(2df,p) Fr
 eq
 ----------------------------------------------------------------------

 Structure from the checkpoint file:  "NdC1C2CNpC2pC2CC12.chk"
 -------------------
 Title Card Required
 -------------------
 Charge =  0 Multiplicity = 1

                         Standard orientation:
 ---------------------------------------------------------------------
 Center     Atomic      Atomic             Coordinates (Angstroms)
 Number     Number       Type             X           Y           Z
 ---------------------------------------------------------------------
      1          7           0       -2.518543   -0.106843    0.001761
      2          6           0       -1.244889   -0.084504   -0.009927
      3          6           0       -0.334623   -1.278594    0.229572
      4          6           0        0.879189   -0.869246    1.094487
      5          7           0        1.538497   -0.297490   -0.135045
      6          6           0        0.728605   -1.309251   -0.911141
      7          6           0        0.993936    1.013088   -0.484278
      8          6           0        0.398225    1.923061    0.536120
      9          6           0       -0.525288    1.164088   -0.414059
     10          1           0       -2.856002   -1.042596    0.245485
     11          1           0       -0.903379   -2.181182    0.471112
     12          1           0        1.462112   -1.733330    1.427203
     13          1           0        0.738536   -0.199684    1.942573
     14          1           0        1.260680   -2.263780   -0.960328
     15          1           0        0.431629   -0.991940   -1.913472
     16          1           0        1.519171    1.461742   -1.321854
     17          1           0        0.481113    2.987725    0.346632
     18          1           0        0.415835    1.673287    1.588791
     19          1           0       -1.060311    1.768247   -1.137807
 ---------------------------------------------------------------------

 SCF Done:  E(RB3LYP) =  -382.186849944     A.U. after    1 cycles

 The electronic state is 1-A.
 Alpha  occ. eigenvalues --  -14.33169 -14.30224 -10.22982 -10.22037 -10.21856
 Alpha  occ. eigenvalues --  -10.21851 -10.20328 -10.19671 -10.19209  -0.96651
 Alpha  occ. eigenvalues --   -0.89299  -0.84803  -0.74235  -0.68696  -0.64765
 Alpha  occ. eigenvalues --   -0.61946  -0.57283  -0.53158  -0.51321  -0.47641
 Alpha  occ. eigenvalues --   -0.46786  -0.44126  -0.42164  -0.41219  -0.40967
 Alpha  occ. eigenvalues --   -0.37715  -0.35036  -0.34163  -0.32175  -0.30385
 Alpha  occ. eigenvalues --   -0.27745  -0.25204  -0.21648
 Alpha virt. eigenvalues --    0.00305   0.08823   0.09251   0.10013   0.11078
 Alpha virt. eigenvalues --    0.12110   0.12920   0.13839   0.16199   0.16858
 Alpha virt. eigenvalues --    0.18095   0.18422   0.19120   0.19983   0.21979

 Mulliken charges:
               1
     1  N   -0.521818
     2  C    0.351172
     3  C   -0.111945
     4  C   -0.194899
     5  N   -0.123355
     6  C   -0.177077
     7  C   -0.007436
     8  C   -0.318739
     9  C   -0.067959
    10  H    0.208187
    11  H    0.062632
    12  H    0.112216
    13  H    0.113141
    14  H    0.110138
    15  H    0.114372
    16  H    0.099083
    17  H    0.121341
    18  H    0.126059
    19  H    0.104888
 Sum of Mulliken charges =  -0.00000

 Dipole moment (field-independent basis, Debye):
    X=              1.0758    Y=             -1.0460    Z=              0.2853  Tot=              1.5274
 Quadrupole moment (field-independent basis, Debye-Ang):
   XX=            -64.6414   YY=            -48.0070   ZZ=            -50.8922
   XY=              3.5703   XZ=             -0.4785   YZ=             -1.0956

  Exact polarizability:  87.044   2.483  86.016   0.091  -1.047  67.691
 Approx polarizability: 139.535   3.971 121.218  -0.147  -0.651 106.157

                      1                      2                      3
                      A                      A                      A
 Frequencies --    135.2135               241.7775               359.4760
 Red. masses --      4.2468                 2.7358                 2.4980
 Frc consts  --      0.0457                 0.0942                 0.1902
 IR Inten    --      3.7707                 2.9311                 0.5848

                      4                      5                      6
                      A                      A                      A
 Frequencies --    419.5032               438.3879               451.8857
 Red. masses --      3.3453                 3.6642                 3.0285
 Frc consts  --      0.3469                 0.4149                 0.3644
 IR Inten    --     14.0438                 1.3839                 1.0983

                      7                      8                      9
                      A                      A                      A
 Frequencies --    495.9863               612.3823               682.2762
 Red. masses --      2.6273                 3.5205                 3.0467
 Frc consts  --      0.3808                 0.7779                 0.8356
 IR Inten    --      2.8399                 1.3139                 2.2257

                     10                     11                     12
                      A                      A                      A
 Frequencies --    730.3111               769.8613               788.0273
 Red. masses --      2.6963                 3.1290                 1.8823
 Frc consts  --      0.8473                 1.0927                 0.6887
 IR Inten    --      2.6294                 6.5323                27.4747

                     13                     14                     15
                      A                      A                      A
 Frequencies --    844.2793               866.1500               878.9900
 Red. masses --      2.0921                 2.1819                 1.6697
 Frc consts  --      0.8786                 0.9644                 0.7601
 IR Inten    --      0.1447                14.2436                33.3374

                     16                     17                     18
                      A                      A                      A
 Frequencies --    901.6588               931.5857               963.9774
 Red. masses --      3.2485                 2.5680                 2.1437
 Frc consts  --      1.5560                 1.3131                 1.1737
 IR Inten    --      5.1821                 1.5457                 1.8855

                     19                     20                     21
                      A                      A                      A
 Frequencies --    973.0303              1000.4076              1024.0463
 Red. masses --      1.9655                 1.7789                 1.9677
 Frc consts  --      1.0964                 1.0490                 1.2158
 IR Inten    --      8.4995                16.5196                 6.7881

                     22                     23                     24
                      A                      A                      A
 Frequencies --   1050.4198              1056.4242              1108.1318
 Red. masses --      1.2485                 2.0336                 1.7380
 Frc consts  --      0.8116                 1.3372                 1.2575
 IR Inten    --      1.3330                13.8546                 8.9140

                     25                     26                     27
                      A                      A                      A
 Frequencies --   1112.7340              1124.2615              1145.5654
 Red. masses --      1.3019                 1.2557                 1.3998
 Frc consts  --      0.9498                 0.9351                 1.0823
 IR Inten    --      3.5258                 3.4484                34.4144

                     28                     29                     30
                      A                      A                      A
 Frequencies --   1160.2222              1199.0461              1203.3516
 Red. masses --      1.4866                 1.5303                 1.5708
 Frc consts  --      1.1791                 1.2963                 1.3401
 IR Inten    --     15.9460                10.9924                 2.6632

                     31                     32                     33
                      A                      A                      A
 Frequencies --   1259.4797              1267.2728              1293.6331
 Red. masses --      1.3565                 1.8499                 1.5443
 Frc consts  --      1.2678                 1.7504                 1.5227
 IR Inten    --      4.3009                21.4736                 7.4298

                     34                     35                     36
                      A                      A                      A
 Frequencies --   1317.3944              1341.2987              1374.7270
 Red. masses --      1.4485                 1.5124                 1.7165
 Frc consts  --      1.4811                 1.6032                 1.9113
 IR Inten    --     14.7047                 3.0520                 7.1892

                     37                     38                     39
                      A                      A                      A
 Frequencies --   1393.8607              1477.8191              1503.0600
 Red. masses --      2.2939                 1.1825                 1.1301
 Frc consts  --      2.6258                 1.5215                 1.5042
 IR Inten    --     43.5861                 6.0270                 5.5522

                     40                     41                     42
                      A                      A                      A
 Frequencies --   1535.5579              1718.7800              3051.3895
 Red. masses --      1.1079                 9.2277                 1.0585
 Frc consts  --      1.5392                16.0614                 5.8068
 IR Inten    --      2.4855               108.2957                40.4830

                     43                     44                     45
                      A                      A                      A
 Frequencies --   3055.5231              3068.5831              3116.0822
 Red. masses --      1.0690                 1.0830                 1.1104
 Frc consts  --      5.8805                 6.0083                 6.3523
 IR Inten    --     34.1978                61.9406                21.4321

                     46                     47                     48
                      A                      A                      A
 Frequencies --   3128.0478              3146.6505              3152.3122
 Red. masses --      1.0980                 1.0669                 1.0816
 Frc consts  --      6.3301                 6.2238                 6.3322
 IR Inten    --     14.7906                19.0241                18.8888

                     49                     50                     51
                      A                      A                      A
 Frequencies --   3175.6867              3230.7315              3416.9408
 Red. masses --      1.0901                 1.1130                 1.0738
 Frc consts  --      6.4774                 6.8445                 7.3868
 IR Inten    --      6.2049                 7.3450                 4.4740

 - Thermochemistry -
 -------------------
 Temperature   298.150 Kelvin.  Pressure   1.00000 Atm.
 Atom     1 has atomic number  7 and mass  14.00307

 Molecular mass:   122.08440 amu.
 Principal axes and moments of inertia in atomic units:
                           1         2         3
     Eigenvalues --   735.29827 864.550551242.51717
           X            0.99920   0.04002   0.00271
           Y           -0.04001   0.99919  -0.00302
           Z           -0.00283   0.00291   0.99999
 This molecule is an asymmetric top.
 Rotational symmetry number  1.
 Warning -- assumption of classical behavior for rotation
           may cause significant error
 Rotational temperatures (Kelvin)      0.11779     0.10018     0.06971
 Rotational constants (GHZ):           2.45443     2.08749     1.45249
 Zero-point vibrational energy     428826.6 (Joules/Mol)
                                  102.49201 (Kcal/Mol)
 Warning -- explicit consideration of   8 degrees of freedom as
           vibrations may cause significant error
 Vibrational temperatures:    194.54   347.86   517.21   603.57   630.74
          (Kelvin)            650.16   713.61   881.08   981.64  1050.75
                             1107.66  1133.80  1214.73  1246.20  1264.67
                             1297.29  1340.34  1386.95  1399.97  1439.36
                             1473.37  1511.32  1519.96  1594.35  1600.98
                             1617.56  1648.21  1669.30  1725.16  1731.35
                             1812.11  1823.32  1861.25  1895.44  1929.83
                             1977.93  2005.45  2126.25  2162.57  2209.33
                             2472.94  4390.27  4396.22  4415.01  4483.35
                             4500.56  4527.33  4535.47  4569.10  4648.30
                             4916.22

 Zero-point correction=                           0.163331 (Hartree/Particle)
 Thermal correction to Energy=                    0.170016
 Thermal correction to Enthalpy=                  0.170960
 Thermal correction to Gibbs Free Energy=         0.132576
 Sum of electronic and zero-point Energies=           -382.023519
 Sum of electronic and thermal Energies=              -382.016834
 Sum of electronic and thermal Enthalpies=            -382.015890
 Sum of electronic and thermal Free Energies=         -382.054274

                     E (Thermal)             CV                S
                      KCal/Mol        Cal/Mol-Kelvin    Cal/Mol-Kelvin
 Total                  106.686             28.388             80.785
 Electronic               0.000              0.000              0.000
 Translational            0.889              2.981             40.313
 Rotational               0.889              2.981             28.159
 Vibrational            104.909             22.427             12.313
 Vibration     1          0.613              1.918              2.871
 Vibration     2          0.658              1.776              1.790
 Vibration     3          0.734              1.556              1.124
 Vibration     4          0.782              1.428              0.894
 Vibration     5          0.799              1.386              0.832
 Vibration     6          0.811              1.357              0.790
 Vibration     7          0.852              1.259              0.668
 Vibration     8          0.972              1.006              0.429

 Optimization completed.
    -- Stationary point found.
 Normal termination of Gaussian 16 at Sun Jul  3 22:53:47 2022.
