 Gaussian 16, Revision A.03,
 Gaussian 16:  ES64L-G16RevA.03 25-Dec-2016

 -----------------------------
 # opt freq b3lyp/6-31g(2df,p)
 -----------------------------

 -------------------
 Title Card Required
 -------------------
 Symbolic Z-matrix:
 Charge =  0 Multiplicity = 1

 SCF Done:  E(RB3LYP) =  -383.427765701     A.U. after   13 cycles
 SCF Done:  E(RB3LYP) =  -383.434620129     A.U. after   11 cycles
 SCF Done:  E(RB3LYP) =  -383.436001840     A.U. after   11 cycles
 SCF Done:  E(RB3LYP) =  -383.436413615     A.U. after   11 cycles
 SCF Done:  E(RB3LYP) =  -383.436496822     A.U. after   11 cycles
 SCF Done:  E(RB3LYP) =  -383.436542611     A.U. after   11 cycles
 SCF Done:  E(RB3LYP) =  -383.436573749     A.U. after   10 cycles
 SCF Done:  E(RB3LYP) =  -383.436568623     A.U. after   11 cycles
 SCF Done:  E(RB3LYP) =  -383.436700396     A.U. after   10 cycles
 SCF Done:  E(RB3LYP) =  -383.436805232     A.U. after   11 cycles
 SCF Done:  E(RB3LYP) =  -383.437534400     A.U. after   11 cycles
 SCF Done:  E(RB3LYP) =  -383.437918492     A.U. after    7 cycles
 SCF Done:  E(RB3LYP) =  -383.438108527     A.U. after   11 cycles
 SCF Done:  E(RB3LYP) =  -383.438177185     A.U. after   11 cycles
 SCF Done:  E(RB3LYP) =  -383.438180257     A.U. after    9 cycles
 SCF Done:  E(RB3LYP) =  -383.438178260     A.U. after    8 cycles
 SCF Done:  E(RB3LYP) =  -383.438179692     A.U. after    9 cycles
 SCF Done:  E(RB3LYP) =  -383.438180783     A.U. after    7 cycles
 SCF Done:  E(RB3LYP) =  -383.438181065     A.U. after    8 cycles
 Optimization completed.
    -- Stationary point found.
 Normal termination of Gaussian 16 at Sun Jul  3 13:04:42 2022.

 ----------------------------------------------------------------------
 #N Geom=AllCheck Guess=TCheck SCRF=Check GenChk RB3LYP/6-31G(2df,p) Fr
 eq
 ----------------------------------------------------------------------

 Structure from the checkpoint file:  "NdCC1CC2CNC2C1.chk"
 -------------------
 Title Card Required
 -------------------
 Charge =  0 Multiplicity = 1

                         Standard orientation:
 ---------------------------------------------------------------------
 Center     Atomic      Atomic             Coordinates (Angstroms)
 Number     Number       Type             X           Y           Z
 ---------------------------------------------------------------------
      1          7           0       -2.919013   -0.684298    0.679278
      2          6           0       -2.449945    0.291268    0.014851
      3          6           0       -1.072513    0.272739   -0.581652
      4          6           0       -0.143622    1.381615    0.000920
      5          6           0        1.281856    0.882528   -0.305114
      6          6           0        2.172198    0.381780    0.867347
      7          7           0        2.261838   -0.955614    0.229533
      8          6           0        1.180634   -0.614960   -0.726965
      9          6           0       -0.268707   -1.024482   -0.394098
     10          1           0       -3.860786   -0.474282    1.016628
     11          1           0       -3.008700    1.224534   -0.158882
     12          1           0       -1.182280    0.474320   -1.658530
     13          1           0       -0.302898    1.462461    1.082512
     14          1           0       -0.356186    2.364617   -0.428965
     15          1           0        1.814800    1.526546   -1.006072
     16          1           0        1.652962    0.405643    1.835617
     17          1           0        3.145114    0.870815    0.989071
     18          1           0        2.058005   -1.740126    0.840034
     19          1           0        1.436927   -0.866737   -1.762364
     20          1           0       -0.351508   -1.347781    0.649539
     21          1           0       -0.644625   -1.843555   -1.012009
 ---------------------------------------------------------------------

 SCF Done:  E(RB3LYP) =  -383.438181065     A.U. after    1 cycles

 The electronic state is 1-A.
 Alpha  occ. eigenvalues --  -14.31501 -14.30138 -10.22856 -10.20089 -10.20038
 Alpha  occ. eigenvalues --  -10.19299 -10.18599 -10.18332 -10.17250  -0.91994
 Alpha  occ. eigenvalues --   -0.90034  -0.80910  -0.72438  -0.69399  -0.64426
 Alpha  occ. eigenvalues --   -0.61253  -0.54272  -0.52851  -0.50657  -0.49275
 Alpha  occ. eigenvalues --   -0.47803  -0.43666  -0.43157  -0.40534  -0.37881
 Alpha  occ. eigenvalues --   -0.35761  -0.34762  -0.34379  -0.33079  -0.31098
 Alpha  occ. eigenvalues --   -0.30444  -0.29250  -0.25938  -0.21556
 Alpha virt. eigenvalues --    0.00120   0.07776   0.08984   0.09726   0.09926
 Alpha virt. eigenvalues --    0.12896   0.14216   0.14462   0.16140   0.16593
 Alpha virt. eigenvalues --    0.17417   0.17656   0.20022   0.20457   0.21325

 Mulliken charges:
               1
     1  N   -0.381182
     2  C    0.012841
     3  C    0.001973
     4  C   -0.258068
     5  C   -0.009365
     6  C   -0.175504
     7  N   -0.325053
     8  C    0.026279
     9  C   -0.243304
    10  H    0.223325
    11  H    0.082594
    12  H    0.086106
    13  H    0.104909
    14  H    0.098787
    15  H    0.074116
    16  H    0.088200
    17  H    0.099349
    18  H    0.211717
    19  H    0.067950
    20  H    0.111798
    21  H    0.102530
 Sum of Mulliken charges =   0.00000

 Dipole moment (field-independent basis, Debye):
    X=             -1.3226    Y=              1.8119    Z=             -0.1466  Tot=              2.2480
 Quadrupole moment (field-independent basis, Debye-Ang):
   XX=            -56.5296   YY=            -55.1012   ZZ=            -53.3150
   XY=             -2.2866   XZ=              1.6886   YZ=             -0.4239

  Exact polarizability:  96.478   2.660  79.996  -2.216  -3.076  72.387
 Approx polarizability: 121.419   5.944 123.014  -5.241  -9.116 114.677

                      1                      2                      3
                      A                      A                      A
 Frequencies --     65.4393               100.8058               114.0756
 Red. masses --      3.4232                 2.3491                 2.8464
 Frc consts  --      0.0086                 0.0141                 0.0218
 IR Inten    --      2.6179                 2.4400                 4.3116

                      4                      5                      6
                      A                      A                      A
 Frequencies --    213.4495               334.6298               377.0475
 Red. masses --      3.0266                 2.4458                 2.2136
 Frc consts  --      0.0812                 0.1614                 0.1854
 IR Inten    --      7.6939                 7.1865                 5.0428

                      7                      8                      9
                      A                      A                      A
 Frequencies --    393.8134               473.8039               603.6869
 Red. masses --      2.3921                 2.5726                 3.8382
 Frc consts  --      0.2186                 0.3403                 0.8241
 IR Inten    --      3.9072                 1.3988                29.5333

                     10                     11                     12
                      A                      A                      A
 Frequencies --    647.7900               688.7186               762.4976
 Red. masses --      3.5865                 1.9633                 1.6978
 Frc consts  --      0.8867                 0.5487                 0.5816
 IR Inten    --     21.4524                35.7090                28.9706

                     13                     14                     15
                      A                      A                      A
 Frequencies --    778.3362               834.8323               862.9338
 Red. masses --      2.0517                 2.1591                 2.5631
 Frc consts  --      0.7323                 0.8866                 1.1245
 IR Inten    --     43.4150                 2.3837                 6.2801

                     16                     17                     18
                      A                      A                      A
 Frequencies --    880.0087               917.0290               964.7994
 Red. masses --      1.3844                 2.2246                 1.8036
 Frc consts  --      0.6317                 1.1022                 0.9892
 IR Inten    --      1.8285                 4.4691                 7.0700

                     19                     20                     21
                      A                      A                      A
 Frequencies --   1004.2596              1012.4299              1021.4265
 Red. masses --      1.8090                 1.6903                 2.3510
 Frc consts  --      1.0749                 1.0208                 1.4451
 IR Inten    --      6.9193                 0.5263                 3.3645

                     22                     23                     24
                      A                      A                      A
 Frequencies --   1039.1706              1077.8078              1084.6971
 Red. masses --      2.1220                 2.7621                 2.3455
 Frc consts  --      1.3501                 1.8905                 1.6259
 IR Inten    --     10.3515                17.5828                16.7694

                     25                     26                     27
                      A                      A                      A
 Frequencies --   1101.4771              1126.5877              1168.1594
 Red. masses --      2.4844                 1.2666                 1.3682
 Frc consts  --      1.7759                 0.9472                 1.1000
 IR Inten    --     11.6384                 6.2357                11.2320

                     28                     29                     30
                      A                      A                      A
 Frequencies --   1180.6285              1203.8358              1214.7498
 Red. masses --      1.3280                 1.6889                 1.2681
 Frc consts  --      1.0907                 1.4421                 1.1025
 IR Inten    --     10.5796                 3.5299                10.6162

                     31                     32                     33
                      A                      A                      A
 Frequencies --   1249.4962              1266.1630              1280.8296
 Red. masses --      1.2783                 1.2678                 1.3434
 Frc consts  --      1.1759                 1.1975                 1.2984
 IR Inten    --      2.4617                 7.2823                 6.1135

                     34                     35                     36
                      A                      A                      A
 Frequencies --   1287.6666              1320.2075              1329.6325
 Red. masses --      1.3130                 1.2876                 1.4169
 Frc consts  --      1.2827                 1.3223                 1.4759
 IR Inten    --      1.2062                 1.4293                 0.6171

                     37                     38                     39
                      A                      A                      A
 Frequencies --   1337.4199              1344.9442              1382.3197
 Red. masses --      1.2925                 1.4686                 1.5222
 Frc consts  --      1.3621                 1.5651                 1.7138
 IR Inten    --      5.6440                 4.6734                 6.2046

                     40                     41                     42
                      A                      A                      A
 Frequencies --   1395.3381              1424.2077              1486.4069
 Red. masses --      1.4552                 1.5266                 1.0881
 Frc consts  --      1.6693                 1.8244                 1.4164
 IR Inten    --     15.2516                26.5083                 1.5331

                     43                     44                     45
                      A                      A                      A
 Frequencies --   1498.4561              1519.7036              1728.0624
 Red. masses --      1.0957                 1.0949                 6.7751
 Frc consts  --      1.4495                 1.4899                11.9202
 IR Inten    --      3.4358                 3.7532                74.2718

                     46                     47                     48
                      A                      A                      A
 Frequencies --   2980.0915              2994.5199              2997.9367
 Red. masses --      1.0818                 1.0851                 1.0629
 Frc consts  --      5.6606                 5.7330                 5.6282
 IR Inten    --     25.2490                60.1423                61.6580

                     49                     50                     51
                      A                      A                      A
 Frequencies --   3028.7192              3036.2498              3050.1593
 Red. masses --      1.0866                 1.0627                 1.0922
 Frc consts  --      5.8724                 5.7724                 5.9868
 IR Inten    --     45.0663                31.0276                32.6866

                     52                     53                     54
                      A                      A                      A
 Frequencies --   3051.7636              3080.1215              3099.8787
 Red. masses --      1.0708                 1.0976                 1.0939
 Frc consts  --      5.8756                 6.1354                 6.1933
 IR Inten    --     25.1865                12.4776                52.4267

                     55                     56                     57
                      A                      A                      A
 Frequencies --   3104.9947              3445.1797              3516.9977
 Red. masses --      1.1003                 1.0757                 1.0755
 Frc consts  --      6.2500                 7.5227                 7.8382
 IR Inten    --     37.7383                 2.3193                 1.7543

 - Thermochemistry -
 -------------------
 Temperature   298.150 Kelvin.  Pressure   1.00000 Atm.
 Atom     1 has atomic number  7 and mass  14.00307

 Molecular mass:   124.10005 amu.
 Principal axes and moments of inertia in atomic units:
                           1         2         3
     Eigenvalues --   499.795071661.219801836.03341
           X            0.99998  -0.00210   0.00605
           Y            0.00207   0.99999   0.00478
           Z           -0.00606  -0.00477   0.99997
 This molecule is an asymmetric top.
 Rotational symmetry number  1.
 Warning -- assumption of classical behavior for rotation
           may cause significant error
 Rotational temperatures (Kelvin)      0.17330     0.05214     0.04717
 Rotational constants (GHZ):           3.61096     1.08640     0.98296
 Zero-point vibrational energy     487396.9 (Joules/Mol)
                                  116.49065 (Kcal/Mol)
 Warning -- explicit consideration of   9 degrees of freedom as
           vibrations may cause significant error
 Vibrational temperatures:     94.15   145.04   164.13   307.11   481.46
          (Kelvin)            542.49   566.61   681.70   868.57   932.03
                              990.91  1097.06  1119.85  1201.14  1241.57
                             1266.14  1319.40  1388.13  1444.91  1456.66
                             1469.60  1495.13  1550.73  1560.64  1584.78
                             1620.91  1680.72  1698.66  1732.05  1747.75
                             1797.75  1821.73  1842.83  1852.66  1899.48
                             1913.04  1924.25  1935.07  1988.85  2007.58
                             2049.12  2138.61  2155.94  2186.51  2486.30
                             4287.69  4308.45  4313.36  4357.65  4368.49
                             4388.50  4390.81  4431.61  4460.03  4467.39
                             4956.85  5060.18

 Zero-point correction=                           0.185640 (Hartree/Particle)
 Thermal correction to Energy=                    0.193830
 Thermal correction to Enthalpy=                  0.194774
 Thermal correction to Gibbs Free Energy=         0.152236
 Sum of electronic and zero-point Energies=           -383.252541
 Sum of electronic and thermal Energies=              -383.244351
 Sum of electronic and thermal Enthalpies=            -383.243407
 Sum of electronic and thermal Free Energies=         -383.285945

                     E (Thermal)             CV                S
                      KCal/Mol        Cal/Mol-Kelvin    Cal/Mol-Kelvin
 Total                  121.630             31.493             89.530
 Electronic               0.000              0.000              0.000
 Translational            0.889              2.981             40.362
 Rotational               0.889              2.981             28.812
 Vibrational            119.853             25.531             20.356
 Vibration     1          0.597              1.971              4.286
 Vibration     2          0.604              1.948              3.439
 Vibration     3          0.607              1.938              3.198
 Vibration     4          0.644              1.820              2.014
 Vibration     5          0.716              1.606              1.238
 Vibration     6          0.748              1.519              1.051
 Vibration     7          0.761              1.483              0.986
 Vibration     8          0.831              1.308              0.727
 Vibration     9          0.962              1.024              0.443

 Optimization completed.
    -- Stationary point found.
 Normal termination of Gaussian 16 at Sun Jul  3 13:40:26 2022.
