 Gaussian 16, Revision A.03,
 Gaussian 16:  ES64L-G16RevA.03 25-Dec-2016

 -----------------------------
 # opt freq b3lyp/6-31g(2df,p)
 -----------------------------

 -------------------
 Title Card Required
 -------------------
 Symbolic Z-matrix:
 Charge =  0 Multiplicity = 1

 SCF Done:  E(RB3LYP) =  -434.188782654     A.U. after   14 cycles
 SCF Done:  E(RB3LYP) =  -434.193402374     A.U. after   13 cycles
 SCF Done:  E(RB3LYP) =  -434.194699524     A.U. after   12 cycles
 SCF Done:  E(RB3LYP) =  -434.195487701     A.U. after   12 cycles
 SCF Done:  E(RB3LYP) =  -434.196461884     A.U. after   12 cycles
 SCF Done:  E(RB3LYP) =  -434.197888302     A.U. after   12 cycles
 SCF Done:  E(RB3LYP) =  -434.199207417     A.U. after   13 cycles
 SCF Done:  E(RB3LYP) =  -434.199970212     A.U. after   13 cycles
 SCF Done:  E(RB3LYP) =  -434.200677295     A.U. after   13 cycles
 SCF Done:  E(RB3LYP) =  -434.201139255     A.U. after   13 cycles
 SCF Done:  E(RB3LYP) =  -434.201431234     A.U. after   13 cycles
 SCF Done:  E(RB3LYP) =  -434.201528566     A.U. after   12 cycles
 SCF Done:  E(RB3LYP) =  -434.201557250     A.U. after   10 cycles
 SCF Done:  E(RB3LYP) =  -434.201565903     A.U. after   10 cycles
 SCF Done:  E(RB3LYP) =  -434.201568179     A.U. after    8 cycles
 SCF Done:  E(RB3LYP) =  -434.201568674     A.U. after    7 cycles
 SCF Done:  E(RB3LYP) =  -434.201568843     A.U. after    8 cycles
 SCF Done:  E(RB3LYP) =  -434.201568878     A.U. after    7 cycles
 Optimization completed.
    -- Stationary point found.
 Normal termination of Gaussian 16 at Sun Jul  3 11:16:28 2022.

 ----------------------------------------------------------------------
 #N Geom=AllCheck Guess=TCheck SCRF=Check GenChk RB3LYP/6-31G(2df,p) Fr
 eq
 ----------------------------------------------------------------------

 Structure from the checkpoint file:  "NdCCNc1cnco1.chk"
 -------------------
 Title Card Required
 -------------------
 Charge =  0 Multiplicity = 1

                         Standard orientation:
 ---------------------------------------------------------------------
 Center     Atomic      Atomic             Coordinates (Angstroms)
 Number     Number       Type             X           Y           Z
 ---------------------------------------------------------------------
      1          7           0        3.913717    0.034394    0.376787
      2          6           0        2.894329   -0.084669   -0.367322
      3          6           0        1.560960    0.480077    0.049037
      4          7           0        0.525409   -0.537259   -0.080363
      5          6           0       -0.786278   -0.119321   -0.005562
      6          6           0       -1.429626    1.080420   -0.034474
      7          7           0       -2.805125    0.846613   -0.009986
      8          6           0       -2.918656   -0.432621    0.043449
      9          8           0       -1.725688   -1.104715    0.046347
     10          1           0        4.735384   -0.386942   -0.062452
     11          1           0        2.887376   -0.591925   -1.342455
     12          1           0        1.301838    1.296595   -0.638109
     13          1           0        1.645201    0.904197    1.058710
     14          1           0        0.702317   -1.370467    0.467206
     15          1           0       -1.021041    2.075918   -0.063071
     16          1           0       -3.807953   -1.039209    0.093561
 ---------------------------------------------------------------------

 SCF Done:  E(RB3LYP) =  -434.201568878     A.U. after    1 cycles

 The electronic state is 1-A.
 Alpha  occ. eigenvalues --  -19.21202 -14.36231 -14.33334 -14.32043 -10.27105
 Alpha  occ. eigenvalues --  -10.25524 -10.24513 -10.23534 -10.19477  -1.12859
 Alpha  occ. eigenvalues --   -0.95191  -0.91423  -0.90775  -0.76238  -0.71487
 Alpha  occ. eigenvalues --   -0.62874  -0.59408  -0.57998  -0.54105  -0.53289
 Alpha  occ. eigenvalues --   -0.49642  -0.47165  -0.45799  -0.43217  -0.42141
 Alpha  occ. eigenvalues --   -0.40818  -0.39513  -0.33443  -0.31933  -0.30715
 Alpha  occ. eigenvalues --   -0.28033  -0.27768  -0.20521
 Alpha virt. eigenvalues --   -0.01992   0.01706   0.07196   0.08599   0.09340
 Alpha virt. eigenvalues --    0.10921   0.13201   0.14945   0.15576   0.16566
 Alpha virt. eigenvalues --    0.17496   0.19327   0.20985   0.25525   0.28253

 Mulliken charges:
               1
     1  N   -0.364938
     2  C    0.018628
     3  C   -0.171511
     4  N   -0.417607
     5  C    0.407190
     6  C   -0.203364
     7  N   -0.246901
     8  C    0.056865
     9  O   -0.191899
    10  H    0.232765
    11  H    0.102937
    12  H    0.137600
    13  H    0.126774
    14  H    0.251067
    15  H    0.115947
    16  H    0.146447
 Sum of Mulliken charges =  -0.00000

 Dipole moment (field-independent basis, Debye):
    X=              2.0372    Y=             -1.8000    Z=             -0.7927  Tot=              2.8317
 Quadrupole moment (field-independent basis, Debye-Ang):
   XX=            -53.9745   YY=            -50.6574   ZZ=            -53.0915
   XY=              2.4147   XZ=             -5.9208   YZ=             -1.4644

  Exact polarizability: 111.870  -1.149  64.373   2.796   1.034  46.948
 Approx polarizability: 145.935  -3.866 113.450   7.792   0.885  75.845

                      1                      2                      3
                      A                      A                      A
 Frequencies --     54.2139                60.0357                95.5753
 Red. masses --      4.6096                 3.9896                 2.6642
 Frc consts  --      0.0080                 0.0085                 0.0143
 IR Inten    --      1.8241                 6.5876                 0.4303

                      4                      5                      6
                      A                      A                      A
 Frequencies --    148.2530               295.8538               320.7620
 Red. masses --      3.7495                 4.2518                 3.2510
 Frc consts  --      0.0486                 0.2193                 0.1971
 IR Inten    --      3.7531                 9.6200                 6.7714

                      7                      8                      9
                      A                      A                      A
 Frequencies --    396.2508               503.9768               599.8282
 Red. masses --      4.9863                 2.6389                 1.5007
 Frc consts  --      0.4613                 0.3949                 0.3181
 IR Inten    --      1.2478                71.4904                73.3544

                     10                     11                     12
                      A                      A                      A
 Frequencies --    658.6515               695.2344               737.7027
 Red. masses --      3.1791                 3.7956                 1.5474
 Frc consts  --      0.8126                 1.0809                 0.4962
 IR Inten    --     21.1174                 1.1153                65.5517

                     13                     14                     15
                      A                      A                      A
 Frequencies --    773.5870               778.3855               785.2784
 Red. masses --      2.3150                 1.5539                 1.5566
 Frc consts  --      0.8163                 0.5547                 0.5655
 IR Inten    --     21.2034                 8.5203                 7.8163

                     16                     17                     18
                      A                      A                      A
 Frequencies --    935.5734               978.6750              1028.8239
 Red. masses --      7.0250                 3.2704                 2.3050
 Frc consts  --      3.6229                 1.8456                 1.4375
 IR Inten    --      1.5150                25.6302                31.8745

                     19                     20                     21
                      A                      A                      A
 Frequencies --   1031.7216              1096.0721              1119.9911
 Red. masses --      1.7819                 4.4030                 4.4328
 Frc consts  --      1.1175                 3.1166                 3.2761
 IR Inten    --     25.4190                52.3201                 8.0683

                     22                     23                     24
                      A                      A                      A
 Frequencies --   1123.2579              1129.7159              1209.4241
 Red. masses --      3.9424                 1.2307                 1.2140
 Frc consts  --      2.9307                 0.9254                 1.0462
 IR Inten    --      1.0402                 9.9788                24.3696

                     25                     26                     27
                      A                      A                      A
 Frequencies --   1242.5098              1276.8965              1281.5397
 Red. masses --      1.5811                 1.4835                 1.3158
 Frc consts  --      1.4382                 1.4251                 1.2732
 IR Inten    --     51.3495                16.0693                16.4297

                     28                     29                     30
                      A                      A                      A
 Frequencies --   1335.5362              1374.0430              1418.5065
 Red. masses --      1.5262                 1.7035                 1.6039
 Frc consts  --      1.6039                 1.8949                 1.9015
 IR Inten    --      9.3866                 3.8004                28.5417

                     31                     32                     33
                      A                      A                      A
 Frequencies --   1492.2216              1505.3764              1574.3712
 Red. masses --      1.0890                 1.6540                 6.0457
 Frc consts  --      1.4288                 2.2084                 8.8289
 IR Inten    --     12.6398                69.9982                46.2565

                     34                     35                     36
                      A                      A                      A
 Frequencies --   1654.2119              1739.4077              3009.8150
 Red. masses --      7.7436                 6.7592                 1.0573
 Frc consts  --     12.4846                12.0489                 5.6430
 IR Inten    --    250.6665                62.6277                20.6759

                     37                     38                     39
                      A                      A                      A
 Frequencies --   3021.2810              3054.3943              3278.4904
 Red. masses --      1.0868                 1.1043                 1.0958
 Frc consts  --      5.8450                 6.0700                 6.9395
 IR Inten    --     38.1188                23.3893                 8.5972

                     40                     41                     42
                      A                      A                      A
 Frequencies --   3285.9625              3447.8948              3560.7840
 Red. masses --      1.0994                 1.0757                 1.0744
 Frc consts  --      6.9940                 7.5347                 8.0265
 IR Inten    --      2.0599                 0.2822                17.1897

 - Thermochemistry -
 -------------------
 Temperature   298.150 Kelvin.  Pressure   1.00000 Atm.
 Atom     1 has atomic number  7 and mass  14.00307

 Molecular mass:   125.05891 amu.
 Principal axes and moments of inertia in atomic units:
                           1         2         3
     Eigenvalues --   252.142392495.350692694.81791
           X            0.99999   0.00091  -0.00472
           Y           -0.00090   1.00000   0.00131
           Z            0.00472  -0.00131   0.99999
 This molecule is an asymmetric top.
 Rotational symmetry number  1.
 Rotational temperatures (Kelvin)      0.34351     0.03471     0.03214
 Rotational constants (GHZ):           7.15763     0.72324     0.66971
 Zero-point vibrational energy     329631.5 (Joules/Mol)
                                   78.78382 (Kcal/Mol)
 Warning -- explicit consideration of   9 degrees of freedom as
           vibrations may cause significant error
 Vibrational temperatures:     78.00    86.38   137.51   213.30   425.67
          (Kelvin)            461.51   570.12   725.11   863.02   947.65
                             1000.29  1061.39  1113.02  1119.92  1129.84
                             1346.08  1408.09  1480.25  1484.42  1577.00
                             1611.42  1616.12  1625.41  1740.09  1787.69
                             1837.17  1843.85  1921.54  1976.94  2040.91
                             2146.97  2165.90  2265.17  2380.04  2502.62
                             4330.45  4346.95  4394.59  4717.02  4727.77
                             4960.75  5123.17

 Zero-point correction=                           0.125550 (Hartree/Particle)
 Thermal correction to Energy=                    0.133867
 Thermal correction to Enthalpy=                  0.134811
 Thermal correction to Gibbs Free Energy=         0.091126
 Sum of electronic and zero-point Energies=           -434.076019
 Sum of electronic and thermal Energies=              -434.067702
 Sum of electronic and thermal Enthalpies=            -434.066757
 Sum of electronic and thermal Free Energies=         -434.110443

                     E (Thermal)             CV                S
                      KCal/Mol        Cal/Mol-Kelvin    Cal/Mol-Kelvin
 Total                   84.003             29.332             91.943
 Electronic               0.000              0.000              0.000
 Translational            0.889              2.981             40.385
 Rotational               0.889              2.981             28.918
 Vibrational             82.226             23.371             22.640
 Vibration     1          0.596              1.976              4.657
 Vibration     2          0.597              1.973              4.456
 Vibration     3          0.603              1.952              3.543
 Vibration     4          0.618              1.905              2.695
 Vibration     5          0.690              1.681              1.440
 Vibration     6          0.706              1.634              1.306
 Vibration     7          0.763              1.478              0.977
 Vibration     8          0.859              1.241              0.648
 Vibration     9          0.958              1.032              0.450

 Optimization completed.
    -- Stationary point found.
 Normal termination of Gaussian 16 at Sun Jul  3 11:37:19 2022.
