 Gaussian 16, Revision A.03,
 Gaussian 16:  ES64L-G16RevA.03 25-Dec-2016

 -----------------------------
 # opt freq b3lyp/6-31g(2df,p)
 -----------------------------

 -------------------
 Title Card Required
 -------------------
 Symbolic Z-matrix:
 Charge =  0 Multiplicity = 1

 SCF Done:  E(RB3LYP) =  -405.753380348     A.U. after   15 cycles
 SCF Done:  E(RB3LYP) =  -405.765755603     A.U. after   14 cycles
 SCF Done:  E(RB3LYP) =  -405.767036661     A.U. after   14 cycles
 SCF Done:  E(RB3LYP) =  -405.767535464     A.U. after   14 cycles
 SCF Done:  E(RB3LYP) =  -405.767816560     A.U. after   13 cycles
 SCF Done:  E(RB3LYP) =  -405.767892638     A.U. after   13 cycles
 SCF Done:  E(RB3LYP) =  -405.767913321     A.U. after   12 cycles
 SCF Done:  E(RB3LYP) =  -405.767918778     A.U. after   10 cycles
 SCF Done:  E(RB3LYP) =  -405.767921828     A.U. after   10 cycles
 SCF Done:  E(RB3LYP) =  -405.767924081     A.U. after   10 cycles
 SCF Done:  E(RB3LYP) =  -405.767926865     A.U. after   11 cycles
 SCF Done:  E(RB3LYP) =  -405.767933682     A.U. after   10 cycles
 SCF Done:  E(RB3LYP) =  -405.767938351     A.U. after   12 cycles
 SCF Done:  E(RB3LYP) =  -405.767940408     A.U. after    9 cycles
 SCF Done:  E(RB3LYP) =  -405.767945817     A.U. after   11 cycles
 SCF Done:  E(RB3LYP) =  -405.767947150     A.U. after   10 cycles
 SCF Done:  E(RB3LYP) =  -405.767947575     A.U. after    9 cycles
 Optimization completed.
    -- Stationary point found.
 Normal termination of Gaussian 16 at Thu Aug  4 10:15:18 2022.

 ----------------------------------------------------------------------
 #N Geom=AllCheck Guess=TCheck SCRF=Check GenChk RB3LYP/6-31G(2df,p) Fr
 eq
 ----------------------------------------------------------------------

 Structure from the checkpoint file:  "NdCc1nnnnn1.chk"
 -------------------
 Title Card Required
 -------------------
 Charge =  0 Multiplicity = 1

                         Standard orientation:
 ---------------------------------------------------------------------
 Center     Atomic      Atomic             Coordinates (Angstroms)
 Number     Number       Type             X           Y           Z
 ---------------------------------------------------------------------
      1          7           0        2.725568   -0.454068   -0.093652
      2          6           0        1.875195    0.481742   -0.002507
      3          6           0        0.423312    0.186333    0.055346
      4          7           0       -0.392010    1.241493    0.081915
      5          7           0       -1.686011    1.004223   -0.024136
      6          7           0       -2.126014   -0.230261   -0.149892
      7          7           0       -1.303187   -1.264755    0.021978
      8          7           0       -0.012596   -1.080281    0.132277
      9          1           0        3.675555   -0.077670   -0.127848
     10          1           0        2.093157    1.554759    0.031392
 ---------------------------------------------------------------------

 SCF Done:  E(RB3LYP) =  -405.767947575     A.U. after    2 cycles

 The electronic state is 1-A.
 Alpha  occ. eigenvalues --  -14.45474 -14.45399 -14.44066 -14.42664 -14.42605
 Alpha  occ. eigenvalues --  -14.36914 -10.31766 -10.27741  -1.16056  -1.04009
 Alpha  occ. eigenvalues --   -0.98706  -0.94241  -0.79876  -0.78445  -0.65873
 Alpha  occ. eigenvalues --   -0.63793  -0.53509  -0.52620  -0.51303  -0.45765
 Alpha  occ. eigenvalues --   -0.41361  -0.40927  -0.38741  -0.37198  -0.34755
 Alpha  occ. eigenvalues --   -0.31388  -0.30436  -0.26965
 Alpha virt. eigenvalues --   -0.13008  -0.12570  -0.02815   0.06591   0.07365
 Alpha virt. eigenvalues --    0.13340   0.16174   0.17176   0.22748   0.25083
 Alpha virt. eigenvalues --    0.27640   0.31323   0.35352   0.41179   0.43188

 Mulliken charges:
               1
     1  N   -0.346560
     2  C   -0.010335
     3  C    0.453674
     4  N   -0.198599
     5  N   -0.029073
     6  N   -0.046588
     7  N   -0.025851
     8  N   -0.182070
     9  H    0.253363
    10  H    0.132040
 Sum of Mulliken charges =  -0.00000

 Dipole moment (field-independent basis, Debye):
    X=              3.3646    Y=              1.9670    Z=             -0.0312  Tot=              3.8975
 Quadrupole moment (field-independent basis, Debye-Ang):
   XX=            -42.3797   YY=            -50.9120   ZZ=            -42.1785
   XY=              5.0982   XZ=             -0.5854   YZ=             -0.0190

  Exact polarizability:  87.358  -1.979  56.674   0.154   0.364  29.614
 Approx polarizability: 148.718 -10.687 117.635   1.826   0.907  50.605

                      1                      2                      3
                      A                      A                      A
 Frequencies --     52.6710               120.2319               197.9212
 Red. masses --      9.5662                 3.6718                12.0460
 Frc consts  --      0.0156                 0.0313                 0.2780
 IR Inten    --      0.4000                19.9901                 1.2423

                      4                      5                      6
                      A                      A                      A
 Frequencies --    220.6899               414.1635               483.8233
 Red. masses --      6.2461                 3.1714                 7.3127
 Frc consts  --      0.1792                 0.3205                 1.0086
 IR Inten    --      5.5268                 0.8980                 0.2894

                      7                      8                      9
                      A                      A                      A
 Frequencies --    666.6637               691.9756               700.9135
 Red. masses --      5.3721                13.7366                11.1041
 Frc consts  --      1.4067                 3.8754                 3.2141
 IR Inten    --     35.7314                 8.4009                 9.3491

                     10                     11                     12
                      A                      A                      A
 Frequencies --    801.0914               874.1257               922.5156
 Red. masses --      2.4530                 7.1468                 4.1582
 Frc consts  --      0.9275                 3.2174                 2.0850
 IR Inten    --     33.9275                 5.3865                32.9079

                     13                     14                     15
                      A                      A                      A
 Frequencies --   1057.1442              1131.2941              1135.7727
 Red. masses --     11.2673                13.5372                 1.2288
 Frc consts  --      7.4189                10.2078                 0.9339
 IR Inten    --      1.4623                 1.4004                 7.1797

                     16                     17                     18
                      A                      A                      A
 Frequencies --   1187.4549              1237.0903              1327.2308
 Red. masses --      1.3572                 5.7141                 3.9861
 Frc consts  --      1.1275                 5.1523                 4.1371
 IR Inten    --     49.3658                 6.9750                 0.8471

                     19                     20                     21
                      A                      A                      A
 Frequencies --   1405.3417              1466.7563              1488.2813
 Red. masses --      1.9146                 8.2306                 8.0288
 Frc consts  --      2.2279                10.4327                10.4779
 IR Inten    --     19.4254               109.0603                 8.5162

                     22                     23                     24
                      A                      A                      A
 Frequencies --   1717.8524              3071.2741              3463.2058
 Red. masses --      6.8082                 1.0894                 1.0763
 Frc consts  --     11.8373                 6.0547                 7.6054
 IR Inten    --      8.4238                18.7526                 5.0081

 - Thermochemistry -
 -------------------
 Temperature   298.150 Kelvin.  Pressure   1.00000 Atm.
 Atom     1 has atomic number  7 and mass  14.00307

 Molecular mass:   110.03409 amu.
 Principal axes and moments of inertia in atomic units:
                           1         2         3
     Eigenvalues --   301.759181057.130741352.85515
           X            0.99990   0.01431  -0.00137
           Y           -0.01431   0.99990   0.00064
           Z            0.00138  -0.00062   1.00000
 This molecule is an asymmetric top.
 Rotational symmetry number  1.
 Rotational temperatures (Kelvin)      0.28703     0.08193     0.06402
 Rotational constants (GHZ):           5.98073     1.70721     1.33402
 Zero-point vibrational energy     154530.5 (Joules/Mol)
                                   36.93368 (Kcal/Mol)
 Warning -- explicit consideration of   6 degrees of freedom as
           vibrations may cause significant error
 Vibrational temperatures:     75.78   172.99   284.76   317.52   595.89
          (Kelvin)            696.11   959.18   995.60  1008.46  1152.59
                             1257.67  1327.29  1520.99  1627.68  1634.12
                             1708.48  1779.90  1909.59  2021.97  2110.34
                             2141.30  2471.61  4418.88  4982.78

 Zero-point correction=                           0.058858 (Hartree/Particle)
 Thermal correction to Energy=                    0.065519
 Thermal correction to Enthalpy=                  0.066463
 Thermal correction to Gibbs Free Energy=         0.027083
 Sum of electronic and zero-point Energies=           -405.709090
 Sum of electronic and thermal Energies=              -405.702429
 Sum of electronic and thermal Enthalpies=            -405.701485
 Sum of electronic and thermal Free Energies=         -405.740865

                     E (Thermal)             CV                S
                      KCal/Mol        Cal/Mol-Kelvin    Cal/Mol-Kelvin
 Total                   41.114             22.125             82.883
 Electronic               0.000              0.000              0.000
 Translational            0.889              2.981             40.003
 Rotational               0.889              2.981             27.559
 Vibrational             39.336             16.163             15.321
 Vibration     1          0.596              1.977              4.714
 Vibration     2          0.609              1.932              3.097
 Vibration     3          0.637              1.843              2.152
 Vibration     4          0.647              1.810              1.953
 Vibration     5          0.778              1.439              0.912
 Vibration     6          0.840              1.286              0.700

                           ! Non-Optimized Parameters !
 Normal termination of Gaussian 16 at Thu Aug  4 10:26:28 2022.
