 Gaussian 16, Revision A.03,
 Gaussian 16:  ES64L-G16RevA.03 25-Dec-2016

 -----------------------------
 # opt freq b3lyp/6-31g(2df,p)
 -----------------------------

 -------------------
 Title Card Required
 -------------------
 Symbolic Z-matrix:
 Charge =  0 Multiplicity = 1

 SCF Done:  E(RB3LYP) =  -364.873989394     A.U. after   13 cycles
 SCF Done:  E(RB3LYP) =  -364.905490943     A.U. after   12 cycles
 SCF Done:  E(RB3LYP) =  -364.925010209     A.U. after   13 cycles
 SCF Done:  E(RB3LYP) =  -364.929454309     A.U. after   13 cycles
 SCF Done:  E(RB3LYP) =  -364.930569957     A.U. after   12 cycles
 SCF Done:  E(RB3LYP) =  -364.930789958     A.U. after   12 cycles
 SCF Done:  E(RB3LYP) =  -364.930865134     A.U. after   12 cycles
 SCF Done:  E(RB3LYP) =  -364.930911223     A.U. after   11 cycles
 SCF Done:  E(RB3LYP) =  -364.930921853     A.U. after   10 cycles
 SCF Done:  E(RB3LYP) =  -364.930925406     A.U. after    9 cycles
 SCF Done:  E(RB3LYP) =  -364.930925750     A.U. after    8 cycles
 Optimization completed.
    -- Stationary point found.
 Normal termination of Gaussian 16 at Thu Aug  4 13:56:35 2022.

 ----------------------------------------------------------------------
 #N Geom=AllCheck Guess=TCheck SCRF=Check GenChk RB3LYP/6-31G(2df,p) Fr
 eq
 ----------------------------------------------------------------------

 Structure from the checkpoint file:  "NdCC1dCC2CC3C1C23.chk"
 -------------------
 Title Card Required
 -------------------
 Charge =  0 Multiplicity = 1

                         Standard orientation:
 ---------------------------------------------------------------------
 Center     Atomic      Atomic             Coordinates (Angstroms)
 Number     Number       Type             X           Y           Z
 ---------------------------------------------------------------------
      1          7           0       -3.122292   -0.363987    0.158785
      2          6           0       -2.175263    0.492867    0.146025
      3          6           0       -0.789218    0.134160   -0.149500
      4          6           0       -0.287225   -1.096740   -0.365810
      5          6           0        1.211252   -1.011950   -0.470244
      6          6           0        1.745401   -0.625488    0.973748
      7          6           0        1.630516    0.839099    0.577245
      8          6           0        0.329631    1.125671   -0.217822
      9          6           0        1.507405    0.472111   -0.883289
     10          1           0       -4.011139    0.088774    0.377070
     11          1           0       -2.337030    1.562210    0.348075
     12          1           0       -0.850870   -2.018944   -0.306385
     13          1           0        1.722317   -1.831534   -0.971733
     14          1           0        2.795898   -0.909328    1.074103
     15          1           0        1.176681   -0.996936    1.832539
     16          1           0        2.165365    1.664369    1.031928
     17          1           0        0.130152    2.176349   -0.398938
     18          1           0        2.029667    0.834564   -1.760268
 ---------------------------------------------------------------------

 SCF Done:  E(RB3LYP) =  -364.930925750     A.U. after    1 cycles

 The electronic state is 1-A.
 Alpha  occ. eigenvalues --  -14.30679 -10.22405 -10.19766 -10.19626 -10.19542
 Alpha  occ. eigenvalues --  -10.19313 -10.18884 -10.18210 -10.18074  -0.91994
 Alpha  occ. eigenvalues --   -0.88984  -0.76907  -0.73829  -0.66591  -0.61037
 Alpha  occ. eigenvalues --   -0.58013  -0.54477  -0.52693  -0.49265  -0.48662
 Alpha  occ. eigenvalues --   -0.45227  -0.42041  -0.40897  -0.38411  -0.36785
 Alpha  occ. eigenvalues --   -0.35432  -0.33300  -0.31860  -0.29116  -0.26818
 Alpha  occ. eigenvalues --   -0.25535  -0.21943
 Alpha virt. eigenvalues --   -0.03969   0.07456   0.09462   0.10246   0.12360
 Alpha virt. eigenvalues --    0.13311   0.13867   0.15202   0.15892   0.16451
 Alpha virt. eigenvalues --    0.16973   0.18497   0.19277   0.20540   0.21625

 Mulliken charges:
               1
     1  N   -0.401824
     2  C   -0.081810
     3  C    0.338549
     4  C   -0.179777
     5  C   -0.100466
     6  C   -0.228547
     7  C   -0.068063
     8  C   -0.158580
     9  C   -0.072546
    10  H    0.223323
    11  H    0.073155
    12  H    0.121923
    13  H    0.073909
    14  H    0.106923
    15  H    0.097382
    16  H    0.086987
    17  H    0.082125
    18  H    0.087334
 Sum of Mulliken charges =  -0.00000

 Dipole moment (field-independent basis, Debye):
    X=              1.4122    Y=              1.5095    Z=              0.1407  Tot=              2.0719
 Quadrupole moment (field-independent basis, Debye-Ang):
   XX=            -51.3618   YY=            -50.3300   ZZ=            -53.4497
   XY=             -5.0985   XZ=             -1.6143   YZ=              0.2710

  Exact polarizability: 111.418  -2.735  82.219  -2.192   1.907  60.906
 Approx polarizability: 158.897  -6.562 137.064  -5.114   6.832  98.020

                      1                      2                      3
                      A                      A                      A
 Frequencies --     82.4255               177.5486               203.6916
 Red. masses --      4.0860                 2.3419                 3.8761
 Frc consts  --      0.0164                 0.0435                 0.0948
 IR Inten    --      7.2760                16.9537                 2.9514

                      4                      5                      6
                      A                      A                      A
 Frequencies --    371.3131               406.5894               454.5424
 Red. masses --      2.3735                 3.7444                 3.4421
 Frc consts  --      0.1928                 0.3647                 0.4190
 IR Inten    --      2.4044                 1.3866                 6.5398

                      7                      8                      9
                      A                      A                      A
 Frequencies --    562.4909               684.2973               696.0934
 Red. masses --      2.7426                 3.4907                 4.6492
 Frc consts  --      0.5113                 0.9630                 1.3273
 IR Inten    --     13.8388                57.9541                 0.0461

                     10                     11                     12
                      A                      A                      A
 Frequencies --    743.8620               774.8798               796.8200
 Red. masses --      3.2508                 1.8965                 1.5443
 Frc consts  --      1.0598                 0.6709                 0.5777
 IR Inten    --     12.3767                 5.5118                 2.2136

                     13                     14                     15
                      A                      A                      A
 Frequencies --    813.5862               846.8351               876.4067
 Red. masses --      1.7205                 2.5113                 1.8462
 Frc consts  --      0.6710                 1.0611                 0.8355
 IR Inten    --      2.9972                10.6484                 2.2571

                     16                     17                     18
                      A                      A                      A
 Frequencies --    905.7965               922.9298               948.3890
 Red. masses --      1.7986                 2.8855                 1.8160
 Frc consts  --      0.8695                 1.4481                 0.9624
 IR Inten    --     23.1715                16.0696                 3.8621

                     19                     20                     21
                      A                      A                      A
 Frequencies --    978.2609              1007.6743              1021.5614
 Red. masses --      1.8212                 2.3433                 1.9311
 Frc consts  --      1.0269                 1.4019                 1.1873
 IR Inten    --      3.0500                 5.1082                 1.6852

                     22                     23                     24
                      A                      A                      A
 Frequencies --   1046.6790              1057.4190              1092.3364
 Red. masses --      1.4397                 1.2868                 1.6302
 Frc consts  --      0.9293                 0.8477                 1.1460
 IR Inten    --      0.7429                 0.8590                 1.1354

                     25                     26                     27
                      A                      A                      A
 Frequencies --   1113.5432              1132.8140              1159.9873
 Red. masses --      1.2736                 1.5088                 1.7152
 Frc consts  --      0.9304                 1.1407                 1.3598
 IR Inten    --      6.2538                 4.1933                13.1699

                     28                     29                     30
                      A                      A                      A
 Frequencies --   1193.2792              1208.7436              1227.5828
 Red. masses --      1.5737                 1.2779                 1.4151
 Frc consts  --      1.3202                 1.1001                 1.2564
 IR Inten    --      6.0728                23.3832                 5.7160

                     31                     32                     33
                      A                      A                      A
 Frequencies --   1259.5539              1287.8157              1310.7157
 Red. masses --      1.5033                 1.4077                 1.8470
 Frc consts  --      1.4052                 1.3756                 1.8695
 IR Inten    --      9.3384                16.8435                 9.4805

                     34                     35                     36
                      A                      A                      A
 Frequencies --   1337.0436              1383.5283              1434.6915
 Red. masses --      2.1210                 2.6080                 1.6522
 Frc consts  --      2.2340                 2.9412                 2.0036
 IR Inten    --     10.5715                 0.8567                31.1485

                     37                     38                     39
                      A                      A                      A
 Frequencies --   1487.8154              1645.8770              1695.3241
 Red. masses --      1.1107                 7.1818                 5.8445
 Frc consts  --      1.4486                11.4624                 9.8970
 IR Inten    --      0.0564                76.6048                57.0411

                     40                     41                     42
                      A                      A                      A
 Frequencies --   3000.2396              3042.7217              3104.5121
 Red. masses --      1.0851                 1.0586                 1.1058
 Frc consts  --      5.7549                 5.7743                 6.2796
 IR Inten    --     66.8493                48.5412                18.0635

                     43                     44                     45
                      A                      A                      A
 Frequencies --   3129.1399              3169.9443              3176.5823
 Red. masses --      1.0897                 1.0894                 1.0886
 Frc consts  --      6.2864                 6.4499                 6.4719
 IR Inten    --     37.6459                 8.1142                23.5497

                     46                     47                     48
                      A                      A                      A
 Frequencies --   3190.7841              3222.3845              3460.4323
 Red. masses --      1.0991                 1.0944                 1.0757
 Frc consts  --      6.5931                 6.6957                 7.5891
 IR Inten    --     26.3655                 1.4424                 0.1216

 - Thermochemistry -
 -------------------
 Temperature   298.150 Kelvin.  Pressure   1.00000 Atm.
 Atom     1 has atomic number  7 and mass  14.00307

 Molecular mass:   119.07350 amu.
 Principal axes and moments of inertia in atomic units:
                           1         2         3
     Eigenvalues --   440.639221430.651471581.01139
           X            0.99992  -0.01277   0.00030
           Y            0.01277   0.99986  -0.01043
           Z           -0.00017   0.01043   0.99995
 This molecule is an asymmetric top.
 Rotational symmetry number  1.
 Warning -- assumption of classical behavior for rotation
           may cause significant error
 Rotational temperatures (Kelvin)      0.19656     0.06054     0.05478
 Rotational constants (GHZ):           4.09573     1.26148     1.14151
 Zero-point vibrational energy     393855.4 (Joules/Mol)
                                   94.13371 (Kcal/Mol)
 Warning -- explicit consideration of   7 degrees of freedom as
           vibrations may cause significant error
 Vibrational temperatures:    118.59   255.45   293.07   534.24   584.99
          (Kelvin)            653.99   809.30   984.55  1001.52  1070.25
                             1114.88  1146.45  1170.57  1218.41  1260.95
                             1303.24  1327.89  1364.52  1407.50  1449.82
                             1469.80  1505.94  1521.39  1571.63  1602.14
                             1629.87  1668.96  1716.86  1739.11  1766.22
                             1812.22  1852.88  1885.83  1923.71  1990.59
                             2064.20  2140.63  2368.05  2439.19  4316.68
                             4377.80  4466.70  4502.13  4560.84  4570.39
                             4590.83  4636.29  4978.79

 Zero-point correction=                           0.150012 (Hartree/Particle)
 Thermal correction to Energy=                    0.157068
 Thermal correction to Enthalpy=                  0.158013
 Thermal correction to Gibbs Free Energy=         0.118383
 Sum of electronic and zero-point Energies=           -364.780914
 Sum of electronic and thermal Energies=              -364.773857
 Sum of electronic and thermal Enthalpies=            -364.772913
 Sum of electronic and thermal Free Energies=         -364.812543

                     E (Thermal)             CV                S
                      KCal/Mol        Cal/Mol-Kelvin    Cal/Mol-Kelvin
 Total                   98.562             28.381             83.408
 Electronic               0.000              0.000              0.000
 Translational            0.889              2.981             40.238
 Rotational               0.889              2.981             28.390
 Vibrational             96.784             22.419             14.779
 Vibration     1          0.600              1.961              3.832
 Vibration     2          0.628              1.870              2.354
 Vibration     3          0.639              1.835              2.099
 Vibration     4          0.743              1.531              1.074
 Vibration     5          0.771              1.456              0.939
 Vibration     6          0.813              1.351              0.782
 Vibration     7          0.918              1.112              0.519

 Optimization completed.
    -- Stationary point found.
 Normal termination of Gaussian 16 at Thu Aug  4 14:34:12 2022.
