 Gaussian 16, Revision A.03,
 Gaussian 16:  ES64L-G16RevA.03 25-Dec-2016

 -----------------------------
 # opt freq b3lyp/6-31g(2df,p)
 -----------------------------

 -------------------
 Title Card Required
 -------------------
 Symbolic Z-matrix:
 Charge =  0 Multiplicity = 1

 SCF Done:  E(RB3LYP) =  -362.797927685     A.U. after   14 cycles
 SCF Done:  E(RB3LYP) =  -362.801762345     A.U. after   12 cycles
 SCF Done:  E(RB3LYP) =  -362.802232084     A.U. after   12 cycles
 SCF Done:  E(RB3LYP) =  -362.802616902     A.U. after   12 cycles
 SCF Done:  E(RB3LYP) =  -362.803449843     A.U. after   14 cycles
 SCF Done:  E(RB3LYP) =  -362.804292713     A.U. after   14 cycles
 SCF Done:  E(RB3LYP) =  -362.805241609     A.U. after   14 cycles
 SCF Done:  E(RB3LYP) =  -362.805354197     A.U. after   12 cycles
 SCF Done:  E(RB3LYP) =  -362.805393947     A.U. after   10 cycles
 SCF Done:  E(RB3LYP) =  -362.805403130     A.U. after    8 cycles
 SCF Done:  E(RB3LYP) =  -362.805408158     A.U. after   10 cycles
 SCF Done:  E(RB3LYP) =  -362.805417996     A.U. after   11 cycles
 SCF Done:  E(RB3LYP) =  -362.805422347     A.U. after   10 cycles
 SCF Done:  E(RB3LYP) =  -362.805428127     A.U. after   10 cycles
 SCF Done:  E(RB3LYP) =  -362.805428888     A.U. after    9 cycles
 SCF Done:  E(RB3LYP) =  -362.805428915     A.U. after    7 cycles
 Optimization completed.
    -- Stationary point found.
 Normal termination of Gaussian 16 at Sun Jul  3 16:07:17 2022.

 ----------------------------------------------------------------------
 #N Geom=AllCheck Guess=TCheck SCRF=Check GenChk RB3LYP/6-31G(2df,p) Fr
 eq
 ----------------------------------------------------------------------

 Structure from the checkpoint file:  "NdCCc1ccco1.chk"
 -------------------
 Title Card Required
 -------------------
 Charge =  0 Multiplicity = 1

                         Standard orientation:
 ---------------------------------------------------------------------
 Center     Atomic      Atomic             Coordinates (Angstroms)
 Number     Number       Type             X           Y           Z
 ---------------------------------------------------------------------
      1          7           0       -3.159811    0.451576    0.128520
      2          6           0       -2.150259   -0.060508   -0.444157
      3          6           0       -1.100459   -0.808862    0.339519
      4          6           0        0.255984   -0.203176    0.169907
      5          6           0        0.720330    1.076995    0.199157
      6          6           0        2.133915    1.004142   -0.024814
      7          6           0        2.421223   -0.313737   -0.176244
      8          8           0        1.290646   -1.062307   -0.064546
      9          1           0       -3.763656    0.917126   -0.552886
     10          1           0       -1.955078    0.007396   -1.524117
     11          1           0       -1.053280   -1.844863   -0.017997
     12          1           0       -1.409796   -0.833091    1.390046
     13          1           0        0.127469    1.962164    0.369003
     14          1           0        2.834341    1.823353   -0.067190
     15          1           0        3.329107   -0.863781   -0.360331
 ---------------------------------------------------------------------

 SCF Done:  E(RB3LYP) =  -362.805428915     A.U. after    1 cycles

 The electronic state is 1-A.
 Alpha  occ. eigenvalues --  -19.20277 -14.31927 -10.23518 -10.23478 -10.22691
 Alpha  occ. eigenvalues --  -10.19987 -10.18113 -10.17865  -1.10551  -0.90507
 Alpha  occ. eigenvalues --   -0.79725  -0.78353  -0.70196  -0.60148  -0.57644
 Alpha  occ. eigenvalues --   -0.54840  -0.52668  -0.50210  -0.45199  -0.44777
 Alpha  occ. eigenvalues --   -0.40381  -0.40082  -0.39492  -0.38689  -0.36682
 Alpha  occ. eigenvalues --   -0.31527  -0.27547  -0.26578  -0.22023
 Alpha virt. eigenvalues --   -0.00558   0.02039   0.07126   0.09590   0.12330
 Alpha virt. eigenvalues --    0.13112   0.14007   0.15811   0.16492   0.17126
 Alpha virt. eigenvalues --    0.18990   0.21625   0.24469   0.26818   0.29161

 Mulliken charges:
               1
     1  N   -0.376503
     2  C    0.045209
     3  C   -0.336272
     4  C    0.340288
     5  C   -0.256878
     6  C   -0.169219
     7  C   -0.022388
     8  O   -0.174687
     9  H    0.226237
    10  H    0.094713
    11  H    0.132176
    12  H    0.136838
    13  H    0.116246
    14  H    0.111282
    15  H    0.132959
 Sum of Mulliken charges =  -0.00000

 Dipole moment (field-independent basis, Debye):
    X=              0.7841    Y=              0.1876    Z=             -1.4890  Tot=              1.6932
 Quadrupole moment (field-independent basis, Debye-Ang):
   XX=            -44.7586   YY=            -44.1857   ZZ=            -47.2450
   XY=              0.3088   XZ=              4.5201   YZ=             -0.7256

  Exact polarizability:  97.953  -3.830  65.856  -4.888   0.934  45.123
 Approx polarizability: 134.056  -8.427 114.525 -12.447   4.777  71.186

                      1                      2                      3
                      A                      A                      A
 Frequencies --     27.2665                71.1388               165.0276
 Red. masses --      3.2210                 4.7834                 2.8404
 Frc consts  --      0.0014                 0.0143                 0.0456
 IR Inten    --      1.8078                 3.8757                 7.0367

                      4                      5                      6
                      A                      A                      A
 Frequencies --    292.8920               369.5575               452.8316
 Red. masses --      3.2574                 4.4349                 2.4473
 Frc consts  --      0.1646                 0.3569                 0.2957
 IR Inten    --      5.2193                 7.7657                19.5685

                      7                      8                      9
                      A                      A                      A
 Frequencies --    615.5672               637.3653               664.6051
 Red. masses --      3.5127                 2.2698                 3.0674
 Frc consts  --      0.7842                 0.5433                 0.7983
 IR Inten    --      6.2739                10.3075                 5.5029

                     10                     11                     12
                      A                      A                      A
 Frequencies --    744.8041               805.8083               816.8521
 Red. masses --      1.3181                 1.5464                 1.5811
 Frc consts  --      0.4308                 0.5916                 0.6216
 IR Inten    --     35.4931                21.7417                24.1691

                     13                     14                     15
                      A                      A                      A
 Frequencies --    855.1838               901.2663               938.2271
 Red. masses --      1.2780                 5.5717                 2.4433
 Frc consts  --      0.5507                 2.6665                 1.2672
 IR Inten    --      0.8957                12.2522                29.3559

                     16                     17                     18
                      A                      A                      A
 Frequencies --    968.2977              1013.0047              1034.7840
 Red. masses --      2.6400                 2.1418                 1.3716
 Frc consts  --      1.4584                 1.2950                 0.8653
 IR Inten    --      4.0463                28.6232                17.0913

                     19                     20                     21
                      A                      A                      A
 Frequencies --   1106.8802              1118.8821              1154.1286
 Red. masses --      2.9489                 1.2147                 1.4278
 Frc consts  --      2.1287                 0.8960                 1.1205
 IR Inten    --      3.8830                 9.7618                 6.9823

                     22                     23                     24
                      A                      A                      A
 Frequencies --   1179.5535              1230.6281              1252.6463
 Red. masses --      1.6009                 2.4083                 1.5019
 Frc consts  --      1.3123                 2.1489                 1.3885
 IR Inten    --      5.0230                33.0508                18.5118

                     25                     26                     27
                      A                      A                      A
 Frequencies --   1285.2751              1324.2521              1416.2246
 Red. masses --      1.2514                 1.7898                 1.6041
 Frc consts  --      1.2179                 1.8493                 1.8956
 IR Inten    --      6.2402                 9.3133                25.1257

                     28                     29                     30
                      A                      A                      A
 Frequencies --   1425.9041              1460.3460              1531.3575
 Red. masses --      2.2835                 1.1154                 4.9199
 Frc consts  --      2.7355                 1.4015                 6.7977
 IR Inten    --      3.8083                 5.2814                15.1452

                     31                     32                     33
                      A                      A                      A
 Frequencies --   1629.1213              1730.1630              3012.8175
 Red. masses --      5.9877                 6.6871                 1.0867
 Frc consts  --      9.3630                11.7940                 5.8119
 IR Inten    --      5.4675                81.9062                45.1671

                     34                     35                     36
                      A                      A                      A
 Frequencies --   3034.6928              3081.8547              3251.4841
 Red. masses --      1.0582                 1.1026                 1.0898
 Frc consts  --      5.7419                 6.1701                 6.7884
 IR Inten    --      9.9099                 8.1460                 4.0372

                     37                     38                     39
                      A                      A                      A
 Frequencies --   3263.1463              3286.1553              3443.9273
 Red. masses --      1.0967                 1.1061                 1.0756
 Frc consts  --      6.8804                 7.0376                 7.5164
 IR Inten    --      0.4614                 0.8794                 0.8302

 - Thermochemistry -
 -------------------
 Temperature   298.150 Kelvin.  Pressure   1.00000 Atm.
 Atom     1 has atomic number  7 and mass  14.00307

 Molecular mass:   109.05276 amu.
 Principal axes and moments of inertia in atomic units:
                           1         2         3
     Eigenvalues --   284.033731496.617441708.52619
           X            0.99997   0.00641   0.00439
           Y           -0.00635   0.99991  -0.01218
           Z           -0.00447   0.01215   0.99992
 This molecule is an asymmetric top.
 Rotational symmetry number  1.
 Rotational temperatures (Kelvin)      0.30494     0.05787     0.05070
 Rotational constants (GHZ):           6.35397     1.20588     1.05631
 Zero-point vibrational energy     314581.5 (Joules/Mol)
                                   75.18678 (Kcal/Mol)
 Warning -- explicit consideration of   7 degrees of freedom as
           vibrations may cause significant error
 Vibrational temperatures:     39.23   102.35   237.44   421.41   531.71
          (Kelvin)            651.52   885.66   917.03   956.22  1071.61
                             1159.38  1175.27  1230.42  1296.72  1349.90
                             1393.16  1457.49  1488.82  1592.55  1609.82
                             1660.53  1697.11  1770.60  1802.28  1849.22
                             1905.30  2037.63  2051.56  2101.11  2203.28
                             2343.94  2489.32  4334.77  4366.25  4434.10
                             4678.16  4694.94  4728.04  4955.04

 Zero-point correction=                           0.119818 (Hartree/Particle)
 Thermal correction to Energy=                    0.127077
 Thermal correction to Enthalpy=                  0.128022
 Thermal correction to Gibbs Free Energy=         0.086716
 Sum of electronic and zero-point Energies=           -362.685611
 Sum of electronic and thermal Energies=              -362.678352
 Sum of electronic and thermal Enthalpies=            -362.677407
 Sum of electronic and thermal Free Energies=         -362.718713

                     E (Thermal)             CV                S
                      KCal/Mol        Cal/Mol-Kelvin    Cal/Mol-Kelvin
 Total                   79.742             25.942             86.935
 Electronic               0.000              0.000              0.000
 Translational            0.889              2.981             39.976
 Rotational               0.889              2.981             28.076
 Vibrational             77.965             19.980             18.883
 Vibration     1          0.593              1.984              6.019
 Vibration     2          0.598              1.968              4.122
 Vibration     3          0.623              1.885              2.491
 Vibration     4          0.688              1.687              1.457
 Vibration     5          0.742              1.535              1.082
 Vibration     6          0.811              1.355              0.787
 Vibration     7          0.975              0.999              0.424

 Optimization completed.
    -- Stationary point found.
 Normal termination of Gaussian 16 at Sun Jul  3 16:23:25 2022.
