 Gaussian 16, Revision A.03,
 Gaussian 16:  ES64L-G16RevA.03 25-Dec-2016

 -----------------------------
 # opt freq b3lyp/6-31g(2df,p)
 -----------------------------

 -------------------
 Title Card Required
 -------------------
 Symbolic Z-matrix:
 Charge =  0 Multiplicity = 1

 SCF Done:  E(RB3LYP) =  -344.137102400     A.U. after   14 cycles
 SCF Done:  E(RB3LYP) =  -344.141426536     A.U. after   12 cycles
 SCF Done:  E(RB3LYP) =  -344.142108299     A.U. after   12 cycles
 SCF Done:  E(RB3LYP) =  -344.142701777     A.U. after   13 cycles
 SCF Done:  E(RB3LYP) =  -344.142988886     A.U. after   12 cycles
 SCF Done:  E(RB3LYP) =  -344.143179700     A.U. after   13 cycles
 SCF Done:  E(RB3LYP) =  -344.143191733     A.U. after   11 cycles
 SCF Done:  E(RB3LYP) =  -344.143194875     A.U. after    8 cycles
 SCF Done:  E(RB3LYP) =  -344.143195270     A.U. after    7 cycles
 SCF Done:  E(RB3LYP) =  -344.143195837     A.U. after    8 cycles
 SCF Done:  E(RB3LYP) =  -344.143196103     A.U. after    8 cycles
 SCF Done:  E(RB3LYP) =  -344.143196153     A.U. after    7 cycles
 Optimization completed.
    -- Stationary point found.
 Normal termination of Gaussian 16 at Sun Jul  3 17:24:41 2022.

 ----------------------------------------------------------------------
 #N Geom=AllCheck Guess=TCheck SCRF=Check GenChk RB3LYP/6-31G(2df,p) Fr
 eq
 ----------------------------------------------------------------------

 Structure from the checkpoint file:  "NdCC1dCCpNpCC1.chk"
 -------------------
 Title Card Required
 -------------------
 Charge =  0 Multiplicity = 1

                         Standard orientation:
 ---------------------------------------------------------------------
 Center     Atomic      Atomic             Coordinates (Angstroms)
 Number     Number       Type             X           Y           Z
 ---------------------------------------------------------------------
      1          7           0       -2.900651   -0.822180   -0.065808
      2          6           0       -2.190975    0.207197    0.187886
      3          6           0       -0.736817    0.237953   -0.012777
      4          6           0        0.030434   -0.783449   -0.415093
      5          6           0        1.497543   -0.433687   -0.452312
      6          7           0        2.209508   -1.210023    0.573355
      7          6           0        1.481562    1.121379   -0.302185
      8          6           0        0.083841    1.485563    0.255739
      9          1           0       -3.884093   -0.640007    0.141042
     10          1           0       -2.618626    1.145294    0.572671
     11          1           0       -0.336896   -1.779551   -0.628727
     12          1           0        1.948439   -0.720015   -1.410976
     13          1           0        1.856041   -0.966700    1.495024
     14          1           0        3.196522   -0.967728    0.566466
     15          1           0        1.614875    1.584838   -1.284916
     16          1           0        2.300575    1.471237    0.332824
     17          1           0       -0.335440    2.372412   -0.233718
     18          1           0        0.103080    1.715908    1.329936
 ---------------------------------------------------------------------

 SCF Done:  E(RB3LYP) =  -344.143196153     A.U. after    1 cycles

 The electronic state is 1-A.
 Alpha  occ. eigenvalues --  -14.31268 -14.30698 -10.22762 -10.21193 -10.18805
 Alpha  occ. eigenvalues --  -10.18661 -10.18031 -10.18004  -0.89997  -0.88576
 Alpha  occ. eigenvalues --   -0.81820  -0.71605  -0.69629  -0.61263  -0.57636
 Alpha  occ. eigenvalues --   -0.51416  -0.50040  -0.48628  -0.46318  -0.44802
 Alpha  occ. eigenvalues --   -0.41125  -0.37583  -0.37358  -0.35254  -0.34826
 Alpha  occ. eigenvalues --   -0.34300  -0.32830  -0.26022  -0.23973  -0.23414
 Alpha virt. eigenvalues --   -0.04102   0.07098   0.08616   0.09811   0.12125
 Alpha virt. eigenvalues --    0.12418   0.13790   0.15106   0.16939   0.17771
 Alpha virt. eigenvalues --    0.18934   0.20159   0.20963   0.22665   0.26245

 Mulliken charges:
               1
     1  N   -0.390508
     2  C   -0.068578
     3  C    0.327134
     4  C   -0.148361
     5  C   -0.007675
     6  N   -0.512234
     7  C   -0.236672
     8  C   -0.321209
     9  H    0.225484
    10  H    0.074645
    11  H    0.122081
    12  H    0.083955
    13  H    0.220561
    14  H    0.223196
    15  H    0.104871
    16  H    0.090316
    17  H    0.106888
    18  H    0.106106
 Sum of Mulliken charges =  -0.00000

 Dipole moment (field-independent basis, Debye):
    X=              0.6402    Y=              2.6600    Z=              0.8002  Tot=              2.8506
 Quadrupole moment (field-independent basis, Debye-Ang):
   XX=            -42.5405   YY=            -52.7871   ZZ=            -47.0221
   XY=             -1.8374   XZ=             -1.3488   YZ=              0.3939

  Exact polarizability: 103.782  -1.103  74.575  -3.504   4.802  55.024
 Approx polarizability: 141.364  -4.352 116.555  -6.877  10.930  86.759

                      1                      2                      3
                      A                      A                      A
 Frequencies --     67.8069                83.6437               150.4501
 Red. masses --      2.9431                 2.6134                 2.2976
 Frc consts  --      0.0080                 0.0108                 0.0306
 IR Inten    --      5.4270                 1.3248                11.0397

                      4                      5                      6
                      A                      A                      A
 Frequencies --    201.1033               293.1641               375.3636
 Red. masses --      3.6845                 1.0949                 2.5069
 Frc consts  --      0.0878                 0.0554                 0.2081
 IR Inten    --      1.9629                46.9792                17.2107

                      7                      8                      9
                      A                      A                      A
 Frequencies --    383.0783               460.4048               487.7036
 Red. masses --      2.1750                 5.3319                 2.2384
 Frc consts  --      0.1881                 0.6659                 0.3137
 IR Inten    --     20.1715                 4.7916                11.8441

                     10                     11                     12
                      A                      A                      A
 Frequencies --    669.6247               733.4850               759.2355
 Red. masses --      3.3845                 3.3372                 1.6812
 Frc consts  --      0.8941                 1.0578                 0.5710
 IR Inten    --     30.8110                14.6744                 9.3312

                     13                     14                     15
                      A                      A                      A
 Frequencies --    800.9525               848.7857               878.6561
 Red. masses --      1.5963                 1.8801                 2.0246
 Frc consts  --      0.6034                 0.7981                 0.9209
 IR Inten    --      5.9489                65.1346                76.9739

                     16                     17                     18
                      A                      A                      A
 Frequencies --    912.7989               935.0534               963.3879
 Red. masses --      1.8433                 1.8234                 1.9677
 Frc consts  --      0.9049                 0.9393                 1.0760
 IR Inten    --      9.5507                20.2444                11.0717

                     19                     20                     21
                      A                      A                      A
 Frequencies --   1001.5819              1046.8709              1097.2394
 Red. masses --      1.9360                 2.8000                 1.6142
 Frc consts  --      1.1443                 1.8080                 1.1450
 IR Inten    --      2.1255                19.1899                 3.9495

                     22                     23                     24
                      A                      A                      A
 Frequencies --   1119.6463              1136.4181              1167.6685
 Red. masses --      1.2626                 1.4737                 1.3387
 Frc consts  --      0.9326                 1.1214                 1.0754
 IR Inten    --      5.8921                20.7184                12.7433

                     25                     26                     27
                      A                      A                      A
 Frequencies --   1207.6475              1221.9789              1240.0328
 Red. masses --      1.2768                 1.3489                 1.6995
 Frc consts  --      1.0972                 1.1867                 1.5397
 IR Inten    --      5.4613                27.2387                 3.6497

                     28                     29                     30
                      A                      A                      A
 Frequencies --   1289.4363              1289.7849              1334.5738
 Red. masses --      1.4133                 1.3373                 1.5635
 Frc consts  --      1.3845                 1.3107                 1.6407
 IR Inten    --      5.8376                10.9201                 2.3152

                     31                     32                     33
                      A                      A                      A
 Frequencies --   1348.8581              1414.3394              1434.8257
 Red. masses --      1.6484                 1.3668                 1.5806
 Frc consts  --      1.7670                 1.6109                 1.9172
 IR Inten    --      3.8822                21.3458                26.4607

                     34                     35                     36
                      A                      A                      A
 Frequencies --   1478.8296              1498.9491              1650.6403
 Red. masses --      1.0807                 1.0978                 1.1098
 Frc consts  --      1.3925                 1.4532                 1.7816
 IR Inten    --      0.8205                 1.4676                18.0234

                     37                     38                     39
                      A                      A                      A
 Frequencies --   1677.5582              1708.6249              2998.2231
 Red. masses --      6.7072                 6.0914                 1.0838
 Frc consts  --     11.1211                10.4776                 5.7400
 IR Inten    --     75.8151                16.5335                47.9430

                     40                     41                     42
                      A                      A                      A
 Frequencies --   3011.5613              3020.6513              3044.0639
 Red. masses --      1.0681                 1.0825                 1.0819
 Frc consts  --      5.7078                 5.8193                 5.9068
 IR Inten    --     54.8773                23.0522                19.6747

                     43                     44                     45
                      A                      A                      A
 Frequencies --   3055.5697              3094.0250              3220.0691
 Red. masses --      1.0749                 1.1046                 1.0937
 Frc consts  --      5.9130                 6.2303                 6.6814
 IR Inten    --     43.6823                35.0095                 1.2089

                     46                     47                     48
                      A                      A                      A
 Frequencies --   3458.7252              3475.8435              3560.4399
 Red. masses --      1.0757                 1.0484                 1.0929
 Frc consts  --      7.5821                 7.4629                 8.1627
 IR Inten    --      0.1712                 1.7596                 0.2485

 - Thermochemistry -
 -------------------
 Temperature   298.150 Kelvin.  Pressure   1.00000 Atm.
 Atom     1 has atomic number  7 and mass  14.00307

 Molecular mass:   110.08440 amu.
 Principal axes and moments of inertia in atomic units:
                           1         2         3
     Eigenvalues --   440.588461327.897781622.66517
           X            0.99999  -0.00301  -0.00322
           Y            0.00305   0.99993   0.01103
           Z            0.00319  -0.01104   0.99993
 This molecule is an asymmetric top.
 Rotational symmetry number  1.
 Warning -- assumption of classical behavior for rotation
           may cause significant error
 Rotational temperatures (Kelvin)      0.19659     0.06523     0.05338
 Rotational constants (GHZ):           4.09621     1.35910     1.11221
 Zero-point vibrational energy     408580.8 (Joules/Mol)
                                   97.65315 (Kcal/Mol)
 Warning -- explicit consideration of   9 degrees of freedom as
           vibrations may cause significant error
 Vibrational temperatures:     97.56   120.34   216.46   289.34   421.80
          (Kelvin)            540.06   551.16   662.42   701.70   963.44
                             1055.32  1092.37  1152.39  1221.21  1264.19
                             1313.31  1345.33  1386.10  1441.05  1506.21
                             1578.68  1610.92  1635.05  1680.01  1737.54
                             1758.16  1784.13  1855.21  1855.71  1920.15
                             1940.71  2034.92  2064.39  2127.71  2156.65
                             2374.90  2413.63  2458.33  4313.77  4332.96
                             4346.04  4379.73  4396.28  4451.61  4632.96
                             4976.33  5000.96  5122.68

 Zero-point correction=                           0.155620 (Hartree/Particle)
 Thermal correction to Energy=                    0.163731
 Thermal correction to Enthalpy=                  0.164675
 Thermal correction to Gibbs Free Energy=         0.122588
 Sum of electronic and zero-point Energies=           -343.987576
 Sum of electronic and thermal Energies=              -343.979465
 Sum of electronic and thermal Enthalpies=            -343.978521
 Sum of electronic and thermal Free Energies=         -344.020608

                     E (Thermal)             CV                S
                      KCal/Mol        Cal/Mol-Kelvin    Cal/Mol-Kelvin
 Total                  102.743             29.780             88.580
 Electronic               0.000              0.000              0.000
 Translational            0.889              2.981             40.004
 Rotational               0.889              2.981             28.342
 Vibrational            100.965             23.818             20.234
 Vibration     1          0.598              1.970              4.216
 Vibration     2          0.601              1.960              3.804
 Vibration     3          0.618              1.902              2.667
 Vibration     4          0.638              1.838              2.123
 Vibration     5          0.688              1.686              1.456
 Vibration     6          0.746              1.523              1.058
 Vibration     7          0.752              1.506              1.027
 Vibration     8          0.818              1.338              0.765
 Vibration     9          0.844              1.277              0.690

 Optimization completed.
    -- Stationary point found.
 Normal termination of Gaussian 16 at Sun Jul  3 17:48:32 2022.
