 Gaussian 16, Revision A.03,
 Gaussian 16:  ES64L-G16RevA.03 25-Dec-2016

 -----------------------------
 # opt freq b3lyp/6-31g(2df,p)
 -----------------------------

 -------------------
 Title Card Required
 -------------------
 Symbolic Z-matrix:
 Charge =  0 Multiplicity = 1

 SCF Done:  E(RB3LYP) =  -383.376838524     A.U. after   13 cycles
 SCF Done:  E(RB3LYP) =  -383.397400897     A.U. after   12 cycles
 SCF Done:  E(RB3LYP) =  -383.402802679     A.U. after   12 cycles
 SCF Done:  E(RB3LYP) =  -383.403359425     A.U. after   11 cycles
 SCF Done:  E(RB3LYP) =  -383.403414072     A.U. after   11 cycles
 SCF Done:  E(RB3LYP) =  -383.403504945     A.U. after   10 cycles
 SCF Done:  E(RB3LYP) =  -383.403737953     A.U. after   13 cycles
 SCF Done:  E(RB3LYP) =  -383.401992085     A.U. after   14 cycles
 SCF Done:  E(RB3LYP) =  -383.404102257     A.U. after   12 cycles
 SCF Done:  E(RB3LYP) =  -383.404656400     A.U. after   12 cycles
 SCF Done:  E(RB3LYP) =  -383.404801894     A.U. after    9 cycles
 SCF Done:  E(RB3LYP) =  -383.404832376     A.U. after   11 cycles
 SCF Done:  E(RB3LYP) =  -383.404847806     A.U. after   10 cycles
 SCF Done:  E(RB3LYP) =  -383.404851641     A.U. after   10 cycles
 SCF Done:  E(RB3LYP) =  -383.404852359     A.U. after    8 cycles
 SCF Done:  E(RB3LYP) =  -383.404853096     A.U. after    8 cycles
 Optimization completed.
    -- Stationary point found.
 Normal termination of Gaussian 16 at Sun Jul  3 13:25:50 2022.

 ----------------------------------------------------------------------
 #N Geom=AllCheck Guess=TCheck SCRF=Check GenChk RB3LYP/6-31G(2df,p) Fr
 eq
 ----------------------------------------------------------------------

 Structure from the checkpoint file:  "NdCC1CC2CNCC12.chk"
 -------------------
 Title Card Required
 -------------------
 Charge =  0 Multiplicity = 1

                         Standard orientation:
 ---------------------------------------------------------------------
 Center     Atomic      Atomic             Coordinates (Angstroms)
 Number     Number       Type             X           Y           Z
 ---------------------------------------------------------------------
      1          7           0       -3.124517    0.002624    0.714393
      2          6           0       -2.381519   -0.642446   -0.089450
      3          6           0       -1.123259   -0.064762   -0.648247
      4          6           0       -0.693715    1.400512   -0.281709
      5          6           0        0.765429    0.872010   -0.344419
      6          6           0        2.060825    0.926979    0.447083
      7          7           0        2.557520   -0.482096    0.241888
      8          6           0        1.445991   -1.383395   -0.226741
      9          6           0        0.231815   -0.504510    0.022926
     10          1           0       -3.921106   -0.566373    1.008339
     11          1           0       -2.590311   -1.676126   -0.407934
     12          1           0       -1.084536   -0.226782   -1.732145
     13          1           0       -1.032981    1.647556    0.726243
     14          1           0       -0.979309    2.198340   -0.969130
     15          1           0        1.037405    0.843063   -1.409387
     16          1           0        1.880540    1.156727    1.506325
     17          1           0        2.801433    1.636888    0.064040
     18          1           0        2.951106   -0.839256    1.102265
     19          1           0        1.465896   -2.326059    0.328799
     20          1           0        1.576215   -1.617060   -1.291623
     21          1           0        0.031214   -0.500943    1.103576
 ---------------------------------------------------------------------

 SCF Done:  E(RB3LYP) =  -383.404853096     A.U. after    1 cycles

 The electronic state is 1-A.
 Alpha  occ. eigenvalues --  -14.31437 -14.30632 -10.22744 -10.20509 -10.20180
 Alpha  occ. eigenvalues --  -10.19904 -10.18441 -10.18402 -10.18015  -0.91070
 Alpha  occ. eigenvalues --   -0.89730  -0.83307  -0.71933  -0.69721  -0.65503
 Alpha  occ. eigenvalues --   -0.59062  -0.56242  -0.54284  -0.50171  -0.48589
 Alpha  occ. eigenvalues --   -0.45143  -0.44978  -0.43376  -0.39860  -0.37854
 Alpha  occ. eigenvalues --   -0.37015  -0.35803  -0.34354  -0.33042  -0.31765
 Alpha  occ. eigenvalues --   -0.29921  -0.27991  -0.25451  -0.21322
 Alpha virt. eigenvalues --    0.00001   0.08299   0.08974   0.10094   0.11513
 Alpha virt. eigenvalues --    0.11877   0.14382   0.14889   0.15303   0.16524
 Alpha virt. eigenvalues --    0.18044   0.18124   0.18559   0.19830   0.20137

 Mulliken charges:
               1
     1  N   -0.380232
     2  C    0.002183
     3  C   -0.071422
     4  C   -0.304085
     5  C    0.078865
     6  C   -0.234308
     7  N   -0.304089
     8  C   -0.242138
     9  C    0.065062
    10  H    0.223547
    11  H    0.082961
    12  H    0.086324
    13  H    0.129513
    14  H    0.099607
    15  H    0.084810
    16  H    0.090665
    17  H    0.098379
    18  H    0.218303
    19  H    0.092288
    20  H    0.098910
    21  H    0.084856
 Sum of Mulliken charges =   0.00000

 Dipole moment (field-independent basis, Debye):
    X=             -0.3641    Y=             -1.4662    Z=              0.0402  Tot=              1.5112
 Quadrupole moment (field-independent basis, Debye-Ang):
   XX=            -58.4556   YY=            -53.5456   ZZ=            -53.1096
   XY=              5.0731   XZ=              4.2347   YZ=             -1.8621

  Exact polarizability: 103.640   0.269  81.393  -3.134   2.040  71.955
 Approx polarizability: 134.656  -3.763 119.723  -8.341   5.614 117.234

                      1                      2                      3
                      A                      A                      A
 Frequencies --     68.1867               136.3540               149.7101
 Red. masses --      4.5856                 2.3835                 2.5991
 Frc consts  --      0.0126                 0.0261                 0.0343
 IR Inten    --      6.3541                 2.7976                 2.8212

                      4                      5                      6
                      A                      A                      A
 Frequencies --    200.6354               290.0563               311.8479
 Red. masses --      2.4054                 2.1116                 3.5084
 Frc consts  --      0.0570                 0.1047                 0.2010
 IR Inten    --     11.6452                 0.9343                 4.5791

                      7                      8                      9
                      A                      A                      A
 Frequencies --    423.8521               454.1568               585.8784
 Red. masses --      2.6041                 2.9728                 2.8114
 Frc consts  --      0.2756                 0.3613                 0.5686
 IR Inten    --      8.0939                 2.9490                42.0761

                     10                     11                     12
                      A                      A                      A
 Frequencies --    592.9605               654.9736               695.6471
 Red. masses --      2.2449                 3.1059                 1.8491
 Frc consts  --      0.4650                 0.7850                 0.5272
 IR Inten    --      7.2417                21.1322                58.2865

                     13                     14                     15
                      A                      A                      A
 Frequencies --    780.9273               820.4752               868.3734
 Red. masses --      1.9279                 3.1300                 2.0264
 Frc consts  --      0.6927                 1.2414                 0.9003
 IR Inten    --     28.8351                 0.1472                 4.7034

                     16                     17                     18
                      A                      A                      A
 Frequencies --    893.7310               937.2872               941.3968
 Red. masses --      1.7388                 1.5305                 3.3533
 Frc consts  --      0.8183                 0.7922                 1.7509
 IR Inten    --      1.1218                 3.0556                 5.9588

                     19                     20                     21
                      A                      A                      A
 Frequencies --    986.5255              1005.6284              1035.6934
 Red. masses --      1.6420                 2.6824                 1.9123
 Frc consts  --      0.9415                 1.5983                 1.2086
 IR Inten    --      0.5377                13.5267                12.8849

                     22                     23                     24
                      A                      A                      A
 Frequencies --   1053.6127              1087.0662              1112.4900
 Red. masses --      2.4748                 1.6742                 1.8223
 Frc consts  --      1.6187                 1.1657                 1.3288
 IR Inten    --      5.5557                23.0973                 9.9074

                     25                     26                     27
                      A                      A                      A
 Frequencies --   1120.6059              1126.3630              1159.2515
 Red. masses --      1.8351                 1.7891                 1.5465
 Frc consts  --      1.3578                 1.3373                 1.2245
 IR Inten    --      3.4847                 2.5458                 3.7186

                     28                     29                     30
                      A                      A                      A
 Frequencies --   1175.7481              1186.4525              1221.4938
 Red. masses --      1.4030                 1.4664                 1.2578
 Frc consts  --      1.1427                 1.2162                 1.1057
 IR Inten    --      3.7501                 5.5116                13.8410

                     31                     32                     33
                      A                      A                      A
 Frequencies --   1227.1175              1242.8221              1269.0710
 Red. masses --      1.2096                 1.4252                 1.3101
 Frc consts  --      1.0732                 1.2970                 1.2431
 IR Inten    --      7.6536                 6.8411                 8.0302

                     34                     35                     36
                      A                      A                      A
 Frequencies --   1298.8016              1303.2028              1347.9356
 Red. masses --      1.2270                 1.2758                 1.4074
 Frc consts  --      1.2195                 1.2766                 1.5066
 IR Inten    --      1.6147                 1.1602                 5.6559

                     37                     38                     39
                      A                      A                      A
 Frequencies --   1359.5657              1402.4911              1416.2488
 Red. masses --      1.4282                 1.2510                 1.3810
 Frc consts  --      1.5554                 1.4498                 1.6320
 IR Inten    --      1.3472                15.2748                 6.9320

                     40                     41                     42
                      A                      A                      A
 Frequencies --   1430.0875              1435.6631              1496.5037
 Red. masses --      1.5096                 1.3110                 1.1299
 Frc consts  --      1.8191                 1.5920                 1.4908
 IR Inten    --      7.9412                15.0534                 2.4426

                     43                     44                     45
                      A                      A                      A
 Frequencies --   1515.9548              1523.6771              1725.5237
 Red. masses --      1.0924                 1.0951                 6.7349
 Frc consts  --      1.4792                 1.4980                11.8147
 IR Inten    --      1.2660                 1.7245                83.2066

                     46                     47                     48
                      A                      A                      A
 Frequencies --   2986.0395              2993.1469              2999.9027
 Red. masses --      1.0848                 1.0786                 1.0732
 Frc consts  --      5.6990                 5.6936                 5.6904
 IR Inten    --     57.8020                 3.6382                48.3957

                     49                     50                     51
                      A                      A                      A
 Frequencies --   3008.1221              3016.4117              3045.0504
 Red. masses --      1.0696                 1.0712                 1.0842
 Frc consts  --      5.7024                 5.7426                 5.9229
 IR Inten    --      6.0848                82.0504                37.6719

                     52                     53                     54
                      A                      A                      A
 Frequencies --   3060.2440              3072.3597              3078.8731
 Red. masses --      1.1005                 1.0998                 1.0581
 Frc consts  --      6.0724                 6.1168                 5.9094
 IR Inten    --     51.6524                54.3348                24.8522

                     55                     56                     57
                      A                      A                      A
 Frequencies --   3138.9193              3446.8074              3566.0142
 Red. masses --      1.1087                 1.0757                 1.0759
 Frc consts  --      6.4360                 7.5296                 8.0606
 IR Inten    --     22.8988                 1.7207                 1.0680

 - Thermochemistry -
 -------------------
 Temperature   298.150 Kelvin.  Pressure   1.00000 Atm.
 Atom     1 has atomic number  7 and mass  14.00307

 Molecular mass:   124.10005 amu.
 Principal axes and moments of inertia in atomic units:
                           1         2         3
     Eigenvalues --   480.607561732.692811979.63011
           X            0.99996   0.00604   0.00584
           Y           -0.00605   0.99998   0.00128
           Z           -0.00584  -0.00132   0.99998
 This molecule is an asymmetric top.
 Rotational symmetry number  1.
 Warning -- assumption of classical behavior for rotation
           may cause significant error
 Rotational temperatures (Kelvin)      0.18022     0.04999     0.04375
 Rotational constants (GHZ):           3.75512     1.04158     0.91166
 Zero-point vibrational energy     487382.2 (Joules/Mol)
                                  116.48714 (Kcal/Mol)
 Warning -- explicit consideration of  10 degrees of freedom as
           vibrations may cause significant error
 Vibrational temperatures:     98.11   196.18   215.40   288.67   417.33
          (Kelvin)            448.68   609.83   653.43   842.95   853.14
                              942.36  1000.88  1123.58  1180.48  1249.40
                             1285.88  1348.55  1354.46  1419.39  1446.87
                             1490.13  1515.91  1564.05  1600.63  1612.30
                             1620.59  1667.90  1691.64  1707.04  1757.46
                             1765.55  1788.14  1825.91  1868.69  1875.02
                             1939.38  1956.11  2017.87  2037.67  2057.58
                             2065.60  2153.14  2181.12  2192.23  2482.64
                             4296.24  4306.47  4316.19  4328.02  4339.94
                             4381.15  4403.01  4420.44  4429.81  4516.20
                             4959.19  5130.70

 Zero-point correction=                           0.185634 (Hartree/Particle)
 Thermal correction to Energy=                    0.193893
 Thermal correction to Enthalpy=                  0.194838
 Thermal correction to Gibbs Free Energy=         0.152439
 Sum of electronic and zero-point Energies=           -383.219219
 Sum of electronic and thermal Energies=              -383.210960
 Sum of electronic and thermal Enthalpies=            -383.210015
 Sum of electronic and thermal Free Energies=         -383.252414

                     E (Thermal)             CV                S
                      KCal/Mol        Cal/Mol-Kelvin    Cal/Mol-Kelvin
 Total                  121.670             31.902             89.235
 Electronic               0.000              0.000              0.000
 Translational            0.889              2.981             40.362
 Rotational               0.889              2.981             28.890
 Vibrational            119.893             25.941             19.983
 Vibration     1          0.598              1.969              4.205
 Vibration     2          0.614              1.917              2.854
 Vibration     3          0.618              1.903              2.676
 Vibration     4          0.638              1.839              2.127
 Vibration     5          0.686              1.692              1.474
 Vibration     6          0.700              1.651              1.353
 Vibration     7          0.786              1.418              0.879
 Vibration     8          0.813              1.352              0.783
 Vibration     9          0.943              1.062              0.475
 Vibration    10          0.951              1.047              0.462

                           ! Non-Optimized Parameters !
 Normal termination of Gaussian 16 at Sun Jul  3 13:57:43 2022.
