 Gaussian 16, Revision A.03,
 Gaussian 16:  ES64L-G16RevA.03 25-Dec-2016

 -----------------------------
 # opt freq b3lyp/6-31g(2df,p)
 -----------------------------

 -------------------
 Title Card Required
 -------------------
 Symbolic Z-matrix:
 Charge =  0 Multiplicity = 1

 SCF Done:  E(RB3LYP) =  -400.883718725     A.U. after   14 cycles
 SCF Done:  E(RB3LYP) =  -400.890274790     A.U. after   14 cycles
 SCF Done:  E(RB3LYP) =  -400.890687940     A.U. after   14 cycles
 SCF Done:  E(RB3LYP) =  -400.892953467     A.U. after   14 cycles
 SCF Done:  E(RB3LYP) =  -400.893714703     A.U. after   13 cycles
 SCF Done:  E(RB3LYP) =  -400.894118679     A.U. after   12 cycles
 SCF Done:  E(RB3LYP) =  -400.894211226     A.U. after   12 cycles
 SCF Done:  E(RB3LYP) =  -400.894350035     A.U. after   14 cycles
 SCF Done:  E(RB3LYP) =  -400.894443147     A.U. after   12 cycles
 SCF Done:  E(RB3LYP) =  -400.894531648     A.U. after   12 cycles
 SCF Done:  E(RB3LYP) =  -400.894538772     A.U. after   13 cycles
 SCF Done:  E(RB3LYP) =  -400.894570157     A.U. after   11 cycles
 SCF Done:  E(RB3LYP) =  -400.894543837     A.U. after   13 cycles
 SCF Done:  E(RB3LYP) =  -400.894585248     A.U. after   13 cycles
 SCF Done:  E(RB3LYP) =  -400.894585488     A.U. after    9 cycles
 SCF Done:  E(RB3LYP) =  -400.894585638     A.U. after    8 cycles
 Optimization completed.
    -- Stationary point found.
 Normal termination of Gaussian 16 at Sun Jul  3 15:27:31 2022.

 ----------------------------------------------------------------------
 #N Geom=AllCheck Guess=TCheck SCRF=Check GenChk RB3LYP/6-31G(2df,p) Fr
 eq
 ----------------------------------------------------------------------

 Structure from the checkpoint file:  "NdCC1dCCdCC1CdO.chk"
 -------------------
 Title Card Required
 -------------------
 Charge =  0 Multiplicity = 1

                         Standard orientation:
 ---------------------------------------------------------------------
 Center     Atomic      Atomic             Coordinates (Angstroms)
 Number     Number       Type             X           Y           Z
 ---------------------------------------------------------------------
      1          7           0       -2.446077   -0.702743    0.221373
      2          6           0       -1.431528   -1.438333   -0.031976
      3          6           0       -0.082488   -0.916624    0.049002
      4          6           0        1.063087   -1.560542   -0.293097
      5          6           0        2.203736   -0.677348   -0.090704
      6          6           0        1.765593    0.507961    0.383214
      7          6           0        0.259914    0.485932    0.484800
      8          6           0       -0.292983    1.550263   -0.479032
      9          8           0       -0.663155    2.638200   -0.136094
     10          1           0       -3.315679   -1.225459    0.109627
     11          1           0       -1.502561   -2.494211   -0.330024
     12          1           0        1.127924   -2.577723   -0.661777
     13          1           0        3.233420   -0.951184   -0.282042
     14          1           0        2.359572    1.376621    0.632557
     15          1           0       -0.110674    0.739170    1.482262
     16          1           0       -0.276217    1.238526   -1.544711
 ---------------------------------------------------------------------

 SCF Done:  E(RB3LYP) =  -400.894585638     A.U. after    1 cycles

 The electronic state is 1-A.
 Alpha  occ. eigenvalues --  -19.13840 -14.31930 -10.27540 -10.23632 -10.20948
 Alpha  occ. eigenvalues --  -10.20569 -10.20520 -10.20388 -10.20151  -1.04739
 Alpha  occ. eigenvalues --   -0.90951  -0.87465  -0.74172  -0.73966  -0.63484
 Alpha  occ. eigenvalues --   -0.59618  -0.56061  -0.54949  -0.50379  -0.49118
 Alpha  occ. eigenvalues --   -0.44996  -0.44762  -0.41553  -0.40484  -0.38887
 Alpha  occ. eigenvalues --   -0.38084  -0.35976  -0.35039  -0.32134  -0.26898
 Alpha  occ. eigenvalues --   -0.25021  -0.23288
 Alpha virt. eigenvalues --   -0.06678  -0.01873   0.02495   0.08666   0.09152
 Alpha virt. eigenvalues --    0.11053   0.13254   0.14046   0.15561   0.16393
 Alpha virt. eigenvalues --    0.17306   0.19755   0.20394   0.24995   0.26949

 Mulliken charges:
               1
     1  N   -0.415802
     2  C   -0.056672
     3  C    0.282922
     4  C   -0.197128
     5  C   -0.085970
     6  C   -0.113132
     7  C   -0.228783
     8  C    0.173766
     9  O   -0.244954
    10  H    0.229367
    11  H    0.082209
    12  H    0.112735
    13  H    0.113490
    14  H    0.125867
    15  H    0.132224
    16  H    0.089861
 Sum of Mulliken charges =  -0.00000

 Dipole moment (field-independent basis, Debye):
    X=              1.9060    Y=             -3.6335    Z=             -0.7205  Tot=              4.1659
 Quadrupole moment (field-independent basis, Debye-Ang):
   XX=            -47.5704   YY=            -54.3036   ZZ=            -51.5158
   XY=              5.7551   XZ=              0.8533   YZ=              1.5069

  Exact polarizability: 111.437  -2.944  90.958  -2.807   8.765  49.112
 Approx polarizability: 189.399 -19.941 150.848 -10.398  20.803  80.616

                      1                      2                      3
                      A                      A                      A
 Frequencies --     56.6356                83.2618               144.3995
 Red. masses --      3.4877                 7.6402                 4.3444
 Frc consts  --      0.0066                 0.0312                 0.0534
 IR Inten    --      4.5384                 1.3323                 2.4535

                      4                      5                      6
                      A                      A                      A
 Frequencies --    173.6162               252.8717               318.8957
 Red. masses --      3.5179                 2.4446                 2.6191
 Frc consts  --      0.0625                 0.0921                 0.1569
 IR Inten    --     11.3334                 9.4259                 6.8782

                      7                      8                      9
                      A                      A                      A
 Frequencies --    421.8248               522.9912               544.7411
 Red. masses --      7.1368                 3.6982                 3.2242
 Frc consts  --      0.7482                 0.5960                 0.5637
 IR Inten    --      1.7423                37.3557                16.9983

                     10                     11                     12
                      A                      A                      A
 Frequencies --    574.1127               684.6776               754.8526
 Red. masses --      2.9415                 3.8615                 1.2169
 Frc consts  --      0.5712                 1.0666                 0.4085
 IR Inten    --     16.7112                32.0784                60.1600

                     13                     14                     15
                      A                      A                      A
 Frequencies --    803.5938               824.0970               927.7929
 Red. masses --      1.5760                 4.7588                 1.5349
 Frc consts  --      0.5996                 1.9041                 0.7784
 IR Inten    --     11.8121                 4.0407                14.5451

                     16                     17                     18
                      A                      A                      A
 Frequencies --    933.0603               943.3524               963.5757
 Red. masses --      2.3126                 2.3183                 1.4038
 Frc consts  --      1.1862                 1.2155                 0.7680
 IR Inten    --      7.6587                 6.2829                 0.2017

                     19                     20                     21
                      A                      A                      A
 Frequencies --   1014.8552              1032.0538              1045.6671
 Red. masses --      1.9409                 2.5222                 2.0957
 Frc consts  --      1.1778                 1.5828                 1.3501
 IR Inten    --      6.3099                38.7174                30.2671

                     22                     23                     24
                      A                      A                      A
 Frequencies --   1105.5672              1120.9139              1156.8004
 Red. masses --      1.2757                 1.2210                 1.4168
 Frc consts  --      0.9187                 0.9039                 1.1171
 IR Inten    --      7.5207                 7.4238                55.5692

                     25                     26                     27
                      A                      A                      A
 Frequencies --   1186.7023              1227.1818              1250.0429
 Red. masses --      1.4357                 1.4122                 1.5100
 Frc consts  --      1.1912                 1.2531                 1.3902
 IR Inten    --      1.6763                10.1630                 6.3282

                     28                     29                     30
                      A                      A                      A
 Frequencies --   1337.7777              1395.2939              1409.9172
 Red. masses --      2.1514                 1.9713                 1.2038
 Frc consts  --      2.2686                 2.2612                 1.4099
 IR Inten    --      3.2696                 8.7834                 5.5173

                     31                     32                     33
                      A                      A                      A
 Frequencies --   1416.7590              1546.4654              1633.0739
 Red. masses --      1.8560                 6.9194                 5.7400
 Frc consts  --      2.1949                 9.7499                 9.0193
 IR Inten    --     26.5231                21.8502                 5.8177

                     34                     35                     36
                      A                      A                      A
 Frequencies --   1689.8779              1830.7703              2904.9460
 Red. masses --      5.9898                10.4928                 1.0852
 Frc consts  --     10.0780                20.7209                 5.3957
 IR Inten    --    103.4049               272.2410                77.3994

                     37                     38                     39
                      A                      A                      A
 Frequencies --   3012.7217              3086.6982              3201.5025
 Red. masses --      1.0863                 1.0833                 1.0909
 Frc consts  --      5.8092                 6.0811                 6.5875
 IR Inten    --     60.8156                 0.1936                10.0447

                     40                     41                     42
                      A                      A                      A
 Frequencies --   3216.1235              3239.7059              3469.3907
 Red. masses --      1.0903                 1.1036                 1.0758
 Frc consts  --      6.6443                 6.8243                 7.6295
 IR Inten    --      6.7403                 5.1351                 1.3623

 - Thermochemistry -
 -------------------
 Temperature   298.150 Kelvin.  Pressure   1.00000 Atm.
 Atom     1 has atomic number  7 and mass  14.00307

 Molecular mass:   121.05276 amu.
 Principal axes and moments of inertia in atomic units:
                           1         2         3
     Eigenvalues --   913.61246 977.735141783.36162
           X            0.96489   0.26266   0.00114
           Y           -0.26265   0.96482   0.01198
           Z            0.00205  -0.01186   0.99993
 This molecule is an asymmetric top.
 Rotational symmetry number  1.
 Warning -- assumption of classical behavior for rotation
           may cause significant error
 Rotational temperatures (Kelvin)      0.09480     0.08859     0.04857
 Rotational constants (GHZ):           1.97539     1.84584     1.01199
 Zero-point vibrational energy     325738.1 (Joules/Mol)
                                   77.85328 (Kcal/Mol)
 Warning -- explicit consideration of  10 degrees of freedom as
           vibrations may cause significant error
 Vibrational temperatures:     81.49   119.80   207.76   249.80   363.83
          (Kelvin)            458.82   606.91   752.47   783.76   826.02
                              985.10  1086.06  1156.19  1185.69  1334.89
                             1342.47  1357.27  1386.37  1460.15  1484.90
                             1504.48  1590.66  1612.75  1664.38  1707.40
                             1765.64  1798.53  1924.76  2007.52  2028.56
                             2038.40  2225.02  2349.63  2431.36  2634.07
                             4179.57  4334.63  4441.07  4606.25  4627.28
                             4661.21  4991.68

 Zero-point correction=                           0.124067 (Hartree/Particle)
 Thermal correction to Energy=                    0.132286
 Thermal correction to Enthalpy=                  0.133230
 Thermal correction to Gibbs Free Energy=         0.090325
 Sum of electronic and zero-point Energies=           -400.770519
 Sum of electronic and thermal Energies=              -400.762299
 Sum of electronic and thermal Enthalpies=            -400.761355
 Sum of electronic and thermal Free Energies=         -400.804261

                     E (Thermal)             CV                S
                      KCal/Mol        Cal/Mol-Kelvin    Cal/Mol-Kelvin
 Total                   83.011             29.557             90.303
 Electronic               0.000              0.000              0.000
 Translational            0.889              2.981             40.288
 Rotational               0.889              2.981             28.856
 Vibrational             81.233             23.595             21.159
 Vibration     1          0.596              1.975              4.571
 Vibration     2          0.600              1.961              3.812
 Vibration     3          0.616              1.909              2.745
 Vibration     4          0.627              1.875              2.396
 Vibration     5          0.664              1.758              1.710
 Vibration     6          0.705              1.637              1.316
 Vibration     7          0.784              1.423              0.886
 Vibration     8          0.878              1.199              0.603
 Vibration     9          0.900              1.151              0.555
 Vibration    10          0.930              1.087              0.496

 Optimization completed.
    -- Stationary point found.
 Normal termination of Gaussian 16 at Sun Jul  3 15:54:40 2022.
