 Gaussian 16, Revision A.03,
 Gaussian 16:  ES64L-G16RevA.03 25-Dec-2016

 -----------------------------
 # opt freq b3lyp/6-31g(2df,p)
 -----------------------------

 -------------------
 Title Card Required
 -------------------
 Symbolic Z-matrix:
 Charge =  0 Multiplicity = 1

 SCF Done:  E(RB3LYP) =  -361.304665530     A.U. after   21 cycles
 SCF Done:  E(RB3LYP) =  -361.363503830     A.U. after   16 cycles
 SCF Done:  E(RB3LYP) =  -361.416675794     A.U. after   16 cycles
 SCF Done:  E(RB3LYP) =  -361.418479468     A.U. after   17 cycles
 SCF Done:  E(RB3LYP) =  -361.473994617     A.U. after   14 cycles
 SCF Done:  E(RB3LYP) =  -361.478142947     A.U. after   15 cycles
 SCF Done:  E(RB3LYP) =  -361.481032509     A.U. after   14 cycles
 SCF Done:  E(RB3LYP) =  -361.479435396     A.U. after   14 cycles
 SCF Done:  E(RB3LYP) =  -361.480562618     A.U. after   14 cycles
 SCF Done:  E(RB3LYP) =  -361.481106543     A.U. after    9 cycles
 SCF Done:  E(RB3LYP) =  -361.480552233     A.U. after   14 cycles
 SCF Done:  E(RB3LYP) =  -361.481189532     A.U. after   12 cycles
 SCF Done:  E(RB3LYP) =  -361.481238626     A.U. after   10 cycles
 SCF Done:  E(RB3LYP) =  -361.481240131     A.U. after    9 cycles
 SCF Done:  E(RB3LYP) =  -361.481240499     A.U. after    8 cycles
 Optimization completed.
    -- Stationary point found.
 Normal termination of Gaussian 16 at Sun Jul  3 13:46:01 2022.

 ----------------------------------------------------------------------
 #N Geom=AllCheck Guess=TCheck SCRF=Check GenChk RB3LYP/6-31G(2df,p) Fr
 eq
 ----------------------------------------------------------------------

 Structure from the checkpoint file:  "NdCC1dCCpCdOpdC1.chk"
 -------------------
 Title Card Required
 -------------------
 Charge =  0 Multiplicity = 1

                         Standard orientation:
 ---------------------------------------------------------------------
 Center     Atomic      Atomic             Coordinates (Angstroms)
 Number     Number       Type             X           Y           Z
 ---------------------------------------------------------------------
      1          7           0        3.184741    0.744781    0.000139
      2          6           0        2.451151   -0.303354   -0.000116
      3          6           0        1.006685   -0.215015   -0.000255
      4          6           0       -0.146761   -1.261650    0.000006
      5          6           0       -1.063808   -0.275626    0.000162
      6          6           0       -2.505797   -0.226900    0.000027
      7          8           0       -3.156958    0.799710    0.000092
      8          6           0        0.090376    0.773228   -0.000400
      9          1           0        4.173612    0.490349    0.000642
     10          1           0        2.852395   -1.326084    0.000338
     11          1           0       -0.198598   -2.344067    0.000341
     12          1           0       -2.990992   -1.228099   -0.000162
     13          1           0        0.134982    1.852650    0.000586
 ---------------------------------------------------------------------

 SCF Done:  E(RB3LYP) =  -361.481240499     A.U. after    1 cycles

 The electronic state is 1-A.
 Alpha  occ. eigenvalues --  -19.13188 -14.32635 -10.26828 -10.24444 -10.24314
 Alpha  occ. eigenvalues --  -10.23011 -10.22135 -10.21957  -1.03591  -0.91839
 Alpha  occ. eigenvalues --   -0.89291  -0.73106  -0.66951  -0.65663  -0.54922
 Alpha  occ. eigenvalues --   -0.54160  -0.51342  -0.49089  -0.44792  -0.41604
 Alpha  occ. eigenvalues --   -0.41553  -0.39676  -0.37660  -0.35617  -0.32852
 Alpha  occ. eigenvalues --   -0.27572  -0.25351  -0.21558
 Alpha virt. eigenvalues --   -0.11032  -0.04876   0.04903   0.07226   0.10390
 Alpha virt. eigenvalues --    0.12109   0.12642   0.13300   0.14183   0.16857
 Alpha virt. eigenvalues --    0.22474   0.25265   0.25600   0.29269   0.34559

 Mulliken charges:
               1
     1  N   -0.391754
     2  C   -0.103563
     3  C    0.368097
     4  C   -0.306152
     5  C    0.294052
     6  C    0.032419
     7  O   -0.277464
     8  C   -0.317089
     9  H    0.232419
    10  H    0.087415
    11  H    0.146624
    12  H    0.071690
    13  H    0.163306
 Sum of Mulliken charges =  -0.00000

 Dipole moment (field-independent basis, Debye):
    X=              2.4767    Y=             -3.6152    Z=              0.0012  Tot=              4.3822
 Quadrupole moment (field-independent basis, Debye-Ang):
   XX=            -50.6435   YY=            -43.0411   ZZ=            -45.9761
   XY=              0.4617   XZ=              0.0035   YZ=              0.0005

  Exact polarizability: 128.757  -4.050  70.856   0.006   0.001  31.937
 Approx polarizability: 206.672 -30.299 130.301   0.013   0.004  52.270

                      1                      2                      3
                      A                      A                      A
 Frequencies --     90.3439               116.4390               117.7146
 Red. masses --      4.8322                 3.3364                 6.9370
 Frc consts  --      0.0232                 0.0267                 0.0566
 IR Inten    --      2.0328                 5.7458                 3.4244

                      4                      5                      6
                      A                      A                      A
 Frequencies --    232.7708               237.9586               371.1353
 Red. masses --      2.5004                 4.3555                 3.0453
 Frc consts  --      0.0798                 0.1453                 0.2471
 IR Inten    --     23.9605                17.4576                 2.7542

                      7                      8                      9
                      A                      A                      A
 Frequencies --    410.1351               500.9976               585.6055
 Red. masses --      7.5470                 1.7998                 3.9358
 Frc consts  --      0.7480                 0.2662                 0.7952
 IR Inten    --      8.9774                31.1844                19.3985

                     10                     11                     12
                      A                      A                      A
 Frequencies --    688.9000               751.2881               773.5738
 Red. masses --      5.0128                 1.4198                 2.5945
 Frc consts  --      1.4017                 0.4722                 0.9148
 IR Inten    --      1.4865                 5.0813                44.2973

                     13                     14                     15
                      A                      A                      A
 Frequencies --    815.4470               881.2722               919.6643
 Red. masses --      1.4587                 1.9203                 5.0169
 Frc consts  --      0.5715                 0.8787                 2.5000
 IR Inten    --      7.5327                33.7315                 3.7944

                     16                     17                     18
                      A                      A                      A
 Frequencies --   1015.3868              1066.9468              1104.7849
 Red. masses --      1.7528                 2.4923                 1.2583
 Frc consts  --      1.0648                 1.6716                 0.9049
 IR Inten    --      0.2580               101.9544                 5.6141

                     19                     20                     21
                      A                      A                      A
 Frequencies --   1129.1262              1191.5591              1243.4743
 Red. masses --      1.3758                 1.7286                 1.2554
 Frc consts  --      1.0335                 1.4460                 1.1437
 IR Inten    --     35.6581                 0.9754                54.3342

                     22                     23                     24
                      A                      A                      A
 Frequencies --   1303.8811              1400.7186              1421.8143
 Red. masses --      5.5910                 1.2264                 1.6172
 Frc consts  --      5.6004                 1.4177                 1.9262
 IR Inten    --     23.7245                 2.2483                31.8192

                     25                     26                     27
                      A                      A                      A
 Frequencies --   1641.7972              1659.8500              1675.9603
 Red. masses --      8.2366                 6.4689                 6.1283
 Frc consts  --     13.0809                10.5007                10.1418
 IR Inten    --      1.1798               191.5394                 7.0008

                     28                     29                     30
                      A                      A                      A
 Frequencies --   1751.6226              2883.8349              3019.7000
 Red. masses --      9.6464                 1.0818                 1.0856
 Frc consts  --     17.4381                 5.3008                 5.8325
 IR Inten    --    337.7306               117.6171                60.5767

                     31                     32                     33
                      A                      A                      A
 Frequencies --   3210.4880              3251.7554              3466.3569
 Red. masses --      1.0993                 1.1001                 1.0757
 Frc consts  --      6.6760                 6.8534                 7.6152
 IR Inten    --      4.0291                 1.3354                 2.1394

 - Thermochemistry -
 -------------------
 Temperature   298.150 Kelvin.  Pressure   1.00000 Atm.
 Atom     1 has atomic number  7 and mass  14.00307

 Molecular mass:   107.03711 amu.
 Principal axes and moments of inertia in atomic units:
                           1         2         3
     Eigenvalues --   213.972511820.109892034.08237
           X            0.99998   0.00560   0.00001
           Y           -0.00560   0.99998   0.00001
           Z           -0.00001  -0.00001   1.00000
 This molecule is an asymmetric top.
 Rotational symmetry number  1.
 Rotational temperatures (Kelvin)      0.40479     0.04759     0.04258
 Rotational constants (GHZ):           8.43445     0.99156     0.88725
 Zero-point vibrational energy     244829.5 (Joules/Mol)
                                   58.51567 (Kcal/Mol)
 Warning -- explicit consideration of   9 degrees of freedom as
           vibrations may cause significant error
 Vibrational temperatures:    129.98   167.53   169.36   334.91   342.37
          (Kelvin)            533.98   590.09   720.82   842.56   991.17
                             1080.94  1113.00  1173.25  1267.95  1323.19
                             1460.92  1535.10  1589.54  1624.56  1714.39
                             1789.08  1875.99  2015.32  2045.67  2362.18
                             2388.15  2411.33  2520.19  4149.20  4344.67
                             4619.18  4678.55  4987.31

 Zero-point correction=                           0.093251 (Hartree/Particle)
 Thermal correction to Energy=                    0.100941
 Thermal correction to Enthalpy=                  0.101885
 Thermal correction to Gibbs Free Energy=         0.060762
 Sum of electronic and zero-point Energies=           -361.387990
 Sum of electronic and thermal Energies=              -361.380300
 Sum of electronic and thermal Enthalpies=            -361.379356
 Sum of electronic and thermal Free Energies=         -361.420478

                     E (Thermal)             CV                S
                      KCal/Mol        Cal/Mol-Kelvin    Cal/Mol-Kelvin
 Total                   63.341             26.656             86.550
 Electronic               0.000              0.000              0.000
 Translational            0.889              2.981             39.921
 Rotational               0.889              2.981             28.162
 Vibrational             61.564             20.695             18.467
 Vibration     1          0.602              1.956              3.653
 Vibration     2          0.608              1.936              3.159
 Vibration     3          0.608              1.935              3.138
 Vibration     4          0.654              1.791              1.857
 Vibration     5          0.656              1.783              1.818
 Vibration     6          0.743              1.531              1.075
 Vibration     7          0.774              1.448              0.926
 Vibration     8          0.856              1.248              0.656
 Vibration     9          0.943              1.063              0.475

 Optimization completed.
    -- Stationary point found.
 Normal termination of Gaussian 16 at Sun Jul  3 14:00:16 2022.
