 Gaussian 16, Revision A.03,
 Gaussian 16:  ES64L-G16RevA.03 25-Dec-2016

 -----------------------------
 # opt freq b3lyp/6-31g(2df,p)
 -----------------------------

 -------------------
 Title Card Required
 -------------------
 Symbolic Z-matrix:
 Charge =  0 Multiplicity = 1

 SCF Done:  E(RB3LYP) =  -413.094191200     A.U. after   15 cycles
 SCF Done:  E(RB3LYP) =  -413.103703011     A.U. after   13 cycles
 SCF Done:  E(RB3LYP) =  -413.105372717     A.U. after   13 cycles
 SCF Done:  E(RB3LYP) =  -413.105698314     A.U. after   13 cycles
 SCF Done:  E(RB3LYP) =  -413.106188485     A.U. after   13 cycles
 SCF Done:  E(RB3LYP) =  -413.106753224     A.U. after   13 cycles
 SCF Done:  E(RB3LYP) =  -413.107660798     A.U. after   15 cycles
 SCF Done:  E(RB3LYP) =  -413.108029103     A.U. after   13 cycles
 SCF Done:  E(RB3LYP) =  -413.108168991     A.U. after   12 cycles
 SCF Done:  E(RB3LYP) =  -413.108195458     A.U. after   13 cycles
 SCF Done:  E(RB3LYP) =  -413.108231791     A.U. after   12 cycles
 SCF Done:  E(RB3LYP) =  -413.108253448     A.U. after   10 cycles
 SCF Done:  E(RB3LYP) =  -413.108260073     A.U. after   10 cycles
 SCF Done:  E(RB3LYP) =  -413.108263975     A.U. after   10 cycles
 SCF Done:  E(RB3LYP) =  -413.108268486     A.U. after   11 cycles
 SCF Done:  E(RB3LYP) =  -413.108269019     A.U. after    9 cycles
 SCF Done:  E(RB3LYP) =  -413.108269064     A.U. after    8 cycles
 Optimization completed.
    -- Stationary point found.
 Normal termination of Gaussian 16 at Mon Jul  4 01:17:54 2022.

 ----------------------------------------------------------------------
 #N Geom=AllCheck Guess=TCheck SCRF=Check GenChk RB3LYP/6-31G(2df,p) Fr
 eq
 ----------------------------------------------------------------------

 Structure from the checkpoint file:  "NdCCC1dNCpdNpNdC1.chk"
 -------------------
 Title Card Required
 -------------------
 Charge =  0 Multiplicity = 1

                         Standard orientation:
 ---------------------------------------------------------------------
 Center     Atomic      Atomic             Coordinates (Angstroms)
 Number     Number       Type             X           Y           Z
 ---------------------------------------------------------------------
      1          7           0        3.447812   -0.515247   -0.454543
      2          6           0        2.421683   -0.416148    0.282784
      3          6           0        1.530445    0.795649    0.183528
      4          6           0        0.075127    0.477838    0.077206
      5          7           0       -0.438605   -0.702028    0.101236
      6          6           0       -1.850577   -0.481904   -0.027590
      7          7           0       -2.744734   -1.377030   -0.051475
      8          7           0       -2.165753    0.913342   -0.131904
      9          6           0       -1.023914    1.491256   -0.070115
     10          1           0        3.952530   -1.382231   -0.257249
     11          1           0        2.112998   -1.163234    1.023320
     12          1           0        1.848117    1.404187   -0.671635
     13          1           0        1.672607    1.430371    1.073234
     14          1           0       -2.292813   -2.291291    0.036125
     15          1           0       -0.901069    2.568790   -0.121876
 ---------------------------------------------------------------------

 SCF Done:  E(RB3LYP) =  -413.108269064     A.U. after    1 cycles

 The electronic state is 1-A.
 Alpha  occ. eigenvalues --  -14.35193 -14.34861 -14.34362 -14.32994 -10.28479
 Alpha  occ. eigenvalues --  -10.26565 -10.25562 -10.24614 -10.22252  -1.02577
 Alpha  occ. eigenvalues --   -0.91905  -0.91097  -0.89331  -0.78517  -0.68646
 Alpha  occ. eigenvalues --   -0.61002  -0.58390  -0.56102  -0.52974  -0.51925
 Alpha  occ. eigenvalues --   -0.47021  -0.44842  -0.44091  -0.42585  -0.41553
 Alpha  occ. eigenvalues --   -0.33161  -0.31945  -0.31606  -0.30887  -0.30513
 Alpha  occ. eigenvalues --   -0.28831  -0.27384
 Alpha virt. eigenvalues --   -0.11040  -0.01409   0.02719   0.06731   0.08997
 Alpha virt. eigenvalues --    0.10019   0.11027   0.12173   0.14828   0.15763
 Alpha virt. eigenvalues --    0.18858   0.20136   0.22499   0.24516   0.30356

 Mulliken charges:
               1
     1  N   -0.376348
     2  C    0.056247
     3  C   -0.356328
     4  C    0.285742
     5  N   -0.322627
     6  C    0.406134
     7  N   -0.447387
     8  N   -0.208939
     9  C   -0.070738
    10  H    0.232521
    11  H    0.112786
    12  H    0.152703
    13  H    0.145903
    14  H    0.249491
    15  H    0.140841
 Sum of Mulliken charges =  -0.00000

 Dipole moment (field-independent basis, Debye):
    X=              2.7705    Y=              0.6356    Z=              1.5479  Tot=              3.2367
 Quadrupole moment (field-independent basis, Debye-Ang):
   XX=            -66.7468   YY=            -43.8397   ZZ=            -51.2114
   XY=             -1.4884   XZ=              3.4963   YZ=             -0.2385

  Exact polarizability: 102.469  11.410  83.938  -3.223  -1.098  44.787
 Approx polarizability: 156.022  35.720 146.487  -7.293  -0.918  74.912

                      1                      2                      3
                      A                      A                      A
 Frequencies --     47.8478                67.7115               161.4887
 Red. masses --      3.3012                 5.5083                 3.0878
 Frc consts  --      0.0045                 0.0149                 0.0474
 IR Inten    --      2.5953                 6.6571                 7.1528

                      4                      5                      6
                      A                      A                      A
 Frequencies --    176.1019               304.7405               363.0751
 Red. masses --      4.9005                 3.6938                 4.1887
 Frc consts  --      0.0895                 0.2021                 0.3253
 IR Inten    --      4.1780                 6.5197                 7.9651

                      7                      8                      9
                      A                      A                      A
 Frequencies --    420.5671               501.9657               589.0061
 Red. masses --      3.2860                 3.3665                 2.3075
 Frc consts  --      0.3424                 0.4998                 0.4717
 IR Inten    --     19.0575                 9.3090                13.3163

                     10                     11                     12
                      A                      A                      A
 Frequencies --    643.8355               741.8542               760.7881
 Red. masses --      2.3229                 3.3749                 6.6994
 Frc consts  --      0.5673                 1.0943                 2.2846
 IR Inten    --     12.7400                10.1453                 2.2969

                     13                     14                     15
                      A                      A                      A
 Frequencies --    799.9122               879.5207               934.4711
 Red. masses --      3.2127                 8.7631                 1.9728
 Frc consts  --      1.2112                 3.9939                 1.0150
 IR Inten    --     19.5183                 0.4744                12.6507

                     16                     17                     18
                      A                      A                      A
 Frequencies --    959.2303               961.7806               988.3324
 Red. masses --      1.8202                 1.3048                 2.4951
 Frc consts  --      0.9868                 0.7111                 1.4360
 IR Inten    --     47.6992                19.9513                23.6411

                     19                     20                     21
                      A                      A                      A
 Frequencies --   1013.5539              1020.4585              1123.1722
 Red. masses --      3.6462                 2.3977                 1.2147
 Frc consts  --      2.2069                 1.4711                 0.9028
 IR Inten    --     63.2107                32.1634                10.6884

                     22                     23                     24
                      A                      A                      A
 Frequencies --   1147.4513              1186.4431              1269.7053
 Red. masses --      1.8822                 1.1892                 1.2451
 Frc consts  --      1.4601                 0.9863                 1.1827
 IR Inten    --     45.2200                 6.1739                54.2994

                     25                     26                     27
                      A                      A                      A
 Frequencies --   1278.8880              1328.8910              1371.4556
 Red. masses --      1.4195                 1.6806                 2.2444
 Frc consts  --      1.3679                 1.7486                 2.4872
 IR Inten    --     96.4666                41.0897                54.3428

                     28                     29                     30
                      A                      A                      A
 Frequencies --   1424.8620              1435.3132              1576.1460
 Red. masses --      1.5717                 1.1073                10.0026
 Frc consts  --      1.8800                 1.3441                14.6405
 IR Inten    --     11.1775                26.8419                30.3712

                     31                     32                     33
                      A                      A                      A
 Frequencies --   1676.3547              1737.3190              1751.7507
 Red. masses --      8.7313                 6.6935                10.5511
 Frc consts  --     14.4564                11.9032                19.0762
 IR Inten    --     19.4068                66.0555                20.3081

                     34                     35                     36
                      A                      A                      A
 Frequencies --   2993.8307              3051.9373              3066.7971
 Red. masses --      1.0689                 1.0870                 1.0898
 Frc consts  --      5.6448                 5.9652                 6.0388
 IR Inten    --      3.6977                20.6183                 8.0939

                     37                     38                     39
                      A                      A                      A
 Frequencies --   3189.8608              3449.0641              3463.6378
 Red. masses --      1.0959                 1.0758                 1.0736
 Frc consts  --      6.5702                 7.5400                 7.5884
 IR Inten    --      7.8566                 0.3802                10.4252

 - Thermochemistry -
 -------------------
 Temperature   298.150 Kelvin.  Pressure   1.00000 Atm.
 Atom     1 has atomic number  7 and mass  14.00307

 Molecular mass:   122.05925 amu.
 Principal axes and moments of inertia in atomic units:
                           1         2         3
     Eigenvalues --   419.874621901.263682267.17749
           X            0.99999   0.00011   0.00343
           Y           -0.00009   0.99998  -0.00614
           Z           -0.00343   0.00614   0.99998
 This molecule is an asymmetric top.
 Rotational symmetry number  1.
 Rotational temperatures (Kelvin)      0.20629     0.04556     0.03820
 Rotational constants (GHZ):           4.29829     0.94923     0.79603
 Zero-point vibrational energy     298223.8 (Joules/Mol)
                                   71.27719 (Kcal/Mol)
 Warning -- explicit consideration of   9 degrees of freedom as
           vibrations may cause significant error
 Vibrational temperatures:     68.84    97.42   232.35   253.37   438.45
          (Kelvin)            522.38   605.10   722.22   847.45   926.34
                             1067.36  1094.60  1150.90  1265.43  1344.50
                             1380.12  1383.79  1421.99  1458.28  1468.21
                             1615.99  1650.93  1707.03  1826.82  1840.03
                             1911.98  1973.22  2050.06  2065.10  2267.72
                             2411.90  2499.61  2520.38  4307.45  4391.06
                             4412.44  4589.50  4962.43  4983.40

 Zero-point correction=                           0.113587 (Hartree/Particle)
 Thermal correction to Energy=                    0.121549
 Thermal correction to Enthalpy=                  0.122494
 Thermal correction to Gibbs Free Energy=         0.079733
 Sum of electronic and zero-point Energies=           -412.994682
 Sum of electronic and thermal Energies=              -412.986720
 Sum of electronic and thermal Enthalpies=            -412.985775
 Sum of electronic and thermal Free Energies=         -413.028536

                     E (Thermal)             CV                S
                      KCal/Mol        Cal/Mol-Kelvin    Cal/Mol-Kelvin
 Total                   76.273             28.248             89.998
 Electronic               0.000              0.000              0.000
 Translational            0.889              2.981             40.312
 Rotational               0.889              2.981             28.983
 Vibrational             74.496             22.286             20.702
 Vibration     1          0.595              1.978              4.904
 Vibration     2          0.598              1.970              4.219
 Vibration     3          0.622              1.890              2.532
 Vibration     4          0.628              1.872              2.369
 Vibration     5          0.696              1.665              1.391
 Vibration     6          0.737              1.548              1.109
 Vibration     7          0.783              1.426              0.890
 Vibration     8          0.857              1.246              0.653
 Vibration     9          0.946              1.055              0.469

 Optimization completed.
    -- Stationary point found.
 Normal termination of Gaussian 16 at Mon Jul  4 01:42:51 2022.
