 Gaussian 16, Revision A.03,
 Gaussian 16:  ES64L-G16RevA.03 25-Dec-2016

 -----------------------------
 # opt freq b3lyp/6-31g(2df,p)
 -----------------------------

 -------------------
 Title Card Required
 -------------------
 Symbolic Z-matrix:
 Charge =  0 Multiplicity = 1

 SCF Done:  E(RB3LYP) =  -326.602171284     A.U. after   17 cycles
 SCF Done:  E(RB3LYP) =  -326.640541486     A.U. after   14 cycles
 SCF Done:  E(RB3LYP) =  -326.676963928     A.U. after   14 cycles
 SCF Done:  E(RB3LYP) =  -326.708935699     A.U. after   14 cycles
 SCF Done:  E(RB3LYP) =  -326.729005492     A.U. after   13 cycles
 SCF Done:  E(RB3LYP) =  -326.742203661     A.U. after   14 cycles
 SCF Done:  E(RB3LYP) =  -326.743114434     A.U. after   15 cycles
 SCF Done:  E(RB3LYP) =  -326.756645462     A.U. after   13 cycles
 SCF Done:  E(RB3LYP) =  -326.773468277     A.U. after   11 cycles
 SCF Done:  E(RB3LYP) =  -326.793616166     A.U. after   13 cycles
 SCF Done:  E(RB3LYP) =  -326.798680472     A.U. after   12 cycles
 SCF Done:  E(RB3LYP) =  -326.801378963     A.U. after   12 cycles
 SCF Done:  E(RB3LYP) =  -326.801656743     A.U. after   10 cycles
 SCF Done:  E(RB3LYP) =  -326.801695220     A.U. after   10 cycles
 SCF Done:  E(RB3LYP) =  -326.801711997     A.U. after    9 cycles
 SCF Done:  E(RB3LYP) =  -326.801715313     A.U. after    8 cycles
 SCF Done:  E(RB3LYP) =  -326.801715964     A.U. after    8 cycles
 SCF Done:  E(RB3LYP) =  -326.801716098     A.U. after    7 cycles
 Optimization completed.
    -- Stationary point found.
 Normal termination of Gaussian 16 at Thu Aug  4 00:59:06 2022.

 ----------------------------------------------------------------------
 #N Geom=AllCheck Guess=TCheck SCRF=Check GenChk RB3LYP/6-31G(2df,p) Fr
 eq
 ----------------------------------------------------------------------

 Structure from the checkpoint file:  "NdCC1dC2CCC2C1.chk"
 -------------------
 Title Card Required
 -------------------
 Charge =  0 Multiplicity = 1

                         Standard orientation:
 ---------------------------------------------------------------------
 Center     Atomic      Atomic             Coordinates (Angstroms)
 Number     Number       Type             X           Y           Z
 ---------------------------------------------------------------------
      1          7           0       -2.941736   -0.029240    0.363304
      2          6           0       -1.918150   -0.647769   -0.096326
      3          6           0       -0.669681    0.029490   -0.340332
      4          6           0        0.591751   -0.389445   -0.628446
      5          6           0        1.661235   -1.288517   -0.064997
      6          6           0        2.057410    0.027183    0.733970
      7          6           0        1.254622    0.916139   -0.298183
      8          6           0       -0.190275    1.454389   -0.018183
      9          1           0       -3.728726   -0.672109    0.468072
     10          1           0       -1.918094   -1.719510   -0.346641
     11          1           0        2.440415   -1.559050   -0.783868
     12          1           0        1.359279   -2.171707    0.501487
     13          1           0        3.128556    0.231937    0.803956
     14          1           0        1.608385    0.033974    1.729264
     15          1           0        1.885050    1.452770   -1.008587
     16          1           0       -0.529629    2.274985   -0.657897
     17          1           0       -0.374564    1.724563    1.026070
 ---------------------------------------------------------------------

 SCF Done:  E(RB3LYP) =  -326.801716098     A.U. after    1 cycles

 The electronic state is 1-A.
 Alpha  occ. eigenvalues --  -14.30326 -10.21893 -10.20519 -10.20498 -10.19985
 Alpha  occ. eigenvalues --  -10.18947 -10.18839 -10.18357  -0.90038  -0.87974
 Alpha  occ. eigenvalues --   -0.77112  -0.68864  -0.63643  -0.61940  -0.56717
 Alpha  occ. eigenvalues --   -0.49916  -0.49530  -0.46439  -0.44564  -0.43282
 Alpha  occ. eigenvalues --   -0.40772  -0.37828  -0.33922  -0.33519  -0.32930
 Alpha  occ. eigenvalues --   -0.32180  -0.29539  -0.25122  -0.21669
 Alpha virt. eigenvalues --   -0.04064   0.06800   0.09552   0.09973   0.10842
 Alpha virt. eigenvalues --    0.11591   0.13008   0.15056   0.15827   0.17005
 Alpha virt. eigenvalues --    0.17622   0.18926   0.20802   0.22065   0.24745

 Mulliken charges:
               1
     1  N   -0.410043
     2  C   -0.097702
     3  C    0.250557
     4  C    0.080059
     5  C   -0.294060
     6  C   -0.222462
     7  C   -0.046214
     8  C   -0.335857
     9  H    0.220711
    10  H    0.073661
    11  H    0.118852
    12  H    0.113032
    13  H    0.111643
    14  H    0.121083
    15  H    0.079567
    16  H    0.111185
    17  H    0.125989
 Sum of Mulliken charges =   0.00000

 Dipole moment (field-independent basis, Debye):
    X=              2.0650    Y=             -1.5059    Z=              0.0421  Tot=              2.5561
 Quadrupole moment (field-independent basis, Debye-Ang):
   XX=            -47.4797   YY=            -45.7601   ZZ=            -48.3243
   XY=              4.3776   XZ=              0.5928   YZ=             -0.7682

  Exact polarizability: 122.180  -2.315  74.271  -7.243   1.020  55.159
 Approx polarizability: 195.698 -13.640 110.504 -22.724   6.228  91.338

                      1                      2                      3
                      A                      A                      A
 Frequencies --     99.2717               164.8805               194.8577
 Red. masses --      3.9312                 3.3263                 2.2945
 Frc consts  --      0.0228                 0.0533                 0.0513
 IR Inten    --      0.3342                 7.3503                 8.0211

                      4                      5                      6
                      A                      A                      A
 Frequencies --    275.9390               350.9751               408.8728
 Red. masses --      2.2755                 2.1914                 2.2425
 Frc consts  --      0.1021                 0.1590                 0.2209
 IR Inten    --     13.7697                 2.5448                15.4404

                      7                      8                      9
                      A                      A                      A
 Frequencies --    527.2745               646.8675               680.3826
 Red. masses --      4.0217                 3.6620                 2.5295
 Frc consts  --      0.6588                 0.9028                 0.6899
 IR Inten    --      0.7505                14.0467                14.5932

                     10                     11                     12
                      A                      A                      A
 Frequencies --    736.6294               773.7490               799.9667
 Red. masses --      1.7138                 4.1358                 1.7860
 Frc consts  --      0.5479                 1.4589                 0.6734
 IR Inten    --     20.4458                22.9451                 5.8097

                     13                     14                     15
                      A                      A                      A
 Frequencies --    832.4782               856.8435               911.3352
 Red. masses --      1.6128                 2.5637                 1.6490
 Frc consts  --      0.6585                 1.1090                 0.8069
 IR Inten    --     24.7947                 2.7871                 1.5157

                     16                     17                     18
                      A                      A                      A
 Frequencies --    962.4740               991.2718              1032.4349
 Red. masses --      1.9758                 1.9669                 2.3414
 Frc consts  --      1.0784                 1.1387                 1.4705
 IR Inten    --     25.7030                 2.6196                 7.5633

                     19                     20                     21
                      A                      A                      A
 Frequencies --   1065.4386              1102.9695              1118.5093
 Red. masses --      1.5935                 1.2515                 1.8142
 Frc consts  --      1.0658                 0.8970                 1.3373
 IR Inten    --     12.6774                 6.7281                 0.0900

                     22                     23                     24
                      A                      A                      A
 Frequencies --   1134.7204              1139.6999              1173.8242
 Red. masses --      1.4593                 1.4070                 1.5049
 Frc consts  --      1.1071                 1.0768                 1.2217
 IR Inten    --      1.5461                12.0793                39.4242

                     25                     26                     27
                      A                      A                      A
 Frequencies --   1204.4092              1219.3991              1230.7997
 Red. masses --      1.4989                 1.2411                 1.4615
 Frc consts  --      1.2810                 1.0873                 1.3044
 IR Inten    --      4.0624                 4.8915                 3.0171

                     28                     29                     30
                      A                      A                      A
 Frequencies --   1261.3502              1269.5463              1328.6291
 Red. masses --      1.7770                 1.3826                 2.0132
 Frc consts  --      1.6658                 1.3130                 2.0939
 IR Inten    --      0.4682                 2.8437                 6.2152

                     31                     32                     33
                      A                      A                      A
 Frequencies --   1415.9910              1454.6870              1467.1770
 Red. masses --      1.8225                 1.1085                 1.1008
 Frc consts  --      2.1530                 1.3820                 1.3962
 IR Inten    --     45.3965                 1.3740                 5.8389

                     34                     35                     36
                      A                      A                      A
 Frequencies --   1482.9389              1638.5573              1690.8880
 Red. masses --      1.1189                 8.5337                 6.2132
 Frc consts  --      1.4497                13.4993                10.4664
 IR Inten    --      3.2075                 4.6331               179.8085

                     37                     38                     39
                      A                      A                      A
 Frequencies --   2997.0498              3046.5881              3055.2699
 Red. masses --      1.0853                 1.0579                 1.0580
 Frc consts  --      5.7437                 5.7853                 5.8185
 IR Inten    --     59.2081                32.8967                33.0291

                     40                     41                     42
                      A                      A                      A
 Frequencies --   3060.7440              3093.3395              3102.0990
 Red. masses --      1.0581                 1.0918                 1.1020
 Frc consts  --      5.8403                 6.1551                 6.2482
 IR Inten    --     54.4004                25.6935                32.1782

                     43                     44                     45
                      A                      A                      A
 Frequencies --   3115.2638              3134.2716              3454.6140
 Red. masses --      1.1065                 1.1091                 1.0754
 Frc consts  --      6.3272                 6.4195                 7.5619
 IR Inten    --      6.3238                39.2217                 0.0936

 - Thermochemistry -
 -------------------
 Temperature   298.150 Kelvin.  Pressure   1.00000 Atm.
 Atom     1 has atomic number  7 and mass  14.00307

 Molecular mass:   107.07350 amu.
 Principal axes and moments of inertia in atomic units:
                           1         2         3
     Eigenvalues --   379.748701225.304671440.49214
           X            0.99999   0.00298   0.00370
           Y           -0.00294   0.99996  -0.00884
           Z           -0.00372   0.00882   0.99995
 This molecule is an asymmetric top.
 Rotational symmetry number  1.
 Rotational temperatures (Kelvin)      0.22808     0.07069     0.06013
 Rotational constants (GHZ):           4.75246     1.47289     1.25286
 Zero-point vibrational energy     375060.9 (Joules/Mol)
                                   89.64170 (Kcal/Mol)
 Warning -- explicit consideration of   7 degrees of freedom as
           vibrations may cause significant error
 Vibrational temperatures:    142.83   237.23   280.36   397.01   504.97
          (Kelvin)            588.28   758.63   930.70   978.92  1059.85
                             1113.25  1150.97  1197.75  1232.81  1311.21
                             1384.79  1426.22  1485.44  1532.93  1586.93
                             1609.29  1632.61  1639.77  1688.87  1732.88
                             1754.44  1770.85  1814.80  1826.59  1911.60
                             2037.30  2092.97  2110.94  2133.62  2357.52
                             2432.81  4312.09  4383.36  4395.85  4403.73
                             4450.63  4463.23  4482.17  4509.52  4970.42

 Zero-point correction=                           0.142853 (Hartree/Particle)
 Thermal correction to Energy=                    0.149993
 Thermal correction to Enthalpy=                  0.150937
 Thermal correction to Gibbs Free Energy=         0.111454
 Sum of electronic and zero-point Energies=           -326.658863
 Sum of electronic and thermal Energies=              -326.651723
 Sum of electronic and thermal Enthalpies=            -326.650779
 Sum of electronic and thermal Free Energies=         -326.690262

                     E (Thermal)             CV                S
                      KCal/Mol        Cal/Mol-Kelvin    Cal/Mol-Kelvin
 Total                   94.122             27.336             83.099
 Electronic               0.000              0.000              0.000
 Translational            0.889              2.981             39.922
 Rotational               0.889              2.981             27.996
 Vibrational             92.344             21.375             15.181
 Vibration     1          0.604              1.950              3.469
 Vibration     2          0.623              1.886              2.493
 Vibration     3          0.636              1.847              2.181
 Vibration     4          0.678              1.718              1.559
 Vibration     5          0.728              1.573              1.162
 Vibration     6          0.773              1.451              0.931
 Vibration     7          0.882              1.190              0.593

 Optimization completed.
    -- Stationary point found.
 Normal termination of Gaussian 16 at Thu Aug  4 01:19:01 2022.
