 Gaussian 16, Revision A.03,
 Gaussian 16:  ES64L-G16RevA.03 25-Dec-2016

 -----------------------------
 # opt freq b3lyp/6-31g(2df,p)
 -----------------------------

 -------------------
 Title Card Required
 -------------------
 Symbolic Z-matrix:
 Charge =  0 Multiplicity = 1

 SCF Done:  E(RB3LYP) =  -416.966273690     A.U. after   14 cycles
 SCF Done:  E(RB3LYP) =  -416.971140827     A.U. after   13 cycles
 SCF Done:  E(RB3LYP) =  -416.972772769     A.U. after   13 cycles
 SCF Done:  E(RB3LYP) =  -416.973795158     A.U. after   15 cycles
 SCF Done:  E(RB3LYP) =  -416.974426586     A.U. after   13 cycles
 SCF Done:  E(RB3LYP) =  -416.974617328     A.U. after   12 cycles
 SCF Done:  E(RB3LYP) =  -416.974631981     A.U. after   12 cycles
 SCF Done:  E(RB3LYP) =  -416.974636955     A.U. after    9 cycles
 SCF Done:  E(RB3LYP) =  -416.974637589     A.U. after    8 cycles
 Optimization completed.
    -- Stationary point found.
 Normal termination of Gaussian 16 at Sun Jul  3 09:19:32 2022.

 ----------------------------------------------------------------------
 #N Geom=AllCheck Guess=TCheck SCRF=Check GenChk RB3LYP/6-31G(2df,p) Fr
 eq
 ----------------------------------------------------------------------

 Structure from the checkpoint file:  "NdCc1ncccc1O.chk"
 -------------------
 Title Card Required
 -------------------
 Charge =  0 Multiplicity = 1

                         Standard orientation:
 ---------------------------------------------------------------------
 Center     Atomic      Atomic             Coordinates (Angstroms)
 Number     Number       Type             X           Y           Z
 ---------------------------------------------------------------------
      1          7           0        2.784091   -0.217676    0.000625
      2          6           0        1.755049   -0.968128   -0.000362
      3          6           0        0.358627   -0.490142   -0.000271
      4          7           0       -0.547025   -1.481791   -0.000144
      5          6           0       -1.843908   -1.195156    0.000075
      6          6           0       -2.324302    0.112650    0.000239
      7          6           0       -1.406989    1.151764    0.000184
      8          6           0       -0.040124    0.866169   -0.000159
      9          8           0        0.892475    1.841427   -0.000008
     10          1           0        3.629944   -0.791541    0.000558
     11          1           0        1.785981   -2.065629   -0.000843
     12          1           0       -2.528166   -2.039210    0.000026
     13          1           0       -3.390180    0.312070    0.000411
     14          1           0       -1.737781    2.187563    0.000413
     15          1           0        0.450817    2.698652   -0.002102
 ---------------------------------------------------------------------

 SCF Done:  E(RB3LYP) =  -416.974637589     A.U. after    1 cycles

 The electronic state is 1-A.
 Alpha  occ. eigenvalues --  -19.18168 -14.32953 -14.30871 -10.26194 -10.22262
 Alpha  occ. eigenvalues --  -10.22125 -10.21525 -10.20817 -10.20435  -1.07513
 Alpha  occ. eigenvalues --   -0.94549  -0.89037  -0.80519  -0.76507  -0.66155
 Alpha  occ. eigenvalues --   -0.64971  -0.57999  -0.55133  -0.51470  -0.49354
 Alpha  occ. eigenvalues --   -0.46449  -0.44120  -0.43292  -0.40809  -0.40324
 Alpha  occ. eigenvalues --   -0.37079  -0.36600  -0.33140  -0.27934  -0.26136
 Alpha  occ. eigenvalues --   -0.25163  -0.23318
 Alpha virt. eigenvalues --   -0.04958  -0.01153   0.04980   0.06158   0.09658
 Alpha virt. eigenvalues --    0.10746   0.14902   0.16652   0.17112   0.18599
 Alpha virt. eigenvalues --    0.22786   0.24765   0.26172   0.29394   0.33166

 Mulliken charges:
               1
     1  N   -0.401110
     2  C   -0.013559
     3  C    0.233310
     4  N   -0.310279
     5  C   -0.023773
     6  C   -0.115716
     7  C   -0.191268
     8  C    0.290427
     9  O   -0.398771
    10  H    0.225623
    11  H    0.092825
    12  H    0.108586
    13  H    0.107521
    14  H    0.097621
    15  H    0.298564
 Sum of Mulliken charges =  -0.00000

 Dipole moment (field-independent basis, Debye):
    X=             -2.2651    Y=              1.5861    Z=             -0.0041  Tot=              2.7652
 Quadrupole moment (field-independent basis, Debye-Ang):
   XX=            -46.6952   YY=            -44.6308   ZZ=            -52.8035
   XY=             -6.2542   XZ=             -0.0051   YZ=             -0.0106

  Exact polarizability: 120.905  -0.182  87.472   0.001   0.001  34.698
 Approx polarizability: 198.916   9.251 151.894   0.007   0.007  57.010

                      1                      2                      3
                      A                      A                      A
 Frequencies --     86.2099               176.9967               228.1260
 Red. masses --      5.3077                 2.9678                 5.5268
 Frc consts  --      0.0232                 0.0548                 0.1695
 IR Inten    --      1.2782                17.7600                 9.4718

                      4                      5                      6
                      A                      A                      A
 Frequencies --    282.4652               401.0570               414.8471
 Red. masses --      3.0107                 5.3088                 1.2059
 Frc consts  --      0.1415                 0.5031                 0.1223
 IR Inten    --     26.6523                 7.1678                80.3210

                      7                      8                      9
                      A                      A                      A
 Frequencies --    449.6504               462.7707               572.3100
 Red. masses --      5.7222                 2.9499                 3.6939
 Frc consts  --      0.6817                 0.3722                 0.7129
 IR Inten    --      0.8792                 2.8604                 4.8829

                     10                     11                     12
                      A                      A                      A
 Frequencies --    584.3605               649.6448               730.9483
 Red. masses --      7.9269                 5.9656                 2.0394
 Frc consts  --      1.5948                 1.4834                 0.6420
 IR Inten    --      5.6555                40.9412                 0.3176

                     13                     14                     15
                      A                      A                      A
 Frequencies --    742.8901               823.4180               885.3060
 Red. masses --      4.2916                 1.4733                 2.2922
 Frc consts  --      1.3955                 0.5885                 1.0585
 IR Inten    --     15.8068                44.9971                23.6688

                     16                     17                     18
                      A                      A                      A
 Frequencies --    887.3666               929.1323               976.9317
 Red. masses --      6.1622                 1.4094                 1.3318
 Frc consts  --      2.8588                 0.7169                 0.7489
 IR Inten    --     25.4331                 0.1984                 1.0675

                     19                     20                     21
                      A                      A                      A
 Frequencies --   1084.7299              1118.2001              1133.2557
 Red. masses --      2.3250                 2.0248                 1.2545
 Frc consts  --      1.6118                 1.4916                 0.9492
 IR Inten    --      0.0745                91.4166                 5.9243

                     22                     23                     24
                      A                      A                      A
 Frequencies --   1174.6957              1198.1924              1260.3741
 Red. masses --      1.2979                 1.2837                 2.2201
 Frc consts  --      1.0552                 1.0858                 2.0779
 IR Inten    --     44.5172                 3.6722                24.6360

                     25                     26                     27
                      A                      A                      A
 Frequencies --   1314.1320              1332.0601              1343.2578
 Red. masses --      1.6858                 2.3547                 3.8336
 Frc consts  --      1.7153                 2.4617                 4.0754
 IR Inten    --     23.6771               109.3572                11.0027

                     28                     29                     30
                      A                      A                      A
 Frequencies --   1416.1451              1483.4894              1501.2935
 Red. masses --      1.5408                 2.4038                 2.7678
 Frc consts  --      1.8206                 3.1168                 3.6755
 IR Inten    --     40.8787                36.0529                26.7549

                     31                     32                     33
                      A                      A                      A
 Frequencies --   1616.0431              1626.6960              1710.1009
 Red. masses --      5.4720                 6.5506                 6.6510
 Frc consts  --      8.4198                10.2128                11.4599
 IR Inten    --      7.2763                25.5266                82.2302

                     34                     35                     36
                      A                      A                      A
 Frequencies --   3035.9126              3154.5248              3162.0879
 Red. masses --      1.0869                 1.0883                 1.0890
 Frc consts  --      5.9023                 6.3808                 6.4154
 IR Inten    --     37.9922                 9.5236                21.3748

                     37                     38                     39
                      A                      A                      A
 Frequencies --   3197.7014              3448.7376              3795.0465
 Red. masses --      1.0956                 1.0755                 1.0657
 Frc consts  --      6.6005                 7.5370                 9.0433
 IR Inten    --     14.1497                 0.0354                42.9326

 - Thermochemistry -
 -------------------
 Temperature   298.150 Kelvin.  Pressure   1.00000 Atm.
 Atom     1 has atomic number  7 and mass  14.00307

 Molecular mass:   122.04801 amu.
 Principal axes and moments of inertia in atomic units:
                           1         2         3
     Eigenvalues --   582.885641182.988071765.87360
           X            0.99956  -0.02981  -0.00001
           Y            0.02981   0.99956  -0.00002
           Z            0.00001   0.00002   1.00000
 This molecule is an asymmetric top.
 Rotational symmetry number  1.
 Warning -- assumption of classical behavior for rotation
           may cause significant error
 Rotational temperatures (Kelvin)      0.14860     0.07322     0.04905
 Rotational constants (GHZ):           3.09622     1.52558     1.02201
 Zero-point vibrational energy     301405.8 (Joules/Mol)
                                   72.03771 (Kcal/Mol)
 Warning -- explicit consideration of  10 degrees of freedom as
           vibrations may cause significant error
 Vibrational temperatures:    124.04   254.66   328.22   406.40   577.03
          (Kelvin)            596.87   646.95   665.82   823.43   840.76
                              934.69  1051.67  1068.85  1184.71  1273.76
                             1276.72  1336.81  1405.59  1560.68  1608.84
                             1630.50  1690.13  1723.93  1813.40  1890.74
                             1916.54  1932.65  2037.52  2134.41  2160.03
                             2325.13  2340.45  2460.45  4368.00  4538.66
                             4549.54  4600.78  4961.96  5460.23

 Zero-point correction=                           0.114799 (Hartree/Particle)
 Thermal correction to Energy=                    0.122198
 Thermal correction to Enthalpy=                  0.123142
 Thermal correction to Gibbs Free Energy=         0.082822
 Sum of electronic and zero-point Energies=           -416.859838
 Sum of electronic and thermal Energies=              -416.852440
 Sum of electronic and thermal Enthalpies=            -416.851495
 Sum of electronic and thermal Free Energies=         -416.891816

                     E (Thermal)             CV                S
                      KCal/Mol        Cal/Mol-Kelvin    Cal/Mol-Kelvin
 Total                   76.680             28.214             84.862
 Electronic               0.000              0.000              0.000
 Translational            0.889              2.981             40.312
 Rotational               0.889              2.981             28.589
 Vibrational             74.903             22.252             15.961
 Vibration     1          0.601              1.959              3.744
 Vibration     2          0.628              1.871              2.360
 Vibration     3          0.651              1.798              1.894
 Vibration     4          0.682              1.706              1.519
 Vibration     5          0.767              1.468              0.959
 Vibration     6          0.778              1.438              0.910
 Vibration     7          0.809              1.362              0.797
 Vibration     8          0.820              1.333              0.758
 Vibration     9          0.929              1.091              0.500
 Vibration    10          0.941              1.065              0.477

                           ! Non-Optimized Parameters !
 Normal termination of Gaussian 16 at Sun Jul  3 09:39:11 2022.
