 Gaussian 16, Revision A.03,
 Gaussian 16:  ES64L-G16RevA.03 25-Dec-2016

 -----------------------------
 # opt freq b3lyp/6-31g(2df,p)
 -----------------------------

 -------------------
 Title Card Required
 -------------------
 Symbolic Z-matrix:
 Charge =  0 Multiplicity = 1

 SCF Done:  E(RB3LYP) =  -402.126405213     A.U. after   14 cycles
 SCF Done:  E(RB3LYP) =  -402.129232515     A.U. after   13 cycles
 SCF Done:  E(RB3LYP) =  -402.129933741     A.U. after   13 cycles
 SCF Done:  E(RB3LYP) =  -402.130424352     A.U. after   14 cycles
 SCF Done:  E(RB3LYP) =  -402.130981411     A.U. after   13 cycles
 SCF Done:  E(RB3LYP) =  -402.131399027     A.U. after   13 cycles
 SCF Done:  E(RB3LYP) =  -402.131463756     A.U. after   12 cycles
 SCF Done:  E(RB3LYP) =  -402.131478441     A.U. after   11 cycles
 SCF Done:  E(RB3LYP) =  -402.131480424     A.U. after    9 cycles
 SCF Done:  E(RB3LYP) =  -402.131480820     A.U. after    8 cycles
 SCF Done:  E(RB3LYP) =  -402.131480991     A.U. after    8 cycles
 SCF Done:  E(RB3LYP) =  -402.131481063     A.U. after    8 cycles
 SCF Done:  E(RB3LYP) =  -402.131481098     A.U. after    7 cycles
 Optimization completed.
    -- Stationary point found.
 Normal termination of Gaussian 16 at Thu Aug  4 15:54:16 2022.

 ----------------------------------------------------------------------
 #N Geom=AllCheck Guess=TCheck SCRF=Check GenChk RB3LYP/6-31G(2df,p) Fr
 eq
 ----------------------------------------------------------------------

 Structure from the checkpoint file:  "NdCC1dCCCCC1dO.chk"
 -------------------
 Title Card Required
 -------------------
 Charge =  0 Multiplicity = 1

                         Standard orientation:
 ---------------------------------------------------------------------
 Center     Atomic      Atomic             Coordinates (Angstroms)
 Number     Number       Type             X           Y           Z
 ---------------------------------------------------------------------
      1          7           0        2.931222   -0.064740    0.140636
      2          6           0        1.959884   -0.863909   -0.045187
      3          6           0        0.537338   -0.470963   -0.019315
      4          6           0       -0.389093   -1.451127   -0.013379
      5          6           0       -1.872260   -1.249751    0.045285
      6          6           0       -2.284996    0.189907   -0.280635
      7          6           0       -1.353642    1.187506    0.419239
      8          6           0        0.099251    0.967201    0.007000
      9          8           0        0.824845    1.887626   -0.286564
     10          1           0        3.816641   -0.573910    0.100553
     11          1           0        2.095736   -1.944444   -0.214704
     12          1           0       -0.043653   -2.485007   -0.034548
     13          1           0       -2.211647   -1.523612    1.057293
     14          1           0       -2.366815   -1.963508   -0.624834
     15          1           0       -3.325914    0.363953    0.008877
     16          1           0       -2.227491    0.345040   -1.364945
     17          1           0       -1.421745    1.055899    1.508816
     18          1           0       -1.611311    2.224576    0.193500
 ---------------------------------------------------------------------

 SCF Done:  E(RB3LYP) =  -402.131481098     A.U. after    1 cycles

 The electronic state is 1-A.
 Alpha  occ. eigenvalues --  -19.11970 -14.31185 -10.26291 -10.23052 -10.21971
 Alpha  occ. eigenvalues --  -10.20835 -10.20275 -10.20001 -10.18974  -1.03099
 Alpha  occ. eigenvalues --   -0.89937  -0.84717  -0.77343  -0.73454  -0.64381
 Alpha  occ. eigenvalues --   -0.60700  -0.58680  -0.50254  -0.49631  -0.47931
 Alpha  occ. eigenvalues --   -0.45649  -0.43761  -0.43008  -0.41152  -0.40738
 Alpha  occ. eigenvalues --   -0.39343  -0.35812  -0.34851  -0.34178  -0.33398
 Alpha  occ. eigenvalues --   -0.26815  -0.26157  -0.22632
 Alpha virt. eigenvalues --   -0.05622  -0.00826   0.07294   0.09258   0.10317
 Alpha virt. eigenvalues --    0.12419   0.13154   0.13725   0.15210   0.16391
 Alpha virt. eigenvalues --    0.17994   0.18897   0.19271   0.20745   0.24272

 Mulliken charges:
               1
     1  N   -0.379323
     2  C   -0.047821
     3  C    0.201509
     4  C   -0.119485
     5  C   -0.258438
     6  C   -0.221774
     7  C   -0.301510
     8  C    0.302390
     9  O   -0.286048
    10  H    0.225677
    11  H    0.075048
    12  H    0.102442
    13  H    0.126820
    14  H    0.118328
    15  H    0.106197
    16  H    0.116026
    17  H    0.117626
    18  H    0.122336
 Sum of Mulliken charges =  -0.00000

 Dipole moment (field-independent basis, Debye):
    X=             -2.8958    Y=             -4.0080    Z=              0.3492  Tot=              4.9570
 Quadrupole moment (field-independent basis, Debye-Ang):
   XX=            -49.7859   YY=            -54.1626   ZZ=            -52.5542
   XY=             -6.9501   XZ=             -0.5180   YZ=              1.1125

  Exact polarizability: 111.747   9.765  87.258  -0.724   0.616  51.491
 Approx polarizability: 163.202  39.410 146.117  -2.265  -1.533  83.086

                      1                      2                      3
                      A                      A                      A
 Frequencies --     52.5457               105.1764               204.6673
 Red. masses --      4.9082                 2.8945                 2.2458
 Frc consts  --      0.0080                 0.0189                 0.0554
 IR Inten    --      0.8439                 8.7177                 5.7068

                      4                      5                      6
                      A                      A                      A
 Frequencies --    217.9025               280.2513               317.6054
 Red. masses --      5.6394                 1.8304                 3.0043
 Frc consts  --      0.1578                 0.0847                 0.1786
 IR Inten    --      2.3382                 9.0076                 1.6827

                      7                      8                      9
                      A                      A                      A
 Frequencies --    389.2820               461.4169               471.0683
 Red. masses --      4.1175                 4.1815                 3.4096
 Frc consts  --      0.3676                 0.5245                 0.4458
 IR Inten    --      2.9170                21.4054                 5.4590

                     10                     11                     12
                      A                      A                      A
 Frequencies --    563.5779               627.9691               671.5698
 Red. masses --      3.2753                 3.0788                 3.7127
 Frc consts  --      0.6129                 0.7153                 0.9866
 IR Inten    --      1.2735                16.5891                 9.8617

                     13                     14                     15
                      A                      A                      A
 Frequencies --    734.7884               789.7729               871.1903
 Red. masses --      2.3379                 1.3767                 1.7805
 Frc consts  --      0.7437                 0.5059                 0.7962
 IR Inten    --     18.2632                 2.4303                10.9107

                     16                     17                     18
                      A                      A                      A
 Frequencies --    882.0384               900.1798               943.9632
 Red. masses --      2.4755                 2.7587                 1.3430
 Frc consts  --      1.1347                 1.3171                 0.7051
 IR Inten    --      2.2887                14.3532                16.6634

                     19                     20                     21
                      A                      A                      A
 Frequencies --    984.9617              1067.8332              1085.2635
 Red. masses --      2.2943                 2.1619                 1.6188
 Frc consts  --      1.3114                 1.4524                 1.1234
 IR Inten    --     11.7553                 5.3017                 7.0687

                     22                     23                     24
                      A                      A                      A
 Frequencies --   1100.5313              1113.2476              1146.2515
 Red. masses --      2.6162                 1.2686                 1.3648
 Frc consts  --      1.8669                 0.9263                 1.0566
 IR Inten    --     17.1414                 7.2555                13.0938

                     25                     26                     27
                      A                      A                      A
 Frequencies --   1178.1083              1237.6418              1267.8372
 Red. masses --      1.7392                 1.3180                 1.2282
 Frc consts  --      1.4222                 1.1894                 1.1632
 IR Inten    --     27.8941                32.8385                 0.5444

                     28                     29                     30
                      A                      A                      A
 Frequencies --   1272.9865              1343.3404              1372.8589
 Red. masses --      1.3721                 1.3766                 1.6371
 Frc consts  --      1.3101                 1.4636                 1.8179
 IR Inten    --      6.4075                 3.3177                 2.9150

                     31                     32                     33
                      A                      A                      A
 Frequencies --   1376.7015              1401.1498              1437.7728
 Red. masses --      1.4780                 2.4728                 1.3788
 Frc consts  --      1.6504                 2.8603                 1.6793
 IR Inten    --      4.2646                70.0152                16.6041

                     34                     35                     36
                      A                      A                      A
 Frequencies --   1460.2998              1471.4288              1497.7655
 Red. masses --      1.0913                 1.0858                 1.0933
 Frc consts  --      1.3712                 1.3850                 1.4451
 IR Inten    --      4.3013                 7.1818                 3.3283

                     37                     38                     39
                      A                      A                      A
 Frequencies --   1667.0731              1708.5384              1804.9110
 Red. masses --      6.7980                 6.8072                11.5796
 Frc consts  --     11.1312                11.7077                22.2256
 IR Inten    --     10.8866                63.3818               191.9269

                     40                     41                     42
                      A                      A                      A
 Frequencies --   2973.0675              2987.2365              3012.8910
 Red. masses --      1.0849                 1.0710                 1.0683
 Frc consts  --      5.6498                 5.6310                 5.7138
 IR Inten    --     59.3628                14.3252                 7.9536

                     43                     44                     45
                      A                      A                      A
 Frequencies --   3033.0300              3048.9594              3081.3686
 Red. masses --      1.0655                 1.0837                 1.1019
 Frc consts  --      5.7750                 5.9358                 6.1641
 IR Inten    --     18.3453                36.6062                31.0123

                     46                     47                     48
                      A                      A                      A
 Frequencies --   3109.2041              3125.0728              3448.9255
 Red. masses --      1.0944                 1.0883                 1.0757
 Frc consts  --      6.2333                 6.2620                 7.5389
 IR Inten    --     16.7366                20.1283                 0.2441

 - Thermochemistry -
 -------------------
 Temperature   298.150 Kelvin.  Pressure   1.00000 Atm.
 Atom     1 has atomic number  7 and mass  14.00307

 Molecular mass:   123.06841 amu.
 Principal axes and moments of inertia in atomic units:
                           1         2         3
     Eigenvalues --   622.857171321.473811869.56203
           X            0.99969  -0.02500  -0.00131
           Y            0.02501   0.99963   0.01033
           Z            0.00105  -0.01035   0.99995
 This molecule is an asymmetric top.
 Rotational symmetry number  1.
 Warning -- assumption of classical behavior for rotation
           may cause significant error
 Rotational temperatures (Kelvin)      0.13906     0.06554     0.04633
 Rotational constants (GHZ):           2.89752     1.36570     0.96533
 Zero-point vibrational energy     390588.1 (Joules/Mol)
                                   93.35279 (Kcal/Mol)
 Warning -- explicit consideration of  10 degrees of freedom as
           vibrations may cause significant error
 Vibrational temperatures:     75.60   151.33   294.47   313.51   403.22
          (Kelvin)            456.96   560.09   663.88   677.76   810.86
                              903.51   966.24  1057.20  1136.31  1253.45
                             1269.06  1295.16  1358.15  1417.14  1536.37
                             1561.45  1583.42  1601.72  1649.20  1695.04
                             1780.69  1824.13  1831.54  1932.77  1975.24
                             1980.77  2015.94  2068.63  2101.05  2117.06
                             2154.95  2398.55  2458.21  2596.86  4277.58
                             4297.97  4334.88  4363.85  4386.77  4433.40
                             4473.45  4496.28  4962.23

 Zero-point correction=                           0.148767 (Hartree/Particle)
 Thermal correction to Energy=                    0.157037
 Thermal correction to Enthalpy=                  0.157982
 Thermal correction to Gibbs Free Energy=         0.115379
 Sum of electronic and zero-point Energies=           -401.982714
 Sum of electronic and thermal Energies=              -401.974444
 Sum of electronic and thermal Enthalpies=            -401.973499
 Sum of electronic and thermal Free Energies=         -402.016102

                     E (Thermal)             CV                S
                      KCal/Mol        Cal/Mol-Kelvin    Cal/Mol-Kelvin
 Total                   98.543             30.850             89.665
 Electronic               0.000              0.000              0.000
 Translational            0.889              2.981             40.337
 Rotational               0.889              2.981             28.822
 Vibrational             96.765             24.888             20.506
 Vibration     1          0.596              1.977              4.719
 Vibration     2          0.605              1.945              3.356
 Vibration     3          0.640              1.833              2.091
 Vibration     4          0.646              1.814              1.976
 Vibration     5          0.680              1.710              1.532
 Vibration     6          0.704              1.640              1.322
 Vibration     7          0.757              1.493              1.003
 Vibration     8          0.819              1.336              0.762
 Vibration     9          0.828              1.314              0.735
 Vibration    10          0.919              1.110              0.517

 Optimization completed.
    -- Stationary point found.
 Normal termination of Gaussian 16 at Thu Aug  4 16:20:10 2022.
