 Gaussian 16, Revision A.03,
 Gaussian 16:  ES64L-G16RevA.03 25-Dec-2016

 -----------------------------
 # opt freq b3lyp/6-31g(2df,p)
 -----------------------------

 -------------------
 Title Card Required
 -------------------
 Symbolic Z-matrix:
 Charge =  0 Multiplicity = 1

 SCF Done:  E(RB3LYP) =  -436.814978213     A.U. after   14 cycles
 SCF Done:  E(RB3LYP) =  -436.820565309     A.U. after   14 cycles
 SCF Done:  E(RB3LYP) =  -436.823043119     A.U. after   14 cycles
 SCF Done:  E(RB3LYP) =  -436.824021558     A.U. after   13 cycles
 SCF Done:  E(RB3LYP) =  -436.823664172     A.U. after   14 cycles
 SCF Done:  E(RB3LYP) =  -436.824679352     A.U. after   13 cycles
 SCF Done:  E(RB3LYP) =  -436.824713631     A.U. after   10 cycles
 SCF Done:  E(RB3LYP) =  -436.824718978     A.U. after    9 cycles
 SCF Done:  E(RB3LYP) =  -436.824721317     A.U. after    8 cycles
 Optimization completed.
    -- Stationary point found.
 Normal termination of Gaussian 16 at Sun Jul  3 09:17:45 2022.

 ----------------------------------------------------------------------
 #N Geom=AllCheck Guess=TCheck SCRF=Check GenChk RB3LYP/6-31G(2df,p) Fr
 eq
 ----------------------------------------------------------------------

 Structure from the checkpoint file:  "NdCc1ccpCdOpco1.chk"
 -------------------
 Title Card Required
 -------------------
 Charge =  0 Multiplicity = 1

                         Standard orientation:
 ---------------------------------------------------------------------
 Center     Atomic      Atomic             Coordinates (Angstroms)
 Number     Number       Type             X           Y           Z
 ---------------------------------------------------------------------
      1          7           0        2.981413   -1.255734   -0.000204
      2          6           0        2.505250   -0.073134   -0.000247
      3          6           0        1.073418    0.161441    0.000632
      4          6           0       -0.025035   -0.644455    0.000290
      5          6           0       -1.163401    0.223154   -0.000235
      6          6           0       -2.579106   -0.146618   -0.000076
      7          8           0       -2.985680   -1.285845   -0.000035
      8          6           0       -0.660064    1.499833   -0.000279
      9          8           0        0.680101    1.484515    0.000294
     10          1           0        4.001674   -1.232375   -0.000571
     11          1           0        3.105683    0.845634   -0.000602
     12          1           0       -0.029527   -1.721751    0.000824
     13          1           0       -3.281836    0.715866   -0.000399
     14          1           0       -1.127628    2.472082   -0.000397
 ---------------------------------------------------------------------

 SCF Done:  E(RB3LYP) =  -436.824721317     A.U. after    1 cycles

 The electronic state is 1-A.
 Alpha  occ. eigenvalues --  -19.23606 -19.13835 -14.32823 -10.27660 -10.26914
 Alpha  occ. eigenvalues --  -10.25463 -10.24789 -10.20956 -10.20569  -1.13999
 Alpha  occ. eigenvalues --   -1.04490  -0.91472  -0.83034  -0.78430  -0.68047
 Alpha  occ. eigenvalues --   -0.64545  -0.59312  -0.56165  -0.52591  -0.50786
 Alpha  occ. eigenvalues --   -0.48286  -0.46427  -0.44467  -0.42826  -0.41703
 Alpha  occ. eigenvalues --   -0.39920  -0.39103  -0.35460  -0.29736  -0.27874
 Alpha  occ. eigenvalues --   -0.25950  -0.24624
 Alpha virt. eigenvalues --   -0.05592  -0.05353   0.06215   0.07971   0.10963
 Alpha virt. eigenvalues --    0.11032   0.11485   0.14619   0.15106   0.18322
 Alpha virt. eigenvalues --    0.19315   0.23878   0.25762   0.30636   0.33116

 Mulliken charges:
               1
     1  N   -0.398039
     2  C   -0.065136
     3  C    0.396420
     4  C   -0.391107
     5  C    0.170422
     6  C    0.073338
     7  O   -0.267205
     8  C   -0.074691
     9  O   -0.175909
    10  H    0.235504
    11  H    0.100304
    12  H    0.162656
    13  H    0.071965
    14  H    0.161478
 Sum of Mulliken charges =  -0.00000

 Dipole moment (field-independent basis, Debye):
    X=              1.7475    Y=              3.6989    Z=             -0.0007  Tot=              4.0909
 Quadrupole moment (field-independent basis, Debye-Ang):
   XX=            -48.4703   YY=            -52.0570   ZZ=            -51.0555
   XY=             -5.3623   XZ=             -0.0022   YZ=             -0.0016

  Exact polarizability: 120.103  -6.697  80.954   0.002  -0.005  33.803
 Approx polarizability: 173.753  -2.547 154.422   0.016  -0.009  54.730

                      1                      2                      3
                      A                      A                      A
 Frequencies --    125.3431               128.4461               130.8322
 Red. masses --      3.9485                 7.1975                 5.2158
 Frc consts  --      0.0365                 0.0700                 0.0526
 IR Inten    --      0.4043                 0.7933                 0.7992

                      4                      5                      6
                      A                      A                      A
 Frequencies --    204.6957               245.4937               343.4507
 Red. masses --      2.2987                 4.7501                 2.9113
 Frc consts  --      0.0567                 0.1687                 0.2023
 IR Inten    --     33.6232                23.7852                 4.4828

                      7                      8                      9
                      A                      A                      A
 Frequencies --    448.8027               540.9787               623.9384
 Red. masses --      7.8058                 7.0058                 2.6339
 Frc consts  --      0.9264                 1.2080                 0.6041
 IR Inten    --      2.3290                 1.3069                18.1202

                     10                     11                     12
                      A                      A                      A
 Frequencies --    633.1347               690.0607               784.5305
 Red. masses --      3.4888                 4.3943                 3.8126
 Frc consts  --      0.8240                 1.2329                 1.3826
 IR Inten    --      5.3644                 8.5391               103.8932

                     13                     14                     15
                      A                      A                      A
 Frequencies --    796.1489               832.4970               889.8231
 Red. masses --      1.4082                 1.6122                 1.4984
 Frc consts  --      0.5259                 0.6583                 0.6990
 IR Inten    --     18.9179                 4.9432                32.5760

                     16                     17                     18
                      A                      A                      A
 Frequencies --    954.4195              1001.6172              1034.3660
 Red. masses --      3.3753                 4.1878                 1.8003
 Frc consts  --      1.8115                 2.4754                 1.1349
 IR Inten    --     27.9300                 5.6774                 0.0160

                     19                     20                     21
                      A                      A                      A
 Frequencies --   1110.2212              1141.9376              1185.6811
 Red. masses --      1.2494                 1.5333                 1.9208
 Frc consts  --      0.9074                 1.1780                 1.5910
 IR Inten    --      5.4520                93.6601                23.9699

                     22                     23                     24
                      A                      A                      A
 Frequencies --   1206.2406              1241.7344              1292.9007
 Red. masses --      4.4068                 1.3409                 2.4058
 Frc consts  --      3.7778                 1.2181                 2.3694
 IR Inten    --     22.0849                42.6625                 2.3467

                     25                     26                     27
                      A                      A                      A
 Frequencies --   1396.4420              1419.9921              1443.6993
 Red. masses --      3.6519                 1.5436                 1.6182
 Frc consts  --      4.1958                 1.8338                 1.9872
 IR Inten    --     50.1057                14.7563                 8.6235

                     28                     29                     30
                      A                      A                      A
 Frequencies --   1558.0895              1626.8731              1703.3003
 Red. masses --      5.3179                 6.7539                 6.0731
 Frc consts  --      7.6064                10.5320                10.3811
 IR Inten    --     14.2090                47.4888               116.8753

                     31                     32                     33
                      A                      A                      A
 Frequencies --   1795.8509              2884.2610              3038.8891
 Red. masses --     10.0732                 1.0823                 1.0868
 Frc consts  --     19.1407                 5.3049                 5.9131
 IR Inten    --    252.7722               128.4769                40.7450

                     34                     35                     36
                      A                      A                      A
 Frequencies --   3267.0033              3285.2747              3475.7120
 Red. masses --      1.0974                 1.0975                 1.0759
 Frc consts  --      6.9012                 6.9791                 7.6578
 IR Inten    --      0.7982                 4.8068                 4.0472

 - Thermochemistry -
 -------------------
 Temperature   298.150 Kelvin.  Pressure   1.00000 Atm.
 Atom     1 has atomic number  7 and mass  14.00307

 Molecular mass:   123.03203 amu.
 Principal axes and moments of inertia in atomic units:
                           1         2         3
     Eigenvalues --   459.775261796.157882255.93305
           X            0.99981  -0.01944  -0.00000
           Y            0.01944   0.99981  -0.00002
           Z            0.00000   0.00002   1.00000
 This molecule is an asymmetric top.
 Rotational symmetry number  1.
 Warning -- assumption of classical behavior for rotation
           may cause significant error
 Rotational temperatures (Kelvin)      0.18838     0.04822     0.03839
 Rotational constants (GHZ):           3.92527     1.00478     0.80000
 Zero-point vibrational energy     266065.5 (Joules/Mol)
                                   63.59119 (Kcal/Mol)
 Warning -- explicit consideration of   8 degrees of freedom as
           vibrations may cause significant error
 Vibrational temperatures:    180.34   184.81   188.24   294.51   353.21
          (Kelvin)            494.15   645.73   778.35   897.71   910.94
                              992.84  1128.76  1145.48  1197.78  1280.26
                             1373.20  1441.10  1488.22  1597.36  1642.99
                             1705.93  1735.51  1786.58  1860.20  2009.17
                             2043.05  2077.16  2241.74  2340.71  2450.67
                             2583.83  4149.81  4372.28  4700.49  4726.78
                             5000.77

 Zero-point correction=                           0.101339 (Hartree/Particle)
 Thermal correction to Energy=                    0.109036
 Thermal correction to Enthalpy=                  0.109980
 Thermal correction to Gibbs Free Energy=         0.068557
 Sum of electronic and zero-point Energies=           -436.723382
 Sum of electronic and thermal Energies=              -436.715685
 Sum of electronic and thermal Enthalpies=            -436.714741
 Sum of electronic and thermal Free Energies=         -436.756164

                     E (Thermal)             CV                S
                      KCal/Mol        Cal/Mol-Kelvin    Cal/Mol-Kelvin
 Total                   68.421             27.568             87.182
 Electronic               0.000              0.000              0.000
 Translational            0.889              2.981             40.336
 Rotational               0.889              2.981             29.012
 Vibrational             66.644             21.607             17.834
 Vibration     1          0.610              1.928              3.016
 Vibration     2          0.611              1.925              2.969
 Vibration     3          0.612              1.922              2.934
 Vibration     4          0.640              1.833              2.090
 Vibration     5          0.660              1.770              1.763
 Vibration     6          0.722              1.589              1.196
 Vibration     7          0.808              1.364              0.799
 Vibration     8          0.896              1.159              0.563

 Optimization completed.
    -- Stationary point found.
 Normal termination of Gaussian 16 at Sun Jul  3 09:33:56 2022.
