 Gaussian 16, Revision A.03,
 Gaussian 16:  ES64L-G16RevA.03 25-Dec-2016

 -----------------------------
 # opt freq b3lyp/6-31g(2df,p)
 -----------------------------

 -------------------
 Title Card Required
 -------------------
 Symbolic Z-matrix:
 Charge =  0 Multiplicity = 1

 SCF Done:  E(RB3LYP) =  -342.654192264     A.U. after   21 cycles
 SCF Done:  E(RB3LYP) =  -342.706676579     A.U. after   16 cycles
 SCF Done:  E(RB3LYP) =  -342.766268264     A.U. after   15 cycles
 SCF Done:  E(RB3LYP) =  -342.790382172     A.U. after   15 cycles
 SCF Done:  E(RB3LYP) =  -342.799982536     A.U. after   14 cycles
 SCF Done:  E(RB3LYP) =  -342.809333284     A.U. after   15 cycles
 SCF Done:  E(RB3LYP) =  -342.811523546     A.U. after   13 cycles
 SCF Done:  E(RB3LYP) =  -342.812808019     A.U. after   13 cycles
 SCF Done:  E(RB3LYP) =  -342.813384416     A.U. after   13 cycles
 SCF Done:  E(RB3LYP) =  -342.814672022     A.U. after   15 cycles
 SCF Done:  E(RB3LYP) =  -342.815594830     A.U. after   14 cycles
 SCF Done:  E(RB3LYP) =  -342.817255168     A.U. after   14 cycles
 SCF Done:  E(RB3LYP) =  -342.817668056     A.U. after   13 cycles
 SCF Done:  E(RB3LYP) =  -342.817765763     A.U. after   12 cycles
 SCF Done:  E(RB3LYP) =  -342.817781568     A.U. after   11 cycles
 SCF Done:  E(RB3LYP) =  -342.817786124     A.U. after   10 cycles
 SCF Done:  E(RB3LYP) =  -342.817787068     A.U. after    9 cycles
 SCF Done:  E(RB3LYP) =  -342.817787275     A.U. after    8 cycles
 Optimization completed.
    -- Stationary point found.
 Normal termination of Gaussian 16 at Thu Aug  4 04:19:03 2022.

 ----------------------------------------------------------------------
 #N Geom=AllCheck Guess=TCheck SCRF=Check GenChk RB3LYP/6-31G(2df,p) Fr
 eq
 ----------------------------------------------------------------------

 Structure from the checkpoint file:  "NdCC1dC2CNCC12.chk"
 -------------------
 Title Card Required
 -------------------
 Charge =  0 Multiplicity = 1

                         Standard orientation:
 ---------------------------------------------------------------------
 Center     Atomic      Atomic             Coordinates (Angstroms)
 Number     Number       Type             X           Y           Z
 ---------------------------------------------------------------------
      1          7           0        2.892747    0.442322    0.257414
      2          6           0        2.081038   -0.513793    0.036493
      3          6           0        0.626736   -0.279892   -0.064742
      4          6           0       -0.273493   -1.325383   -0.338586
      5          6           0       -1.711499   -1.073859   -0.048530
      6          7           0       -2.085411    0.225795    0.546766
      7          6           0       -1.359824    1.266196   -0.168771
      8          6           0        0.098728    0.970142   -0.320170
      9          1           0        3.854375    0.099736    0.289895
     10          1           0        2.371543   -1.564458   -0.089384
     11          1           0       -2.069058   -1.890993    0.592694
     12          1           0       -2.269271   -1.209972   -0.989960
     13          1           0       -1.757862    0.229609    1.509891
     14          1           0       -1.471424    2.222556    0.359988
     15          1           0       -1.825570    1.425850   -1.156405
     16          1           0        0.745794    1.750386   -0.720151
 ---------------------------------------------------------------------

 SCF Done:  E(RB3LYP) =  -342.817787275     A.U. after    1 cycles

 The electronic state is 1-A.
 Alpha  occ. eigenvalues --  -14.32346 -14.31651 -10.22749 -10.22707 -10.22318
 Alpha  occ. eigenvalues --  -10.21698 -10.19985 -10.19523  -0.92768  -0.90120
 Alpha  occ. eigenvalues --   -0.80541  -0.75543  -0.67223  -0.61829  -0.59736
 Alpha  occ. eigenvalues --   -0.52046  -0.49986  -0.47955  -0.45061  -0.44519
 Alpha  occ. eigenvalues --   -0.41173  -0.40034  -0.38475  -0.36837  -0.34756
 Alpha  occ. eigenvalues --   -0.27040  -0.26501  -0.25159  -0.19428
 Alpha virt. eigenvalues --   -0.08159  -0.03005   0.07581   0.08803   0.10254
 Alpha virt. eigenvalues --    0.12105   0.13638   0.15086   0.15651   0.17437
 Alpha virt. eigenvalues --    0.18106   0.19267   0.23095   0.24133   0.27635

 Mulliken charges:
               1
     1  N   -0.403018
     2  C   -0.048008
     3  C    0.241527
     4  C   -0.175915
     5  C   -0.219905
     6  N   -0.290928
     7  C   -0.216915
     8  C   -0.102720
     9  H    0.229005
    10  H    0.094252
    11  H    0.140415
    12  H    0.139969
    13  H    0.219717
    14  H    0.132185
    15  H    0.128546
    16  H    0.131793
 Sum of Mulliken charges =   0.00000

 Dipole moment (field-independent basis, Debye):
    X=             -0.2249    Y=              0.5417    Z=              0.4264  Tot=              0.7251
 Quadrupole moment (field-independent basis, Debye-Ang):
   XX=            -47.4459   YY=            -48.3783   ZZ=            -46.1020
   XY=             -3.0231   XZ=             -0.0139   YZ=             -3.1961

  Exact polarizability: 100.322   4.863  89.728   3.629  -1.155  49.792
 Approx polarizability: 139.362  17.558 186.035   7.803  -2.369  81.823

                      1                      2                      3
                      A                      A                      A
 Frequencies --    102.4005               177.5473               202.8643
 Red. masses --      4.2420                 2.3723                 3.4878
 Frc consts  --      0.0262                 0.0441                 0.0846
 IR Inten    --      5.1435                 4.1078                12.2091

                      4                      5                      6
                      A                      A                      A
 Frequencies --    246.4700               305.5163               355.0316
 Red. masses --      2.4663                 1.5214                 3.1263
 Frc consts  --      0.0883                 0.0837                 0.2322
 IR Inten    --     16.0812                22.7715                24.1037

                      7                      8                      9
                      A                      A                      A
 Frequencies --    451.9036               542.5046               591.2021
 Red. masses --      3.3701                 3.9491                 5.8174
 Frc consts  --      0.4055                 0.6848                 1.1980
 IR Inten    --     11.8747                13.8281                16.6298

                     10                     11                     12
                      A                      A                      A
 Frequencies --    720.0275               776.8522               806.3145
 Red. masses --      2.2893                 1.5565                 2.3738
 Frc consts  --      0.6993                 0.5535                 0.9093
 IR Inten    --     29.9238                10.7974                72.8515

                     13                     14                     15
                      A                      A                      A
 Frequencies --    829.7265               859.4081               884.7712
 Red. masses --      1.5989                 3.0539                 1.9621
 Frc consts  --      0.6485                 1.3289                 0.9050
 IR Inten    --     19.9191                15.6986                52.1495

                     16                     17                     18
                      A                      A                      A
 Frequencies --    945.5904               994.4377              1045.5200
 Red. masses --      2.8405                 2.5072                 3.3579
 Frc consts  --      1.4964                 1.4608                 2.1626
 IR Inten    --     15.6817                 7.0191                15.6738

                     19                     20                     21
                      A                      A                      A
 Frequencies --   1062.5488              1119.1463              1125.7494
 Red. masses --      1.8065                 3.6316                 1.2674
 Frc consts  --      1.2017                 2.6799                 0.9463
 IR Inten    --     22.0900                44.4719                 6.6055

                     22                     23                     24
                      A                      A                      A
 Frequencies --   1180.9041              1194.0075              1264.2601
 Red. masses --      1.0965                 1.1762                 1.6832
 Frc consts  --      0.9009                 0.9880                 1.5851
 IR Inten    --      1.7813                28.6431                 6.4218

                     25                     26                     27
                      A                      A                      A
 Frequencies --   1294.5696              1308.1527              1348.2146
 Red. masses --      1.3477                 1.2626                 1.5436
 Frc consts  --      1.3307                 1.2731                 1.6531
 IR Inten    --      1.9626                 5.8829                 3.1654

                     28                     29                     30
                      A                      A                      A
 Frequencies --   1366.0596              1401.8817              1431.2861
 Red. masses --      1.6943                 1.3058                 1.9444
 Frc consts  --      1.8629                 1.5119                 2.3469
 IR Inten    --     48.6984                 5.9275                17.0954

                     31                     32                     33
                      A                      A                      A
 Frequencies --   1445.2471              1478.2402              1535.6478
 Red. masses --      1.1228                 1.1595                 4.5958
 Frc consts  --      1.3818                 1.4928                 6.3855
 IR Inten    --     13.6426                 4.1331                 5.0511

                     34                     35                     36
                      A                      A                      A
 Frequencies --   1701.0613              2964.1380              2988.0387
 Red. masses --      6.6547                 1.0715                 1.0698
 Frc consts  --     11.3454                 5.5469                 5.6278
 IR Inten    --     79.4368                29.6884                15.7061

                     37                     38                     39
                      A                      A                      A
 Frequencies --   3038.2340              3043.1361              3044.0152
 Red. masses --      1.0867                 1.0881                 1.0878
 Frc consts  --      5.9102                 5.9372                 5.9389
 IR Inten    --      8.8588                40.1821                 1.3059

                     40                     41                     42
                      A                      A                      A
 Frequencies --   3142.9548              3461.0326              3489.3901
 Red. masses --      1.0878                 1.0757                 1.0734
 Frc consts  --      6.3308                 7.5923                 7.7002
 IR Inten    --      2.7331                 0.0862                 0.0362

 - Thermochemistry -
 -------------------
 Temperature   298.150 Kelvin.  Pressure   1.00000 Atm.
 Atom     1 has atomic number  7 and mass  14.00307

 Molecular mass:   108.06875 amu.
 Principal axes and moments of inertia in atomic units:
                           1         2         3
     Eigenvalues --   373.547251236.627021511.19125
           X            0.99998  -0.00681   0.00110
           Y            0.00683   0.99978  -0.01963
           Z           -0.00097   0.01964   0.99981
 This molecule is an asymmetric top.
 Rotational symmetry number  1.
 Rotational temperatures (Kelvin)      0.23187     0.07004     0.05731
 Rotational constants (GHZ):           4.83136     1.45941     1.19425
 Zero-point vibrational energy     342526.8 (Joules/Mol)
                                   81.86586 (Kcal/Mol)
 Warning -- explicit consideration of   9 degrees of freedom as
           vibrations may cause significant error
 Vibrational temperatures:    147.33   255.45   291.88   354.62   439.57
          (Kelvin)            510.81   650.19   780.54   850.61  1035.96
                             1117.72  1160.11  1193.79  1236.50  1272.99
                             1360.49  1430.77  1504.27  1528.77  1610.20
                             1619.70  1699.06  1717.91  1818.99  1862.60
                             1882.14  1939.78  1965.46  2017.00  2059.30
                             2079.39  2126.86  2209.45  2447.45  4264.73
                             4299.12  4371.34  4378.39  4379.66  4522.01
                             4979.65  5020.45

 Zero-point correction=                           0.130462 (Hartree/Particle)
 Thermal correction to Energy=                    0.137825
 Thermal correction to Enthalpy=                  0.138769
 Thermal correction to Gibbs Free Energy=         0.098889
 Sum of electronic and zero-point Energies=           -342.687326
 Sum of electronic and thermal Energies=              -342.679962
 Sum of electronic and thermal Enthalpies=            -342.679018
 Sum of electronic and thermal Free Energies=         -342.718898

                     E (Thermal)             CV                S
                      KCal/Mol        Cal/Mol-Kelvin    Cal/Mol-Kelvin
 Total                   86.486             27.576             83.934
 Electronic               0.000              0.000              0.000
 Translational            0.889              2.981             39.949
 Rotational               0.889              2.981             28.036
 Vibrational             84.709             21.615             15.948
 Vibration     1          0.604              1.947              3.408
 Vibration     2          0.628              1.870              2.354
 Vibration     3          0.639              1.836              2.107
 Vibration     4          0.661              1.769              1.756
 Vibration     5          0.696              1.663              1.387
 Vibration     6          0.731              1.565              1.144
 Vibration     7          0.811              1.357              0.790
 Vibration     8          0.898              1.156              0.560
 Vibration     9          0.949              1.051              0.465

                           ! Non-Optimized Parameters !
 Normal termination of Gaussian 16 at Thu Aug  4 04:38:37 2022.
