 Gaussian 16, Revision A.03,
 Gaussian 16:  ES64L-G16RevA.03 25-Dec-2016

 -----------------------------
 # opt freq b3lyp/6-31g(2df,p)
 -----------------------------

 -------------------
 Title Card Required
 -------------------
 Symbolic Z-matrix:
 Charge =  0 Multiplicity = 1

 SCF Done:  E(RB3LYP) =  -383.370827611     A.U. after   13 cycles
 SCF Done:  E(RB3LYP) =  -383.389776858     A.U. after   12 cycles
 SCF Done:  E(RB3LYP) =  -383.396651453     A.U. after   12 cycles
 SCF Done:  E(RB3LYP) =  -383.397977681     A.U. after   12 cycles
 SCF Done:  E(RB3LYP) =  -383.398491036     A.U. after   12 cycles
 SCF Done:  E(RB3LYP) =  -383.398931209     A.U. after   12 cycles
 SCF Done:  E(RB3LYP) =  -383.399515607     A.U. after   15 cycles
 SCF Done:  E(RB3LYP) =  -383.399838207     A.U. after   13 cycles
 SCF Done:  E(RB3LYP) =  -383.400181157     A.U. after   12 cycles
 SCF Done:  E(RB3LYP) =  -383.400353567     A.U. after   12 cycles
 SCF Done:  E(RB3LYP) =  -383.400352130     A.U. after   11 cycles
 SCF Done:  E(RB3LYP) =  -383.400372410     A.U. after   10 cycles
 SCF Done:  E(RB3LYP) =  -383.400373173     A.U. after    7 cycles
 SCF Done:  E(RB3LYP) =  -383.400373441     A.U. after    8 cycles
 SCF Done:  E(RB3LYP) =  -383.400373524     A.U. after    7 cycles
 Optimization completed.
    -- Stationary point found.
 Normal termination of Gaussian 16 at Sun Jul  3 18:55:25 2022.

 ----------------------------------------------------------------------
 #N Geom=AllCheck Guess=TCheck SCRF=Check GenChk RB3LYP/6-31G(2df,p) Fr
 eq
 ----------------------------------------------------------------------

 Structure from the checkpoint file:  "NdCC1CCN2CC2C1.chk"
 -------------------
 Title Card Required
 -------------------
 Charge =  0 Multiplicity = 1

                         Standard orientation:
 ---------------------------------------------------------------------
 Center     Atomic      Atomic             Coordinates (Angstroms)
 Number     Number       Type             X           Y           Z
 ---------------------------------------------------------------------
      1          7           0        3.354374   -0.238008    0.324014
      2          6           0        2.300840   -0.109743   -0.372834
      3          6           0        0.935214   -0.020274    0.249991
      4          6           0        0.286294    1.360728   -0.118394
      5          6           0       -1.239942    1.486577    0.165695
      6          7           0       -1.732717    0.254990   -0.399160
      7          6           0       -2.713281   -0.753413   -0.085188
      8          6           0       -1.285871   -0.875519    0.373991
      9          6           0        0.073018   -1.283633   -0.133483
     10          1           0        4.180988   -0.290769   -0.276013
     11          1           0        2.303883   -0.062365   -1.474232
     12          1           0        1.083588   -0.055174    1.335068
     13          1           0        0.421893    1.531519   -1.192981
     14          1           0        0.840373    2.148217    0.404157
     15          1           0       -1.642039    2.367091   -0.348168
     16          1           0       -1.447834    1.593638    1.245602
     17          1           0       -3.107478   -1.274133   -0.955034
     18          1           0       -3.438647   -0.609696    0.720242
     19          1           0       -1.243519   -0.686245    1.457000
     20          1           0        0.055465   -1.441399   -1.215938
     21          1           0        0.504104   -2.167892    0.347660
 ---------------------------------------------------------------------

 SCF Done:  E(RB3LYP) =  -383.400373524     A.U. after    1 cycles

 The electronic state is 1-A.
 Alpha  occ. eigenvalues --  -14.31704 -14.31226 -10.22471 -10.22235 -10.21402
 Alpha  occ. eigenvalues --  -10.20776 -10.19292 -10.18833 -10.18738  -0.97234
 Alpha  occ. eigenvalues --   -0.89788  -0.79966  -0.76481  -0.68253  -0.63445
 Alpha  occ. eigenvalues --   -0.59464  -0.56814  -0.55312  -0.50364  -0.48554
 Alpha  occ. eigenvalues --   -0.47002  -0.44508  -0.43420  -0.41068  -0.39122
 Alpha  occ. eigenvalues --   -0.38249  -0.36273  -0.34741  -0.33022  -0.31443
 Alpha  occ. eigenvalues --   -0.30660  -0.27099  -0.25629  -0.22644
 Alpha virt. eigenvalues --    0.00154   0.09157   0.09873   0.10413   0.11608
 Alpha virt. eigenvalues --    0.12410   0.12839   0.13919   0.15272   0.16354
 Alpha virt. eigenvalues --    0.17017   0.17650   0.18398   0.19276   0.20276

 Mulliken charges:
               1
     1  N   -0.387396
     2  C    0.011147
     3  C    0.021678
     4  C   -0.192075
     5  C   -0.184650
     6  N   -0.053056
     7  C   -0.288210
     8  C    0.036423
     9  C   -0.255807
    10  H    0.222316
    11  H    0.082277
    12  H    0.090740
    13  H    0.105369
    14  H    0.104008
    15  H    0.099767
    16  H    0.084341
    17  H    0.119256
    18  H    0.105162
    19  H    0.073691
    20  H    0.103578
    21  H    0.101440
 Sum of Mulliken charges =  -0.00000

 Dipole moment (field-independent basis, Debye):
    X=             -0.9367    Y=              0.2384    Z=             -0.8828  Tot=              1.3090
 Quadrupole moment (field-independent basis, Debye-Ang):
   XX=            -55.3551   YY=            -54.3509   ZZ=            -55.5487
   XY=              0.6450   XZ=             -7.1400   YZ=              0.9739

  Exact polarizability: 112.570   0.245  77.158   1.436   0.260  72.238
 Approx polarizability: 145.475  -0.750 112.177   8.893  -2.714 119.840

                      1                      2                      3
                      A                      A                      A
 Frequencies --     72.4828               103.2991               217.7124
 Red. masses --      4.3213                 3.2557                 2.2531
 Frc consts  --      0.0134                 0.0205                 0.0629
 IR Inten    --      4.2147                 2.4553                 2.7808

                      4                      5                      6
                      A                      A                      A
 Frequencies --    291.1912               318.5774               332.9096
 Red. masses --      2.0250                 2.6655                 2.7307
 Frc consts  --      0.1012                 0.1594                 0.1783
 IR Inten    --     10.1398                 5.9368                 4.2549

                      7                      8                      9
                      A                      A                      A
 Frequencies --    387.3056               413.4928               483.0959
 Red. masses --      3.0085                 2.9642                 2.2600
 Frc consts  --      0.2659                 0.2986                 0.3108
 IR Inten    --      3.7644                 4.4304                 7.4364

                     10                     11                     12
                      A                      A                      A
 Frequencies --    509.1598               561.9574               753.1435
 Red. masses --      3.5810                 2.5455                 2.5828
 Frc consts  --      0.5470                 0.4736                 0.8632
 IR Inten    --      2.9348                14.6939                 4.1553

                     13                     14                     15
                      A                      A                      A
 Frequencies --    777.9241               820.5957               855.3698
 Red. masses --      1.7220                 2.1990                 2.1038
 Frc consts  --      0.6140                 0.8725                 0.9069
 IR Inten    --     33.2656                 4.1588                 5.8824

                     16                     17                     18
                      A                      A                      A
 Frequencies --    864.9503               904.5458               940.3415
 Red. masses --      2.3897                 3.1931                 2.4687
 Frc consts  --      1.0534                 1.5393                 1.2861
 IR Inten    --      7.9175                 0.6064                 7.1001

                     19                     20                     21
                      A                      A                      A
 Frequencies --    979.1678              1009.1587              1048.4761
 Red. masses --      1.5593                 1.4868                 1.7175
 Frc consts  --      0.8808                 0.8921                 1.1124
 IR Inten    --      6.1706                 0.6977                19.8813

                     22                     23                     24
                      A                      A                      A
 Frequencies --   1062.2536              1087.5279              1120.1228
 Red. masses --      2.7164                 1.8291                 1.5626
 Frc consts  --      1.8059                 1.2746                 1.1551
 IR Inten    --     12.4658                13.2762                 8.8615

                     25                     26                     27
                      A                      A                      A
 Frequencies --   1126.5292              1133.8170              1157.6980
 Red. masses --      1.2475                 1.3429                 1.2620
 Frc consts  --      0.9328                 1.0172                 0.9965
 IR Inten    --      9.3029                 7.1924                 7.4011

                     28                     29                     30
                      A                      A                      A
 Frequencies --   1170.4060              1206.3246              1241.5057
 Red. masses --      1.5651                 1.5307                 1.3918
 Frc consts  --      1.2632                 1.3124                 1.2640
 IR Inten    --     15.6458                 7.1062                 3.7935

                     31                     32                     33
                      A                      A                      A
 Frequencies --   1248.6847              1278.0558              1288.4230
 Red. masses --      1.4332                 1.3263                 1.3348
 Frc consts  --      1.3167                 1.2764                 1.3056
 IR Inten    --      7.4265                 7.3916                18.3009

                     34                     35                     36
                      A                      A                      A
 Frequencies --   1309.4237              1347.5264              1352.3078
 Red. masses --      1.3424                 1.4339                 1.2774
 Frc consts  --      1.3561                 1.5341                 1.3763
 IR Inten    --      3.2560                22.9325                 9.3775

                     37                     38                     39
                      A                      A                      A
 Frequencies --   1365.9651              1375.9536              1422.0466
 Red. masses --      1.7812                 1.3109                 1.4898
 Frc consts  --      1.9582                 1.4623                 1.7751
 IR Inten    --     18.5813                 3.6471                17.2937

                     40                     41                     42
                      A                      A                      A
 Frequencies --   1470.4313              1474.7058              1484.8619
 Red. masses --      1.3350                 1.1081                 1.1461
 Frc consts  --      1.7006                 1.4198                 1.4889
 IR Inten    --      8.2647                 1.2644                 4.5068

                     43                     44                     45
                      A                      A                      A
 Frequencies --   1501.8310              1521.1764              1729.3882
 Red. masses --      1.1723                 1.3131                 6.6899
 Frc consts  --      1.5579                 1.7903                11.7884
 IR Inten    --     12.0892                 4.3374                88.3605

                     46                     47                     48
                      A                      A                      A
 Frequencies --   2938.6148              2979.5834              2979.7374
 Red. masses --      1.0699                 1.0843                 1.0812
 Frc consts  --      5.4435                 5.6715                 5.6560
 IR Inten    --     68.6700                63.1617                20.8535

                     49                     50                     51
                      A                      A                      A
 Frequencies --   3030.8161              3043.1992              3047.1300
 Red. masses --      1.0622                 1.0594                 1.0838
 Frc consts  --      5.7488                 5.7807                 5.9291
 IR Inten    --     14.4401                39.2700                 8.1645

                     52                     53                     54
                      A                      A                      A
 Frequencies --   3053.1617              3056.3263              3080.4910
 Red. masses --      1.0631                 1.0817                 1.1029
 Frc consts  --      5.8390                 5.9536                 6.1662
 IR Inten    --     77.5863                44.4757                29.6497

                     55                     56                     57
                      A                      A                      A
 Frequencies --   3099.8094              3156.5125              3437.5421
 Red. masses --      1.1049                 1.1111                 1.0755
 Frc consts  --      6.2552                 6.5228                 7.4880
 IR Inten    --     34.6518                23.3907                 2.7945

 - Thermochemistry -
 -------------------
 Temperature   298.150 Kelvin.  Pressure   1.00000 Atm.
 Atom     1 has atomic number  7 and mass  14.00307

 Molecular mass:   124.10005 amu.
 Principal axes and moments of inertia in atomic units:
                           1         2         3
     Eigenvalues --   471.583741698.938602020.17284
           X            0.99991   0.00183  -0.01307
           Y           -0.00167   0.99993   0.01181
           Z            0.01309  -0.01179   0.99984
 This molecule is an asymmetric top.
 Rotational symmetry number  1.
 Warning -- assumption of classical behavior for rotation
           may cause significant error
 Rotational temperatures (Kelvin)      0.18367     0.05098     0.04287
 Rotational constants (GHZ):           3.82698     1.06228     0.89336
 Zero-point vibrational energy     484635.6 (Joules/Mol)
                                  115.83069 (Kcal/Mol)
 Warning -- explicit consideration of  11 degrees of freedom as
           vibrations may cause significant error
 Vibrational temperatures:    104.29   148.62   313.24   418.96   458.36
          (Kelvin)            478.98   557.25   594.92   695.07   732.57
                              808.53  1083.61  1119.26  1180.65  1230.69
                             1244.47  1301.44  1352.94  1408.80  1451.95
                             1508.52  1528.35  1564.71  1611.61  1620.82
                             1631.31  1665.67  1683.95  1735.63  1786.25
                             1796.58  1838.84  1853.75  1883.97  1938.79
                             1945.67  1965.32  1979.69  2046.01  2115.62
                             2121.77  2136.39  2160.80  2188.63  2488.20
                             4228.01  4286.96  4287.18  4360.67  4378.48
                             4384.14  4392.82  4397.37  4432.14  4459.93
                             4541.52  4945.86

 Zero-point correction=                           0.184588 (Hartree/Particle)
 Thermal correction to Energy=                    0.192826
 Thermal correction to Enthalpy=                  0.193770
 Thermal correction to Gibbs Free Energy=         0.151588
 Sum of electronic and zero-point Energies=           -383.215786
 Sum of electronic and thermal Energies=              -383.207547
 Sum of electronic and thermal Enthalpies=            -383.206603
 Sum of electronic and thermal Free Energies=         -383.248786

                     E (Thermal)             CV                S
                      KCal/Mol        Cal/Mol-Kelvin    Cal/Mol-Kelvin
 Total                  121.000             32.236             88.781
 Electronic               0.000              0.000              0.000
 Translational            0.889              2.981             40.362
 Rotational               0.889              2.981             28.872
 Vibrational            119.223             26.275             19.547
 Vibration     1          0.599              1.967              4.085
 Vibration     2          0.605              1.947              3.391
 Vibration     3          0.646              1.814              1.978
 Vibration     4          0.687              1.690              1.467
 Vibration     5          0.705              1.638              1.317
 Vibration     6          0.715              1.610              1.246
 Vibration     7          0.756              1.497              1.011
 Vibration     8          0.777              1.441              0.914
 Vibration     9          0.839              1.288              0.702
 Vibration    10          0.864              1.230              0.636
 Vibration    11          0.918              1.114              0.520

 Optimization completed.
    -- Stationary point found.
 Normal termination of Gaussian 16 at Sun Jul  3 19:31:15 2022.
