 Gaussian 16, Revision A.03,
 Gaussian 16:  ES64L-G16RevA.03 25-Dec-2016

 -----------------------------
 # opt freq b3lyp/6-31g(2df,p)
 -----------------------------

 -------------------
 Title Card Required
 -------------------
 Symbolic Z-matrix:
 Charge =  0 Multiplicity = 1

 SCF Done:  E(RB3LYP) =  -343.923646239     A.U. after   14 cycles
 SCF Done:  E(RB3LYP) =  -343.958872276     A.U. after   12 cycles
 SCF Done:  E(RB3LYP) =  -343.999089841     A.U. after   13 cycles
 SCF Done:  E(RB3LYP) =  -344.004579871     A.U. after   12 cycles
 SCF Done:  E(RB3LYP) =  -344.007032829     A.U. after   13 cycles
 SCF Done:  E(RB3LYP) =  -344.007870107     A.U. after   12 cycles
 SCF Done:  E(RB3LYP) =  -344.007933612     A.U. after   13 cycles
 SCF Done:  E(RB3LYP) =  -344.008131149     A.U. after   11 cycles
 SCF Done:  E(RB3LYP) =  -344.008156522     A.U. after   10 cycles
 SCF Done:  E(RB3LYP) =  -344.008162649     A.U. after    8 cycles
 SCF Done:  E(RB3LYP) =  -344.008164768     A.U. after    8 cycles
 Optimization completed.
    -- Stationary point found.
 Normal termination of Gaussian 16 at Thu Aug  4 07:14:49 2022.

 ----------------------------------------------------------------------
 #N Geom=AllCheck Guess=TCheck SCRF=Check GenChk RB3LYP/6-31G(2df,p) Fr
 eq
 ----------------------------------------------------------------------

 Structure from the checkpoint file:  "NdCC1CC2CNC12.chk"
 -------------------
 Title Card Required
 -------------------
 Charge =  0 Multiplicity = 1

                         Standard orientation:
 ---------------------------------------------------------------------
 Center     Atomic      Atomic             Coordinates (Angstroms)
 Number     Number       Type             X           Y           Z
 ---------------------------------------------------------------------
      1          7           0        3.026795   -0.572880   -0.006342
      2          6           0        1.832678   -0.327057   -0.367115
      3          6           0        0.867445    0.316371    0.572779
      4          6           0        0.109223    1.612798   -0.040009
      5          6           0       -0.995466    0.596811   -0.499127
      6          6           0       -2.402627   -0.081704   -0.345145
      7          7           0       -1.690166   -1.293009    0.293503
      8          6           0       -0.612980   -0.250572    0.644369
      9          1           0        3.549864   -1.014474   -0.766092
     10          1           0        1.451268   -0.567688   -1.370044
     11          1           0        1.366915    0.462560    1.531879
     12          1           0        0.641256    2.176780   -0.809755
     13          1           0       -0.189979    2.282635    0.768596
     14          1           0       -0.588997    0.133949   -1.407561
     15          1           0       -2.975168   -0.310822   -1.247655
     16          1           0       -3.049422    0.376397    0.406891
     17          1           0       -1.351195   -1.858877   -0.486706
     18          1           0       -1.000593    0.180875    1.575806
 ---------------------------------------------------------------------

 SCF Done:  E(RB3LYP) =  -344.008164768     A.U. after    1 cycles

 The electronic state is 1-A.
 Alpha  occ. eigenvalues --  -14.32396 -14.31800 -10.23302 -10.22354 -10.21134
 Alpha  occ. eigenvalues --  -10.20925 -10.20884 -10.18871  -0.93405  -0.90238
 Alpha  occ. eigenvalues --   -0.82154  -0.69749  -0.65195  -0.64345  -0.59770
 Alpha  occ. eigenvalues --   -0.54192  -0.51422  -0.47072  -0.44587  -0.44109
 Alpha  occ. eigenvalues --   -0.41120  -0.39879  -0.37149  -0.36961  -0.35611
 Alpha  occ. eigenvalues --   -0.32666  -0.29979  -0.27951  -0.25698  -0.22272
 Alpha virt. eigenvalues --   -0.00837   0.06311   0.07119   0.08150   0.09844
 Alpha virt. eigenvalues --    0.10781   0.13136   0.14122   0.14786   0.15559
 Alpha virt. eigenvalues --    0.17943   0.18842   0.19651   0.20425   0.23221

 Mulliken charges:
               1
     1  N   -0.395000
     2  C    0.053125
     3  C   -0.099193
     4  C   -0.312446
     5  C    0.042946
     6  C   -0.248054
     7  N   -0.373136
     8  C    0.067507
     9  H    0.224030
    10  H    0.083171
    11  H    0.096546
    12  H    0.111982
    13  H    0.122503
    14  H    0.081033
    15  H    0.107897
    16  H    0.123481
    17  H    0.213453
    18  H    0.100157
 Sum of Mulliken charges =  -0.00000

 Dipole moment (field-independent basis, Debye):
    X=             -0.6339    Y=              0.9201    Z=             -2.2926  Tot=              2.5503
 Quadrupole moment (field-independent basis, Debye-Ang):
   XX=            -54.2736   YY=            -49.3841   ZZ=            -46.8698
   XY=             -3.0302   XZ=             -2.6508   YZ=              4.7436

  Exact polarizability:  99.771  -1.286  65.911   1.687   4.679  64.182
 Approx polarizability: 137.409  -1.309 100.095   5.276   5.417 102.224

                      1                      2                      3
                      A                      A                      A
 Frequencies --     82.3969               160.5215               220.8285
 Red. masses --      4.3601                 2.9990                 2.4646
 Frc consts  --      0.0174                 0.0455                 0.0708
 IR Inten    --      5.4308                 3.5630                 4.7163

                      4                      5                      6
                      A                      A                      A
 Frequencies --    341.6363               356.0489               377.6864
 Red. masses --      2.1148                 2.3723                 3.3898
 Frc consts  --      0.1454                 0.1772                 0.2849
 IR Inten    --     11.9673                 5.1760                 2.0822

                      7                      8                      9
                      A                      A                      A
 Frequencies --    427.1194               550.4685               660.2979
 Red. masses --      4.6147                 2.6623                 2.5520
 Frc consts  --      0.4960                 0.4753                 0.6556
 IR Inten    --     12.7045                 8.0933                 5.8607

                     10                     11                     12
                      A                      A                      A
 Frequencies --    736.5170               770.6228               827.8010
 Red. masses --      3.6302                 3.3063                 1.6673
 Frc consts  --      1.1602                 1.1569                 0.6732
 IR Inten    --     13.8226                 3.9585                13.3060

                     13                     14                     15
                      A                      A                      A
 Frequencies --    834.8960               866.4758               920.0410
 Red. masses --      2.3369                 3.5585                 1.7955
 Frc consts  --      0.9597                 1.5741                 0.8955
 IR Inten    --     78.2034                 9.4811                 6.0438

                     16                     17                     18
                      A                      A                      A
 Frequencies --    942.4800               986.6030               999.0925
 Red. masses --      1.7206                 2.3814                 1.6132
 Frc consts  --      0.9005                 1.3657                 0.9487
 IR Inten    --     12.1910                25.2325                12.5250

                     19                     20                     21
                      A                      A                      A
 Frequencies --   1057.7063              1104.1298              1108.4397
 Red. masses --      1.3339                 1.8999                 1.5102
 Frc consts  --      0.8792                 1.3646                 1.0933
 IR Inten    --      6.1043                 8.7812                14.3938

                     22                     23                     24
                      A                      A                      A
 Frequencies --   1120.2632              1126.8775              1140.9220
 Red. masses --      1.9771                 1.5224                 1.3335
 Frc consts  --      1.4619                 1.1390                 1.0227
 IR Inten    --      9.1723                 3.6811                32.6163

                     25                     26                     27
                      A                      A                      A
 Frequencies --   1200.4817              1216.8703              1226.9193
 Red. masses --      1.3021                 1.6387                 1.3262
 Frc consts  --      1.1056                 1.4297                 1.1763
 IR Inten    --      8.4743                16.9102                 1.5424

                     28                     29                     30
                      A                      A                      A
 Frequencies --   1242.6354              1262.8269              1302.7714
 Red. masses --      1.2384                 1.5117                 1.3637
 Frc consts  --      1.1267                 1.4204                 1.3637
 IR Inten    --      1.3161                 5.9382                 5.5947

                     31                     32                     33
                      A                      A                      A
 Frequencies --   1322.9591              1336.0302              1405.6235
 Red. masses --      1.2915                 1.4238                 1.2109
 Frc consts  --      1.3318                 1.4974                 1.4096
 IR Inten    --      4.8419                 1.3711                 5.7445

                     34                     35                     36
                      A                      A                      A
 Frequencies --   1439.1141              1450.7227              1481.8830
 Red. masses --      1.2958                 1.2003                 1.1123
 Frc consts  --      1.5812                 1.4883                 1.4392
 IR Inten    --     11.1422                25.3646                 0.7202

                     37                     38                     39
                      A                      A                      A
 Frequencies --   1497.0258              1721.4656              2998.8097
 Red. masses --      1.1102                 6.4870                 1.0834
 Frc consts  --      1.4660                11.3263                 5.7403
 IR Inten    --      1.1938                72.9134                15.7937

                     40                     41                     42
                      A                      A                      A
 Frequencies --   3012.0880              3022.8160              3058.8256
 Red. masses --      1.0823                 1.0836                 1.0559
 Frc consts  --      5.7851                 5.8336                 5.8206
 IR Inten    --      9.2464                60.8664                65.6625

                     43                     44                     45
                      A                      A                      A
 Frequencies --   3066.8914              3103.8959              3124.7030
 Red. masses --      1.0574                 1.0879                 1.1123
 Frc consts  --      5.8596                 6.1751                 6.3989
 IR Inten    --     36.6331                19.7454                21.2065

                     46                     47                     48
                      A                      A                      A
 Frequencies --   3133.9525              3440.6037              3442.6378
 Red. masses --      1.1093                 1.0756                 1.0739
 Frc consts  --      6.4194                 7.5022                 7.4986
 IR Inten    --     27.5745                 1.4975                 1.9820

 - Thermochemistry -
 -------------------
 Temperature   298.150 Kelvin.  Pressure   1.00000 Atm.
 Atom     1 has atomic number  7 and mass  14.00307

 Molecular mass:   110.08440 amu.
 Principal axes and moments of inertia in atomic units:
                           1         2         3
     Eigenvalues --   395.979481323.148651515.80733
           X            0.99999  -0.00297  -0.00290
           Y            0.00317   0.99758   0.06951
           Z            0.00269  -0.06952   0.99758
 This molecule is an asymmetric top.
 Rotational symmetry number  1.
 Rotational temperatures (Kelvin)      0.21873     0.06546     0.05714
 Rotational constants (GHZ):           4.55766     1.36397     1.19061
 Zero-point vibrational energy     408120.5 (Joules/Mol)
                                   97.54315 (Kcal/Mol)
 Warning -- explicit consideration of   8 degrees of freedom as
           vibrations may cause significant error
 Vibrational temperatures:    118.55   230.95   317.72   491.54   512.27
          (Kelvin)            543.41   614.53   792.00   950.02  1059.68
                             1108.75  1191.02  1201.23  1246.67  1323.73
                             1356.02  1419.50  1437.47  1521.80  1588.60
                             1594.80  1611.81  1621.33  1641.53  1727.23
                             1750.80  1765.26  1787.88  1816.93  1874.40
                             1903.44  1922.25  2022.38  2070.56  2087.27
                             2132.10  2153.89  2476.81  4314.62  4333.72
                             4349.16  4400.97  4412.57  4465.81  4495.75
                             4509.06  4950.26  4953.19

 Zero-point correction=                           0.155445 (Hartree/Particle)
 Thermal correction to Energy=                    0.162701
 Thermal correction to Enthalpy=                  0.163645
 Thermal correction to Gibbs Free Energy=         0.123820
 Sum of electronic and zero-point Energies=           -343.852720
 Sum of electronic and thermal Energies=              -343.845464
 Sum of electronic and thermal Enthalpies=            -343.844519
 Sum of electronic and thermal Free Energies=         -343.884344

                     E (Thermal)             CV                S
                      KCal/Mol        Cal/Mol-Kelvin    Cal/Mol-Kelvin
 Total                  102.097             28.109             83.819
 Electronic               0.000              0.000              0.000
 Translational            0.889              2.981             40.004
 Rotational               0.889              2.981             28.165
 Vibrational            100.319             22.148             15.650
 Vibration     1          0.600              1.961              3.833
 Vibration     2          0.622              1.891              2.544
 Vibration     3          0.648              1.809              1.952
 Vibration     4          0.721              1.592              1.204
 Vibration     5          0.732              1.563              1.139
 Vibration     6          0.748              1.518              1.048
 Vibration     7          0.789              1.411              0.868
 Vibration     8          0.906              1.139              0.543

                           ! Non-Optimized Parameters !
 Normal termination of Gaussian 16 at Thu Aug  4 07:39:48 2022.
