 Gaussian 16, Revision A.03,
 Gaussian 16:  ES64L-G16RevA.03 25-Dec-2016

 -----------------------------
 # opt freq b3lyp/6-31g(2df,p)
 -----------------------------

 -------------------
 Title Card Required
 -------------------
 Symbolic Z-matrix:
 Charge =  0 Multiplicity = 1

 SCF Done:  E(RB3LYP) =  -402.078466190     A.U. after   14 cycles
 SCF Done:  E(RB3LYP) =  -402.087413097     A.U. after   13 cycles
 SCF Done:  E(RB3LYP) =  -402.091298531     A.U. after   13 cycles
 SCF Done:  E(RB3LYP) =  -402.093027824     A.U. after   12 cycles
 SCF Done:  E(RB3LYP) =  -402.093538769     A.U. after   13 cycles
 SCF Done:  E(RB3LYP) =  -402.093768427     A.U. after   12 cycles
 SCF Done:  E(RB3LYP) =  -402.093839950     A.U. after   12 cycles
 SCF Done:  E(RB3LYP) =  -402.093854095     A.U. after   10 cycles
 SCF Done:  E(RB3LYP) =  -402.093864241     A.U. after   10 cycles
 SCF Done:  E(RB3LYP) =  -402.093866811     A.U. after    9 cycles
 SCF Done:  E(RB3LYP) =  -402.093867273     A.U. after    8 cycles
 SCF Done:  E(RB3LYP) =  -402.093867397     A.U. after    8 cycles
 Optimization completed.
    -- Stationary point found.
 Normal termination of Gaussian 16 at Thu Aug  4 00:29:06 2022.

 ----------------------------------------------------------------------
 #N Geom=AllCheck Guess=TCheck SCRF=Check GenChk RB3LYP/6-31G(2df,p) Fr
 eq
 ----------------------------------------------------------------------

 Structure from the checkpoint file:  "NdCC1dCCdCCOC1.chk"
 -------------------
 Title Card Required
 -------------------
 Charge =  0 Multiplicity = 1

                         Standard orientation:
 ---------------------------------------------------------------------
 Center     Atomic      Atomic             Coordinates (Angstroms)
 Number     Number       Type             X           Y           Z
 ---------------------------------------------------------------------
      1          7           0       -3.208608    0.402246   -0.156789
      2          6           0       -2.290540   -0.469544    0.008128
      3          6           0       -0.864068   -0.128688    0.123614
      4          6           0       -0.439495    1.141777   -0.045937
      5          6           0        0.920116    1.632012    0.066634
      6          6           0        2.073188    0.939759    0.083433
      7          6           0        2.305767   -0.527341   -0.123903
      8          8           0        1.191953   -1.305501   -0.479598
      9          6           0        0.103209   -1.243852    0.435633
     10          1           0       -4.123342   -0.045068   -0.221945
     11          1           0       -2.503491   -1.546828    0.077421
     12          1           0       -1.205842    1.884471   -0.252445
     13          1           0        1.002695    2.712533    0.162886
     14          1           0        2.996458    1.500001    0.226171
     15          1           0        2.812373   -0.935778    0.771504
     16          1           0        3.016803   -0.653445   -0.952186
     17          1           0        0.484016   -1.139440    1.464146
     18          1           0       -0.404096   -2.212899    0.373149
 ---------------------------------------------------------------------

 SCF Done:  E(RB3LYP) =  -402.093867397     A.U. after    1 cycles

 The electronic state is 1-A.
 Alpha  occ. eigenvalues --  -19.14398 -14.31023 -10.24006 -10.23530 -10.22730
 Alpha  occ. eigenvalues --  -10.19820 -10.19254 -10.19136 -10.18935  -1.03845
 Alpha  occ. eigenvalues --   -0.89743  -0.81367  -0.78857  -0.69564  -0.68789
 Alpha  occ. eigenvalues --   -0.61418  -0.56315  -0.52802  -0.50015  -0.49442
 Alpha  occ. eigenvalues --   -0.46612  -0.45699  -0.43473  -0.42976  -0.38813
 Alpha  occ. eigenvalues --   -0.37207  -0.35677  -0.35026  -0.32090  -0.29653
 Alpha  occ. eigenvalues --   -0.26750  -0.25726  -0.21881
 Alpha virt. eigenvalues --   -0.06336   0.03097   0.08086   0.09386   0.10067
 Alpha virt. eigenvalues --    0.12091   0.13804   0.14703   0.15791   0.15958
 Alpha virt. eigenvalues --    0.16956   0.18850   0.21288   0.23133   0.25933

 Mulliken charges:
               1
     1  N   -0.406591
     2  C   -0.038429
     3  C    0.253960
     4  C   -0.138550
     5  C   -0.066332
     6  C   -0.085593
     7  C   -0.134614
     8  O   -0.231891
     9  C   -0.215941
    10  H    0.225515
    11  H    0.075723
    12  H    0.122797
    13  H    0.095988
    14  H    0.099573
    15  H    0.100442
    16  H    0.127904
    17  H    0.108263
    18  H    0.107777
 Sum of Mulliken charges =  -0.00000

 Dipole moment (field-independent basis, Debye):
    X=              1.1932    Y=             -0.7702    Z=              1.0559  Tot=              1.7697
 Quadrupole moment (field-independent basis, Debye-Ang):
   XX=            -47.3693   YY=            -51.9766   ZZ=            -54.7631
   XY=              6.8856   XZ=              0.6395   YZ=             -1.4909

  Exact polarizability: 138.407   6.815  85.629   2.519  -2.772  47.251
 Approx polarizability: 216.299  11.099 136.480   3.803  -4.080  76.636

                      1                      2                      3
                      A                      A                      A
 Frequencies --     66.0216               127.8641               185.8827
 Red. masses --      3.5827                 2.3844                 2.7495
 Frc consts  --      0.0092                 0.0230                 0.0560
 IR Inten    --      2.6318                13.6336                 8.5128

                      4                      5                      6
                      A                      A                      A
 Frequencies --    225.0134               286.9751               341.4537
 Red. masses --      3.5597                 4.5265                 5.5109
 Frc consts  --      0.1062                 0.2196                 0.3786
 IR Inten    --      4.9347                 4.5872                 0.2194

                      7                      8                      9
                      A                      A                      A
 Frequencies --    375.2661               437.4494               518.0749
 Red. masses --      2.2303                 3.0306                 3.1771
 Frc consts  --      0.1850                 0.3417                 0.5024
 IR Inten    --      5.6330                 7.1632                 3.8358

                     10                     11                     12
                      A                      A                      A
 Frequencies --    541.8090               678.9389               723.2474
 Red. masses --      3.2237                 3.4650                 1.3024
 Frc consts  --      0.5576                 0.9410                 0.4014
 IR Inten    --     11.6712                48.9065                21.1940

                     13                     14                     15
                      A                      A                      A
 Frequencies --    780.0826               822.8522               848.0121
 Red. masses --      1.9347                 2.6838                 3.7744
 Frc consts  --      0.6937                 1.0706                 1.5992
 IR Inten    --     36.0336                20.0574                 1.1349

                     16                     17                     18
                      A                      A                      A
 Frequencies --    909.3583               961.3434               977.2903
 Red. masses --      4.1709                 3.5188                 1.4951
 Frc consts  --      2.0321                 1.9160                 0.8413
 IR Inten    --      3.9829                 9.0551                13.4890

                     19                     20                     21
                      A                      A                      A
 Frequencies --    997.1977              1014.6826              1041.0152
 Red. masses --      1.8020                 1.2781                 1.9570
 Frc consts  --      1.0557                 0.7753                 1.2495
 IR Inten    --     11.5297                 0.9650                10.4651

                     22                     23                     24
                      A                      A                      A
 Frequencies --   1071.1604              1106.9507              1135.3370
 Red. masses --      2.1781                 1.2879                 2.5968
 Frc consts  --      1.4724                 0.9298                 1.9721
 IR Inten    --      5.2994                 6.2951                 5.5172

                     25                     26                     27
                      A                      A                      A
 Frequencies --   1186.7501              1242.7892              1251.0111
 Red. masses --      2.2913                 1.4125                 1.0532
 Frc consts  --      1.9013                 1.2854                 0.9711
 IR Inten    --    115.3063                30.4762                 0.3724

                     28                     29                     30
                      A                      A                      A
 Frequencies --   1281.2589              1328.1523              1370.1435
 Red. masses --      1.2264                 1.1713                 1.3064
 Frc consts  --      1.1861                 1.2173                 1.4450
 IR Inten    --      8.3478                 3.7525                11.9242

                     31                     32                     33
                      A                      A                      A
 Frequencies --   1394.7531              1418.3141              1434.2030
 Red. masses --      1.4307                 1.4368                 1.5078
 Frc consts  --      1.6398                 1.7029                 1.8273
 IR Inten    --      2.9632                 4.2943                24.7399

                     34                     35                     36
                      A                      A                      A
 Frequencies --   1446.9649              1471.1421              1483.5262
 Red. masses --      1.5754                 1.0925                 1.0953
 Frc consts  --      1.9433                 1.3931                 1.4203
 IR Inten    --      5.1300                 6.6206                 4.5808

                     37                     38                     39
                      A                      A                      A
 Frequencies --   1633.0030              1689.2177              1707.8927
 Red. masses --      7.2750                 6.3690                 5.7202
 Frc consts  --     11.4303                10.7076                 9.8307
 IR Inten    --    152.2374                 5.1825                28.3473

                     40                     41                     42
                      A                      A                      A
 Frequencies --   2920.3881              2976.8657              2999.2890
 Red. masses --      1.0731                 1.0673                 1.0854
 Frc consts  --      5.3924                 5.5728                 5.7530
 IR Inten    --     61.6982                35.6238                67.0797

                     43                     44                     45
                      A                      A                      A
 Frequencies --   3028.5089              3062.4676              3130.4539
 Red. masses --      1.0845                 1.0940                 1.0831
 Frc consts  --      5.8607                 6.0450                 6.2537
 IR Inten    --     19.2608                35.1582                 3.0771

                     46                     47                     48
                      A                      A                      A
 Frequencies --   3152.2631              3172.2178              3471.0637
 Red. masses --      1.0911                 1.0893                 1.0759
 Frc consts  --      6.3880                 6.4584                 7.6371
 IR Inten    --     27.3894                 5.2688                 0.9936

 - Thermochemistry -
 -------------------
 Temperature   298.150 Kelvin.  Pressure   1.00000 Atm.
 Atom     1 has atomic number  7 and mass  14.00307

 Molecular mass:   123.06841 amu.
 Principal axes and moments of inertia in atomic units:
                           1         2         3
     Eigenvalues --   522.962131536.029251982.07008
           X            0.99985   0.01665   0.00402
           Y           -0.01657   0.99968  -0.01891
           Z           -0.00433   0.01884   0.99981
 This molecule is an asymmetric top.
 Rotational symmetry number  1.
 Warning -- assumption of classical behavior for rotation
           may cause significant error
 Rotational temperatures (Kelvin)      0.16562     0.05639     0.04370
 Rotational constants (GHZ):           3.45100     1.17494     0.91053
 Zero-point vibrational energy     391333.9 (Joules/Mol)
                                   93.53105 (Kcal/Mol)
 Warning -- explicit consideration of  10 degrees of freedom as
           vibrations may cause significant error
 Vibrational temperatures:     94.99   183.97   267.44   323.74   412.89
          (Kelvin)            491.28   539.92   629.39   745.39   779.54
                              976.84  1040.59  1122.36  1183.90  1220.10
                             1308.36  1383.16  1406.10  1434.75  1459.90
                             1497.79  1541.16  1592.66  1633.50  1707.47
                             1788.10  1799.93  1843.45  1910.91  1971.33
                             2006.74  2040.64  2063.50  2081.86  2116.65
                             2134.46  2349.53  2430.41  2457.28  4201.79
                             4283.05  4315.31  4357.35  4406.21  4504.03
                             4535.40  4564.11  4994.09

 Zero-point correction=                           0.149051 (Hartree/Particle)
 Thermal correction to Energy=                    0.157177
 Thermal correction to Enthalpy=                  0.158121
 Thermal correction to Gibbs Free Energy=         0.115988
 Sum of electronic and zero-point Energies=           -401.944816
 Sum of electronic and thermal Energies=              -401.936691
 Sum of electronic and thermal Enthalpies=            -401.935746
 Sum of electronic and thermal Free Energies=         -401.977879

                     E (Thermal)             CV                S
                      KCal/Mol        Cal/Mol-Kelvin    Cal/Mol-Kelvin
 Total                   98.630             30.487             88.676
 Electronic               0.000              0.000              0.000
 Translational            0.889              2.981             40.337
 Rotational               0.889              2.981             28.856
 Vibrational             96.852             24.525             19.483
 Vibration     1          0.597              1.970              4.269
 Vibration     2          0.611              1.925              2.978
 Vibration     3          0.632              1.859              2.268
 Vibration     4          0.650              1.803              1.918
 Vibration     5          0.684              1.698              1.492
 Vibration     6          0.721              1.593              1.205
 Vibration     7          0.746              1.523              1.058
 Vibration     8          0.798              1.389              0.835
 Vibration     9          0.873              1.210              0.614
 Vibration    10          0.897              1.158              0.561

 Optimization completed.
    -- Stationary point found.
 Normal termination of Gaussian 16 at Thu Aug  4 01:02:40 2022.
