 Gaussian 16, Revision A.03,
 Gaussian 16:  ES64L-G16RevA.03 25-Dec-2016

 -----------------------------
 # opt freq b3lyp/6-31g(2df,p)
 -----------------------------

 -------------------
 Title Card Required
 -------------------
 Symbolic Z-matrix:
 Charge =  0 Multiplicity = 1

 SCF Done:  E(RB3LYP) =  -362.535220429     A.U. after   14 cycles
 SCF Done:  E(RB3LYP) =  -362.587775028     A.U. after   12 cycles
 SCF Done:  E(RB3LYP) =  -362.631530391     A.U. after   12 cycles
 SCF Done:  E(RB3LYP) =  -362.653899640     A.U. after   12 cycles
 SCF Done:  E(RB3LYP) =  -362.677961104     A.U. after   12 cycles
 SCF Done:  E(RB3LYP) =  -362.684396882     A.U. after   12 cycles
 SCF Done:  E(RB3LYP) =  -362.690249618     A.U. after   13 cycles
 SCF Done:  E(RB3LYP) =  -362.691549399     A.U. after   12 cycles
 SCF Done:  E(RB3LYP) =  -362.692335980     A.U. after   12 cycles
 SCF Done:  E(RB3LYP) =  -362.692592604     A.U. after   12 cycles
 SCF Done:  E(RB3LYP) =  -362.692663185     A.U. after   10 cycles
 SCF Done:  E(RB3LYP) =  -362.692706748     A.U. after   10 cycles
 SCF Done:  E(RB3LYP) =  -362.692754371     A.U. after   11 cycles
 SCF Done:  E(RB3LYP) =  -362.692767974     A.U. after   10 cycles
 SCF Done:  E(RB3LYP) =  -362.692776707     A.U. after    9 cycles
 SCF Done:  E(RB3LYP) =  -362.692777730     A.U. after    7 cycles
 SCF Done:  E(RB3LYP) =  -362.692777963     A.U. after    7 cycles
 Optimization completed.
    -- Stationary point found.
 Normal termination of Gaussian 16 at Thu Aug  4 06:53:57 2022.

 ----------------------------------------------------------------------
 #N Geom=AllCheck Guess=TCheck SCRF=Check GenChk RB3LYP/6-31G(2df,p) Fr
 eq
 ----------------------------------------------------------------------

 Structure from the checkpoint file:  "NdCC12C3CpOpC1C32.chk"
 -------------------
 Title Card Required
 -------------------
 Charge =  0 Multiplicity = 1

                         Standard orientation:
 ---------------------------------------------------------------------
 Center     Atomic      Atomic             Coordinates (Angstroms)
 Number     Number       Type             X           Y           Z
 ---------------------------------------------------------------------
      1          7           0       -2.601444   -0.803748   -0.336543
      2          6           0       -1.874963   -0.122344    0.459975
      3          6           0       -0.515525    0.252487    0.136431
      4          6           0        0.451553    0.251122   -1.039158
      5          6           0        1.657938   -0.064657   -0.119022
      6          8           0        1.964936   -1.395901    0.163265
      7          6           0        0.755346    0.732001    0.860373
      8          6           0        0.133850    1.514615   -0.263682
      9          1           0       -3.529181   -0.945654    0.066523
     10          1           0       -2.212834    0.231890    1.445452
     11          1           0        0.225037    0.027077   -2.073353
     12          1           0        2.597181    0.428642   -0.387371
     13          1           0        1.134520   -1.853283    0.345497
     14          1           0        0.854175    1.017864    1.900721
     15          1           0       -0.227465    2.507563   -0.457298
 ---------------------------------------------------------------------

 SCF Done:  E(RB3LYP) =  -362.692777963     A.U. after    1 cycles

 The electronic state is 1-A.
 Alpha  occ. eigenvalues --  -19.13813 -14.31095 -10.24277 -10.23775 -10.21599
 Alpha  occ. eigenvalues --  -10.21362 -10.21300 -10.20947  -1.02927  -0.96593
 Alpha  occ. eigenvalues --   -0.89548  -0.70340  -0.66442  -0.65116  -0.58509
 Alpha  occ. eigenvalues --   -0.53523  -0.51635  -0.50129  -0.46138  -0.44749
 Alpha  occ. eigenvalues --   -0.42284  -0.37551  -0.36674  -0.34968  -0.32883
 Alpha  occ. eigenvalues --   -0.29032  -0.26406  -0.26231  -0.24159
 Alpha virt. eigenvalues --   -0.00634   0.08362   0.08587   0.11667   0.12556
 Alpha virt. eigenvalues --    0.12763   0.13831   0.14873   0.15204   0.16707
 Alpha virt. eigenvalues --    0.17438   0.21429   0.22351   0.23624   0.24913

 Mulliken charges:
               1
     1  N   -0.414458
     2  C   -0.145477
     3  C    0.350747
     4  C   -0.205240
     5  C    0.163862
     6  O   -0.437707
     7  C   -0.209565
     8  C   -0.139333
     9  H    0.224432
    10  H    0.086496
    11  H    0.112243
    12  H    0.092905
    13  H    0.287792
    14  H    0.100157
    15  H    0.133146
 Sum of Mulliken charges =  -0.00000

 Dipole moment (field-independent basis, Debye):
    X=             -1.0495    Y=              1.8832    Z=              1.4872  Tot=              2.6191
 Quadrupole moment (field-independent basis, Debye-Ang):
   XX=            -48.5840   YY=            -45.4111   ZZ=            -44.6825
   XY=              1.4381   XZ=             -4.3544   YZ=             -1.2365

  Exact polarizability:  85.719   9.664  62.264  -0.148   2.987  59.109
 Approx polarizability: 121.774  19.726 102.483   4.139   6.832  94.978

                      1                      2                      3
                      A                      A                      A
 Frequencies --     82.2689               156.6132               200.4198
 Red. masses --      5.4375                 3.3451                 3.0242
 Frc consts  --      0.0217                 0.0483                 0.0716
 IR Inten    --      4.0588                 4.6283                 7.8911

                      4                      5                      6
                      A                      A                      A
 Frequencies --    301.7626               345.0574               435.8658
 Red. masses --      2.7109                 1.5857                 1.8389
 Frc consts  --      0.1454                 0.1112                 0.2058
 IR Inten    --     19.8470                27.1218                51.0851

                      7                      8                      9
                      A                      A                      A
 Frequencies --    480.0025               617.8136               654.6567
 Red. masses --      4.5422                 4.3735                 3.2546
 Frc consts  --      0.6166                 0.9835                 0.8218
 IR Inten    --      9.8232                 1.2987                27.0234

                     10                     11                     12
                      A                      A                      A
 Frequencies --    748.3545               774.9762               809.4163
 Red. masses --      4.4451                 1.3443                 2.6497
 Frc consts  --      1.4667                 0.4757                 1.0228
 IR Inten    --      1.7819                30.4015                10.5479

                     13                     14                     15
                      A                      A                      A
 Frequencies --    857.0729               866.1325               877.8037
 Red. masses --      1.4838                 1.9170                 1.6533
 Frc consts  --      0.6422                 0.8473                 0.7506
 IR Inten    --     20.8048                11.3865                14.1868

                     16                     17                     18
                      A                      A                      A
 Frequencies --    923.3721               968.8776              1012.5836
 Red. masses --      2.1497                 1.7056                 1.4976
 Frc consts  --      1.0799                 0.9433                 0.9047
 IR Inten    --      4.5156                25.9948                11.5691

                     19                     20                     21
                      A                      A                      A
 Frequencies --   1038.6938              1099.7881              1108.3454
 Red. masses --      2.1988                 1.3799                 3.0358
 Frc consts  --      1.3977                 0.9834                 2.1972
 IR Inten    --     39.3406                46.2121                65.3736

                     22                     23                     24
                      A                      A                      A
 Frequencies --   1130.6194              1149.3435              1177.8782
 Red. masses --      2.2613                 1.4499                 2.3621
 Frc consts  --      1.7031                 1.1284                 1.9309
 IR Inten    --      5.8873                 2.2902                56.7821

                     25                     26                     27
                      A                      A                      A
 Frequencies --   1223.8582              1245.3745              1284.5285
 Red. masses --      1.3741                 1.9367                 1.6368
 Frc consts  --      1.2126                 1.7698                 1.5912
 IR Inten    --     37.2420                32.8219                 9.7440

                     28                     29                     30
                      A                      A                      A
 Frequencies --   1296.7242              1408.6028              1437.0635
 Red. masses --      1.6119                 1.4612                 1.2978
 Frc consts  --      1.5969                 1.7082                 1.5790
 IR Inten    --     10.3881                29.0682               114.4712

                     31                     32                     33
                      A                      A                      A
 Frequencies --   1516.7189              1705.6703              2997.9320
 Red. masses --      6.7118                 6.2387                 1.0849
 Frc consts  --      9.0970                10.6939                 5.7452
 IR Inten    --     18.3381               203.2729                58.0387

                     34                     35                     36
                      A                      A                      A
 Frequencies --   3074.5437              3197.3331              3214.5490
 Red. masses --      1.0864                 1.0941                 1.0945
 Frc consts  --      6.0504                 6.5898                 6.6635
 IR Inten    --     52.8971                11.7111                 5.5165

                     37                     38                     39
                      A                      A                      A
 Frequencies --   3298.8981              3458.4994              3778.0652
 Red. masses --      1.1019                 1.0754                 1.0650
 Frc consts  --      7.0653                 7.5790                 8.9565
 IR Inten    --      0.8252                 0.0168                10.2808

 - Thermochemistry -
 -------------------
 Temperature   298.150 Kelvin.  Pressure   1.00000 Atm.
 Atom     1 has atomic number  7 and mass  14.00307

 Molecular mass:   109.05276 amu.
 Principal axes and moments of inertia in atomic units:
                           1         2         3
     Eigenvalues --   449.996131103.468981281.02283
           X            0.99986   0.01147  -0.01189
           Y           -0.01143   0.99993   0.00362
           Z            0.01193  -0.00348   0.99992
 This molecule is an asymmetric top.
 Rotational symmetry number  1.
 Warning -- assumption of classical behavior for rotation
           may cause significant error
 Rotational temperatures (Kelvin)      0.19248     0.07849     0.06761
 Rotational constants (GHZ):           4.01057     1.63552     1.40883
 Zero-point vibrational energy     310766.4 (Joules/Mol)
                                   74.27494 (Kcal/Mol)
 Warning -- explicit consideration of   8 degrees of freedom as
           vibrations may cause significant error
 Vibrational temperatures:    118.37   225.33   288.36   434.17   496.46
          (Kelvin)            627.11   690.62   888.90   941.90  1076.72
                             1115.02  1164.57  1233.14  1246.17  1262.96
                             1328.53  1394.00  1456.88  1494.45  1582.35
                             1594.66  1626.71  1653.65  1694.70  1760.86
                             1791.82  1848.15  1865.70  2026.67  2067.61
                             2182.22  2454.08  4313.36  4423.58  4600.25
                             4625.02  4746.38  4976.01  5435.79

 Zero-point correction=                           0.118365 (Hartree/Particle)
 Thermal correction to Energy=                    0.125521
 Thermal correction to Enthalpy=                  0.126466
 Thermal correction to Gibbs Free Energy=         0.086830
 Sum of electronic and zero-point Energies=           -362.574413
 Sum of electronic and thermal Energies=              -362.567257
 Sum of electronic and thermal Enthalpies=            -362.566312
 Sum of electronic and thermal Free Energies=         -362.605948

                     E (Thermal)             CV                S
                      KCal/Mol        Cal/Mol-Kelvin    Cal/Mol-Kelvin
 Total                   78.766             27.046             83.419
 Electronic               0.000              0.000              0.000
 Translational            0.889              2.981             39.976
 Rotational               0.889              2.981             27.944
 Vibrational             76.988             21.084             15.499
 Vibration     1          0.600              1.961              3.836
 Vibration     2          0.620              1.895              2.590
 Vibration     3          0.638              1.839              2.129
 Vibration     4          0.694              1.670              1.407
 Vibration     5          0.723              1.585              1.189
 Vibration     6          0.796              1.392              0.840
 Vibration     7          0.836              1.294              0.710
 Vibration     8          0.978              0.994              0.420

 Optimization completed.
    -- Stationary point found.
 Normal termination of Gaussian 16 at Thu Aug  4 07:17:41 2022.
