 Gaussian 16, Revision A.03,
 Gaussian 16:  ES64L-G16RevA.03 25-Dec-2016

 -----------------------------
 # opt freq b3lyp/6-31g(2df,p)
 -----------------------------

 -------------------
 Title Card Required
 -------------------
 Symbolic Z-matrix:
 Charge =  0 Multiplicity = 1

 SCF Done:  E(RB3LYP) =  -391.080593646     A.U. after   14 cycles
 SCF Done:  E(RB3LYP) =  -391.087193508     A.U. after   13 cycles
 SCF Done:  E(RB3LYP) =  -391.088965619     A.U. after   13 cycles
 SCF Done:  E(RB3LYP) =  -391.089885616     A.U. after   12 cycles
 SCF Done:  E(RB3LYP) =  -391.090678594     A.U. after   13 cycles
 SCF Done:  E(RB3LYP) =  -391.090848378     A.U. after   12 cycles
 SCF Done:  E(RB3LYP) =  -391.090919983     A.U. after   11 cycles
 SCF Done:  E(RB3LYP) =  -391.090942114     A.U. after   10 cycles
 SCF Done:  E(RB3LYP) =  -391.090951978     A.U. after   10 cycles
 SCF Done:  E(RB3LYP) =  -391.090955967     A.U. after    8 cycles
 SCF Done:  E(RB3LYP) =  -391.090960442     A.U. after    9 cycles
 SCF Done:  E(RB3LYP) =  -391.090961785     A.U. after    8 cycles
 Optimization completed.
    -- Stationary point found.
 Normal termination of Gaussian 16 at Thu Aug  4 11:09:46 2022.

 ----------------------------------------------------------------------
 #N Geom=AllCheck Guess=TCheck SCRF=Check GenChk RB3LYP/6-31G(2df,p) Fr
 eq
 ----------------------------------------------------------------------

 Structure from the checkpoint file:  "NdCNc1nc[nH]n1.chk"
 -------------------
 Title Card Required
 -------------------
 Charge =  0 Multiplicity = 1

                         Standard orientation:
 ---------------------------------------------------------------------
 Center     Atomic      Atomic             Coordinates (Angstroms)
 Number     Number       Type             X           Y           Z
 ---------------------------------------------------------------------
      1          7           0        3.301868   -0.066664   -0.000294
      2          6           0        2.096355    0.343154    0.000132
      3          7           0        1.053565   -0.555091   -0.000015
      4          6           0       -0.280441   -0.223466    0.000102
      5          7           0       -0.723828    1.067704    0.000090
      6          6           0       -2.035666    0.916087   -0.000060
      7          7           0       -2.353658   -0.386674   -0.000312
      8          7           0       -1.226115   -1.154114    0.000108
      9          1           0        3.939273    0.726378    0.000197
     10          1           0        1.751652    1.379692    0.000802
     11          1           0        1.290179   -1.536664    0.000413
     12          1           0       -2.768391    1.708945   -0.000333
     13          1           0       -3.257030   -0.829124    0.000834
 ---------------------------------------------------------------------

 SCF Done:  E(RB3LYP) =  -391.090961785     A.U. after    1 cycles

 The electronic state is 1-A.
 Alpha  occ. eigenvalues --  -14.41961 -14.36405 -14.35012 -14.32745 -14.29230
 Alpha  occ. eigenvalues --  -10.27354 -10.26294 -10.24940  -1.08215  -0.97005
 Alpha  occ. eigenvalues --   -0.89963  -0.87142  -0.81863  -0.66060  -0.64859
 Alpha  occ. eigenvalues --   -0.60220  -0.56962  -0.51684  -0.47504  -0.47487
 Alpha  occ. eigenvalues --   -0.44816  -0.44051  -0.39298  -0.34074  -0.30742
 Alpha  occ. eigenvalues --   -0.29070  -0.28785  -0.25976  -0.21687
 Alpha virt. eigenvalues --    0.00365   0.01912   0.07017   0.09103   0.10809
 Alpha virt. eigenvalues --    0.11368   0.12171   0.17545   0.18387   0.22620
 Alpha virt. eigenvalues --    0.23610   0.29525   0.31062   0.33418   0.35220

 Mulliken charges:
               1
     1  N   -0.480175
     2  C    0.090759
     3  N   -0.365992
     4  C    0.486089
     5  N   -0.322725
     6  C    0.027254
     7  N   -0.179425
     8  N   -0.321593
     9  H    0.225554
    10  H    0.133517
    11  H    0.268748
    12  H    0.152162
    13  H    0.285828
 Sum of Mulliken charges =   0.00000

 Dipole moment (field-independent basis, Debye):
    X=             -4.0116    Y=              1.0513    Z=              0.0032  Tot=              4.1470
 Quadrupole moment (field-independent basis, Debye-Ang):
   XX=            -36.2595   YY=            -45.5699   ZZ=            -46.9960
   XY=              3.1606   XZ=              0.0013   YZ=             -0.0024

  Exact polarizability: 105.269   0.690  58.997  -0.001   0.001  30.410
 Approx polarizability: 152.771   3.959 103.029  -0.001   0.006  48.563

                      1                      2                      3
                      A                      A                      A
 Frequencies --     82.3136               148.6796               171.2690
 Red. masses --      5.7856                 2.2888                 4.8477
 Frc consts  --      0.0231                 0.0298                 0.0838
 IR Inten    --      3.8376                 9.8547                 1.1630

                      4                      5                      6
                      A                      A                      A
 Frequencies --    329.6904               452.8771               481.4456
 Red. masses --      7.0947                 6.6398                 4.7806
 Frc consts  --      0.4544                 0.8024                 0.6529
 IR Inten    --      8.0488                22.0968                33.9464

                      7                      8                      9
                      A                      A                      A
 Frequencies --    493.7183               597.9659               663.9289
 Red. masses --      1.5311                 1.1701                 2.0798
 Frc consts  --      0.2199                 0.2465                 0.5402
 IR Inten    --     75.7400               134.9314                 3.5482

                     10                     11                     12
                      A                      A                      A
 Frequencies --    773.2440               810.9745               838.6963
 Red. masses --      8.2492                 1.3941                 4.5097
 Frc consts  --      2.9060                 0.5402                 1.8690
 IR Inten    --      5.6729                33.4005                21.4387

                     13                     14                     15
                      A                      A                      A
 Frequencies --    853.3652               995.4536              1002.4519
 Red. masses --      1.3597                 7.5755                 4.4928
 Frc consts  --      0.5834                 4.4228                 2.6601
 IR Inten    --     12.9218                11.2665                20.0612

                     16                     17                     18
                      A                      A                      A
 Frequencies --   1075.7308              1094.3671              1127.0000
 Red. masses --      1.2876                 2.9085                 1.4097
 Frc consts  --      0.8779                 2.0523                 1.0549
 IR Inten    --      0.2526                16.0881               140.3177

                     19                     20                     21
                      A                      A                      A
 Frequencies --   1177.0931              1303.2007              1314.4672
 Red. masses --      1.8237                 2.0171                 2.0758
 Frc consts  --      1.4887                 2.0184                 2.1131
 IR Inten    --      9.2183                 2.0381                78.1524

                     22                     23                     24
                      A                      A                      A
 Frequencies --   1348.5612              1392.1212              1430.4529
 Red. masses --      2.3915                 1.6956                 2.3107
 Frc consts  --      2.5625                 1.9361                 2.7858
 IR Inten    --     20.0166                 0.7122               122.5472

                     25                     26                     27
                      A                      A                      A
 Frequencies --   1482.4063              1534.6940              1633.1317
 Red. masses --      2.6676                 4.2273                 7.2606
 Frc consts  --      3.4539                 5.8662                11.4095
 IR Inten    --     23.3815                30.9982               335.3252

                     28                     29                     30
                      A                      A                      A
 Frequencies --   1736.1880              3111.5656              3259.8397
 Red. masses --      4.6601                 1.0900                 1.0983
 Frc consts  --      8.2763                 6.2177                 6.8762
 IR Inten    --    506.0293                 8.8998                 1.7601

                     31                     32                     33
                      A                      A                      A
 Frequencies --   3516.5084              3623.6119              3677.5344
 Red. masses --      1.0760                 1.0756                 1.0823
 Frc consts  --      7.8393                 8.3214                 8.6238
 IR Inten    --      5.1705                45.5143                99.6835

 - Thermochemistry -
 -------------------
 Temperature   298.150 Kelvin.  Pressure   1.00000 Atm.
 Atom     1 has atomic number  7 and mass  14.00307

 Molecular mass:   111.05450 amu.
 Principal axes and moments of inertia in atomic units:
                           1         2         3
     Eigenvalues --   220.019371486.987771707.00710
           X            0.99999   0.00357   0.00000
           Y           -0.00357   0.99999  -0.00001
           Z           -0.00000   0.00001   1.00000
 This molecule is an asymmetric top.
 Rotational symmetry number  1.
 Rotational temperatures (Kelvin)      0.39366     0.05825     0.05074
 Rotational constants (GHZ):           8.20265     1.21369     1.05725
 Zero-point vibrational energy     260394.4 (Joules/Mol)
                                   62.23576 (Kcal/Mol)
 Warning -- explicit consideration of   8 degrees of freedom as
           vibrations may cause significant error
 Vibrational temperatures:    118.43   213.92   246.42   474.35   651.59
          (Kelvin)            692.69   710.35   860.34   955.25  1112.53
                             1166.81  1206.70  1227.80  1432.24  1442.30
                             1547.74  1574.55  1621.50  1693.57  1875.02
                             1891.23  1940.28  2002.95  2058.10  2132.85
                             2208.08  2349.71  2497.99  4476.85  4690.18
                             5059.47  5213.57  5291.15

 Zero-point correction=                           0.099179 (Hartree/Particle)
 Thermal correction to Energy=                    0.105956
 Thermal correction to Enthalpy=                  0.106900
 Thermal correction to Gibbs Free Energy=         0.067766
 Sum of electronic and zero-point Energies=           -390.991783
 Sum of electronic and thermal Energies=              -390.985006
 Sum of electronic and thermal Enthalpies=            -390.984061
 Sum of electronic and thermal Free Energies=         -391.023195

                     E (Thermal)             CV                S
                      KCal/Mol        Cal/Mol-Kelvin    Cal/Mol-Kelvin
 Total                   66.488             24.315             82.364
 Electronic               0.000              0.000              0.000
 Translational            0.889              2.981             40.031
 Rotational               0.889              2.981             27.815
 Vibrational             64.711             18.353             14.519
 Vibration     1          0.600              1.961              3.835
 Vibration     2          0.618              1.904              2.689
 Vibration     3          0.626              1.878              2.422
 Vibration     4          0.712              1.616              1.262
 Vibration     5          0.811              1.355              0.787
 Vibration     6          0.838              1.291              0.706
 Vibration     7          0.849              1.264              0.674
 Vibration     8          0.956              1.036              0.453

 Optimization completed.
    -- Stationary point found.
 Normal termination of Gaussian 16 at Thu Aug  4 11:25:35 2022.
