 Gaussian 16, Revision A.03,
 Gaussian 16:  ES64L-G16RevA.03 25-Dec-2016

 -----------------------------
 # opt freq b3lyp/6-31g(2df,p)
 -----------------------------

 -------------------
 Title Card Required
 -------------------
 Symbolic Z-matrix:
 Charge =  0 Multiplicity = 1

 SCF Done:  E(RB3LYP) =  -264.249607036     A.U. after   14 cycles
 SCF Done:  E(RB3LYP) =  -264.259351326     A.U. after   13 cycles
 SCF Done:  E(RB3LYP) =  -264.259836409     A.U. after   13 cycles
 SCF Done:  E(RB3LYP) =  -264.260316529     A.U. after   12 cycles
 SCF Done:  E(RB3LYP) =  -264.260702374     A.U. after   12 cycles
 SCF Done:  E(RB3LYP) =  -264.260579527     A.U. after   12 cycles
 SCF Done:  E(RB3LYP) =  -264.260739037     A.U. after   11 cycles
 SCF Done:  E(RB3LYP) =  -264.260742812     A.U. after    8 cycles
 SCF Done:  E(RB3LYP) =  -264.260745028     A.U. after    8 cycles
 SCF Done:  E(RB3LYP) =  -264.260746520     A.U. after    8 cycles
 SCF Done:  E(RB3LYP) =  -264.260747418     A.U. after    8 cycles
 Optimization completed.
    -- Stationary point found.
 Normal termination of Gaussian 16 at Sun Jul  3 14:08:49 2022.

 ----------------------------------------------------------------------
 #N Geom=AllCheck Guess=TCheck SCRF=Check GenChk RB3LYP/6-31G(2df,p) Fr
 eq
 ----------------------------------------------------------------------

 Structure from the checkpoint file:  "NtCC1CC1dN.chk"
 -------------------
 Title Card Required
 -------------------
 Charge =  0 Multiplicity = 1

                         Standard orientation:
 ---------------------------------------------------------------------
 Center     Atomic      Atomic             Coordinates (Angstroms)
 Number     Number       Type             X           Y           Z
 ---------------------------------------------------------------------
      1          7           0        2.472325   -0.511692   -0.306574
      2          6           0        1.462595   -0.124852    0.104370
      3          6           0        0.206349    0.360121    0.602001
      4          6           0       -0.692573    1.249844   -0.326227
      5          6           0       -1.074246   -0.117766    0.021263
      6          7           0       -1.822447   -1.120215   -0.021219
      7          1           0        0.202926    0.619665    1.657197
      8          1           0       -0.318756    1.446394   -1.326837
      9          1           0       -1.194239    2.087391    0.149448
     10          1           0       -2.651822   -0.934177   -0.593703
 ---------------------------------------------------------------------

 SCF Done:  E(RB3LYP) =  -264.260747418     A.U. after    1 cycles

 The electronic state is 1-A.
 Alpha  occ. eigenvalues --  -14.35154 -14.33168 -10.27482 -10.25531 -10.23828
 Alpha  occ. eigenvalues --  -10.22680  -0.95200  -0.90525  -0.86908  -0.69232
 Alpha  occ. eigenvalues --   -0.60405  -0.54770  -0.53225  -0.44377  -0.42298
 Alpha  occ. eigenvalues --   -0.39350  -0.36228  -0.34475  -0.33856  -0.31108
 Alpha  occ. eigenvalues --   -0.27284
 Alpha virt. eigenvalues --   -0.03989   0.01496   0.03269   0.08607   0.09637
 Alpha virt. eigenvalues --    0.12488   0.14835   0.15833   0.20828   0.21643
 Alpha virt. eigenvalues --    0.26678   0.28030   0.31120   0.43840   0.46412

 Mulliken charges:
               1
     1  N   -0.322048
     2  C    0.282967
     3  C   -0.219686
     4  C   -0.359114
     5  C    0.367171
     6  N   -0.470921
     7  H    0.156744
     8  H    0.166590
     9  H    0.155356
    10  H    0.242941
 Sum of Mulliken charges =  -0.00000

 Dipole moment (field-independent basis, Debye):
    X=             -3.6044    Y=              3.2146    Z=              0.2896  Tot=              4.8383
 Quadrupole moment (field-independent basis, Debye-Ang):
   XX=            -40.9064   YY=            -35.6951   ZZ=            -31.6688
   XY=             -0.1750   XZ=              3.8306   YZ=              0.7768

  Exact polarizability:  66.819   0.564  47.754   0.580   0.186  37.440
 Approx polarizability: 102.185   0.238  76.434  -3.552   1.737  57.852

                      1                      2                      3
                      A                      A                      A
 Frequencies --    129.6213               205.9709               363.6608
 Red. masses --      6.5855                 4.3734                 3.0962
 Frc consts  --      0.0652                 0.1093                 0.2413
 IR Inten    --      2.5375                 4.2739                 0.4510

                      4                      5                      6
                      A                      A                      A
 Frequencies --    418.3032               520.1696               567.3429
 Red. masses --      4.7989                 4.8420                 2.6736
 Frc consts  --      0.4947                 0.7719                 0.5070
 IR Inten    --     10.7573                 6.1311                 4.0347

                      7                      8                      9
                      A                      A                      A
 Frequencies --    714.3941               764.8672               829.4186
 Red. masses --      1.9050                 2.4250                 2.4914
 Frc consts  --      0.5728                 0.8359                 1.0098
 IR Inten    --      4.6986                21.3148                 3.6425

                     10                     11                     12
                      A                      A                      A
 Frequencies --    934.5164              1005.7099              1058.2377
 Red. masses --      2.7400                 1.4503                 1.4790
 Frc consts  --      1.4099                 0.8643                 0.9759
 IR Inten    --     73.9784                34.5386                 2.9813

                     13                     14                     15
                      A                      A                      A
 Frequencies --   1071.5597              1097.3132              1103.3818
 Red. masses --      1.5873                 1.4246                 2.1065
 Frc consts  --      1.0738                 1.0107                 1.5110
 IR Inten    --      1.4845                 5.5319                 6.4517

                     16                     17                     18
                      A                      A                      A
 Frequencies --   1246.8058              1328.2187              1434.3520
 Red. masses --      1.4678                 1.6718                 1.1304
 Frc consts  --      1.3443                 1.7377                 1.3702
 IR Inten    --     94.8304                 2.4221                 2.5946

                     19                     20                     21
                      A                      A                      A
 Frequencies --   1880.0790              2356.5202              3123.3266
 Red. masses --     10.1024                12.5930                 1.0533
 Frc consts  --     21.0390                41.2022                 6.0542
 IR Inten    --    114.8990                26.0543                 0.5125

                     22                     23                     24
                      A                      A                      A
 Frequencies --   3152.1814              3213.9577              3420.8602
 Red. masses --      1.0857                 1.1158                 1.0746
 Frc consts  --      6.3562                 6.7908                 7.4093
 IR Inten    --      0.9187                 0.3119                 0.1451

 - Thermochemistry -
 -------------------
 Temperature   298.150 Kelvin.  Pressure   1.00000 Atm.
 Atom     1 has atomic number  7 and mass  14.00307

 Molecular mass:    80.03745 amu.
 Principal axes and moments of inertia in atomic units:
                           1         2         3
     Eigenvalues --   219.64876 708.38211 842.48436
           X            0.99992  -0.00369   0.01231
           Y            0.00371   0.99999  -0.00098
           Z           -0.01230   0.00102   0.99992
 This molecule is an asymmetric top.
 Rotational symmetry number  1.
 Rotational temperatures (Kelvin)      0.39433     0.12227     0.10281
 Rotational constants (GHZ):           8.21649     2.54769     2.14217
 Zero-point vibrational energy     191048.2 (Joules/Mol)
                                   45.66162 (Kcal/Mol)
 Warning -- explicit consideration of   6 degrees of freedom as
           vibrations may cause significant error
 Vibrational temperatures:    186.50   296.35   523.23   601.84   748.41
          (Kelvin)            816.28  1027.85  1100.47  1193.35  1344.56
                             1446.99  1522.57  1541.74  1578.79  1587.52
                             1793.88  1911.01  2063.71  2705.01  3390.51
                             4493.77  4535.29  4624.17  4921.85

 Zero-point correction=                           0.072766 (Hartree/Particle)
 Thermal correction to Energy=                    0.078345
 Thermal correction to Enthalpy=                  0.079289
 Thermal correction to Gibbs Free Energy=         0.043724
 Sum of electronic and zero-point Energies=           -264.187981
 Sum of electronic and thermal Energies=              -264.182402
 Sum of electronic and thermal Enthalpies=            -264.181458
 Sum of electronic and thermal Free Energies=         -264.217023

                     E (Thermal)             CV                S
                      KCal/Mol        Cal/Mol-Kelvin    Cal/Mol-Kelvin
 Total                   49.162             19.552             74.853
 Electronic               0.000              0.000              0.000
 Translational            0.889              2.981             39.054
 Rotational               0.889              2.981             26.375
 Vibrational             47.385             13.591              9.424
 Vibration     1          0.612              1.924              2.952
 Vibration     2          0.640              1.831              2.079
 Vibration     3          0.737              1.547              1.106
 Vibration     4          0.781              1.430              0.898
 Vibration     5          0.875              1.205              0.610
 Vibration     6          0.923              1.102              0.509

 Optimization completed.
    -- Stationary point found.
 Normal termination of Gaussian 16 at Sun Jul  3 14:17:56 2022.
