 Gaussian 16, Revision A.03,
 Gaussian 16:  ES64L-G16RevA.03 25-Dec-2016

 -----------------------------
 # opt freq b3lyp/6-31g(2df,p)
 -----------------------------

 -------------------
 Title Card Required
 -------------------
 Symbolic Z-matrix:
 Charge =  0 Multiplicity = 1

 SCF Done:  E(RB3LYP) =  -379.742356417     A.U. after   15 cycles
 SCF Done:  E(RB3LYP) =  -379.778831102     A.U. after   14 cycles
 SCF Done:  E(RB3LYP) =  -379.782128852     A.U. after   14 cycles
 SCF Done:  E(RB3LYP) =  -379.774966321     A.U. after   16 cycles
 SCF Done:  E(RB3LYP) =  -379.780001511     A.U. after   14 cycles
 SCF Done:  E(RB3LYP) =  -379.782336768     A.U. after   12 cycles
 SCF Done:  E(RB3LYP) =  -379.782249915     A.U. after   13 cycles
 SCF Done:  E(RB3LYP) =  -379.782714220     A.U. after   12 cycles
 SCF Done:  E(RB3LYP) =  -379.782987990     A.U. after   12 cycles
 SCF Done:  E(RB3LYP) =  -379.782901855     A.U. after   12 cycles
 SCF Done:  E(RB3LYP) =  -379.783814778     A.U. after   14 cycles
 SCF Done:  E(RB3LYP) =  -379.783981556     A.U. after   12 cycles
 SCF Done:  E(RB3LYP) =  -379.783997574     A.U. after   11 cycles
 SCF Done:  E(RB3LYP) =  -379.784008435     A.U. after   10 cycles
 SCF Done:  E(RB3LYP) =  -379.784016184     A.U. after   11 cycles
 SCF Done:  E(RB3LYP) =  -379.784025914     A.U. after   10 cycles
 SCF Done:  E(RB3LYP) =  -379.784027381     A.U. after    9 cycles
 SCF Done:  E(RB3LYP) =  -379.784027891     A.U. after    8 cycles
 SCF Done:  E(RB3LYP) =  -379.784027991     A.U. after    7 cycles
 Optimization completed.
    -- Stationary point found.
 Normal termination of Gaussian 16 at Sun Jul  3 23:27:50 2022.

 ----------------------------------------------------------------------
 #N Geom=AllCheck Guess=TCheck SCRF=Check GenChk RB3LYP/6-31G(2df,p) Fr
 eq
 ----------------------------------------------------------------------

 Structure from the checkpoint file:  "NtCCtCC1CCdNC1.chk"
 -------------------
 Title Card Required
 -------------------
 Charge =  0 Multiplicity = 1

                         Standard orientation:
 ---------------------------------------------------------------------
 Center     Atomic      Atomic             Coordinates (Angstroms)
 Number     Number       Type             X           Y           Z
 ---------------------------------------------------------------------
      1          7           0        4.406586   -0.006738   -0.367897
      2          6           0        3.267812    0.000880   -0.136738
      3          6           0        1.930441    0.010921    0.134256
      4          6           0        0.745452    0.024830    0.375478
      5          6           0       -0.675141    0.024645    0.649489
      6          6           0       -1.455035    1.231733    0.051674
      7          6           0       -2.732395    0.556153   -0.396613
      8          7           0       -2.743206   -0.713182   -0.399454
      9          6           0       -1.444496   -1.210146    0.055100
     10          1           0       -0.816190    0.024303    1.736470
     11          1           0       -0.935456    1.676263   -0.805629
     12          1           0       -1.620754    2.032494    0.777447
     13          1           0       -3.600747    1.121939   -0.731595
     14          1           0       -0.912380   -1.647171   -0.797271
     15          1           0       -1.577961   -2.002478    0.796158
 ---------------------------------------------------------------------

 SCF Done:  E(RB3LYP) =  -379.784027991     A.U. after    1 cycles

 The electronic state is 1-A.
 Alpha  occ. eigenvalues --  -14.34366 -14.34365 -10.24602 -10.24435 -10.24078
 Alpha  occ. eigenvalues --  -10.23572 -10.23479 -10.22613 -10.22302  -0.96008
 Alpha  occ. eigenvalues --   -0.91347  -0.83355  -0.77886  -0.74966  -0.67259
 Alpha  occ. eigenvalues --   -0.62613  -0.57649  -0.53179  -0.51630  -0.44284
 Alpha  occ. eigenvalues --   -0.43796  -0.41928  -0.41539  -0.39681  -0.38114
 Alpha  occ. eigenvalues --   -0.37806  -0.37248  -0.30694  -0.30179  -0.28766
 Alpha  occ. eigenvalues --   -0.26860
 Alpha virt. eigenvalues --   -0.04164  -0.04045  -0.01908   0.06971   0.10252
 Alpha virt. eigenvalues --    0.12284   0.12552   0.12814   0.14158   0.15811
 Alpha virt. eigenvalues --    0.16266   0.16589   0.18744   0.21003   0.24456

 Mulliken charges:
               1
     1  N   -0.337658
     2  C    0.204572
     3  C    0.021617
     4  C    0.119487
     5  C   -0.206693
     6  C   -0.289949
     7  C    0.015671
     8  N   -0.152177
     9  C   -0.173448
    10  H    0.130487
    11  H    0.142177
    12  H    0.134363
    13  H    0.123541
    14  H    0.136263
    15  H    0.131747
 Sum of Mulliken charges =  -0.00000

 Dipole moment (field-independent basis, Debye):
    X=             -4.0895    Y=              1.3884    Z=              1.2358  Tot=              4.4920
 Quadrupole moment (field-independent basis, Debye-Ang):
   XX=            -76.1397   YY=            -48.8451   ZZ=            -49.7656
   XY=             -5.4219   XZ=              0.3812   YZ=             -1.2115

  Exact polarizability: 139.148  -3.357  66.901  -6.085  -0.851  52.182
 Approx polarizability: 231.849  -2.653 106.253 -22.058  -0.559  82.739

                      1                      2                      3
                      A                      A                      A
 Frequencies --     56.3444                80.6602               128.2797
 Red. masses --      4.3845                 5.4523                 4.0035
 Frc consts  --      0.0082                 0.0209                 0.0388
 IR Inten    --      4.4442                 2.7977                 0.4779

                      4                      5                      6
                      A                      A                      A
 Frequencies --    222.1202               263.0022               414.7105
 Red. masses --      7.0136                 4.6773                 2.2553
 Frc consts  --      0.2039                 0.1906                 0.2285
 IR Inten    --      0.9691                 3.3582                 5.8673

                      7                      8                      9
                      A                      A                      A
 Frequencies --    425.2977               499.7676               554.0110
 Red. masses --      8.7385                 7.6362                 3.3081
 Frc consts  --      0.9313                 1.1237                 0.5982
 IR Inten    --      1.7596                 6.5071                 4.7598

                     10                     11                     12
                      A                      A                      A
 Frequencies --    585.0319               587.7016               781.0539
 Red. masses --      7.0387                 6.8178                 5.3486
 Frc consts  --      1.4194                 1.3874                 1.9224
 IR Inten    --      1.7339                 2.6957                 9.8306

                     13                     14                     15
                      A                      A                      A
 Frequencies --    807.6852               840.1156               890.6990
 Red. masses --      4.6645                 1.3826                 3.2589
 Frc consts  --      1.7928                 0.5749                 1.5233
 IR Inten    --      2.6629                 3.8227                12.1588

                     16                     17                     18
                      A                      A                      A
 Frequencies --    924.6554               950.1484               973.4266
 Red. masses --      1.7466                 2.0161                 3.8882
 Frc consts  --      0.8799                 1.0724                 2.1708
 IR Inten    --      6.5074                 1.0889                22.0770

                     19                     20                     21
                      A                      A                      A
 Frequencies --   1038.2147              1059.8252              1163.4155
 Red. masses --      4.4543                 1.8871                 1.2873
 Frc consts  --      2.8288                 1.2489                 1.0266
 IR Inten    --     13.5776                 2.7624                 3.1421

                     22                     23                     24
                      A                      A                      A
 Frequencies --   1190.3313              1214.7587              1280.6233
 Red. masses --      2.7809                 1.1456                 1.1958
 Frc consts  --      2.3215                 0.9960                 1.1554
 IR Inten    --      4.8409                 3.0650                 3.3679

                     25                     26                     27
                      A                      A                      A
 Frequencies --   1293.5651              1311.2411              1337.6456
 Red. masses --      1.4350                 1.2772                 1.4021
 Frc consts  --      1.4148                 1.2938                 1.4781
 IR Inten    --      2.9728                 2.9100                24.5792

                     28                     29                     30
                      A                      A                      A
 Frequencies --   1359.3553              1475.4735              1490.4467
 Red. masses --      1.6704                 1.0866                 1.0907
 Frc consts  --      1.8186                 1.3937                 1.4275
 IR Inten    --      1.7853                 7.2545                 5.8116

                     31                     32                     33
                      A                      A                      A
 Frequencies --   1714.9504              2262.6248              2396.1179
 Red. masses --      8.1843                12.3872                12.2033
 Frc consts  --     14.1819                37.3634                41.2802
 IR Inten    --     33.4895                 3.9065               182.7302

                     34                     35                     36
                      A                      A                      A
 Frequencies --   3037.6101              3045.4484              3050.9904
 Red. masses --      1.0826                 1.0644                 1.0625
 Frc consts  --      5.8855                 5.8164                 5.8270
 IR Inten    --      1.7572                12.1847                16.9326

                     37                     38                     39
                      A                      A                      A
 Frequencies --   3096.0771              3100.6123              3148.0259
 Red. masses --      1.0997                 1.1021                 1.0930
 Frc consts  --      6.2106                 6.2424                 6.3818
 IR Inten    --      8.4225                18.8994                25.8147

 - Thermochemistry -
 -------------------
 Temperature   298.150 Kelvin.  Pressure   1.00000 Atm.
 Atom     1 has atomic number  7 and mass  14.00307

 Molecular mass:   118.05310 amu.
 Principal axes and moments of inertia in atomic units:
                           1         2         3
     Eigenvalues --   289.338952648.295812799.23736
           X            0.99998  -0.00655   0.00027
           Y            0.00655   0.99979  -0.01929
           Z           -0.00014   0.01929   0.99981
 This molecule is an asymmetric top.
 Rotational symmetry number  1.
 Rotational temperatures (Kelvin)      0.29935     0.03271     0.03094
 Rotational constants (GHZ):           6.23746     0.68147     0.64473
 Zero-point vibrational energy     299377.8 (Joules/Mol)
                                   71.55302 (Kcal/Mol)
 Warning -- explicit consideration of  11 degrees of freedom as
           vibrations may cause significant error
 Vibrational temperatures:     81.07   116.05   184.57   319.58   378.40
          (Kelvin)            596.68   611.91   719.05   797.10   841.73
                              845.57  1123.76  1162.08  1208.74  1281.52
                             1330.37  1367.05  1400.54  1493.76  1524.85
                             1673.90  1712.62  1747.77  1842.53  1861.15
                             1886.58  1924.57  1955.81  2122.88  2144.42
                             2467.43  3255.41  3447.48  4370.44  4381.72
                             4389.69  4454.56  4461.09  4529.31

 Zero-point correction=                           0.114027 (Hartree/Particle)
 Thermal correction to Energy=                    0.122056
 Thermal correction to Enthalpy=                  0.123000
 Thermal correction to Gibbs Free Energy=         0.080316
 Sum of electronic and zero-point Energies=           -379.670001
 Sum of electronic and thermal Energies=              -379.661972
 Sum of electronic and thermal Enthalpies=            -379.661028
 Sum of electronic and thermal Free Energies=         -379.703712

                     E (Thermal)             CV                S
                      KCal/Mol        Cal/Mol-Kelvin    Cal/Mol-Kelvin
 Total                   76.591             28.654             89.836
 Electronic               0.000              0.000              0.000
 Translational            0.889              2.981             40.213
 Rotational               0.889              2.981             29.152
 Vibrational             74.814             22.692             20.472
 Vibration     1          0.596              1.975              4.581
 Vibration     2          0.600              1.962              3.875
 Vibration     3          0.611              1.925              2.972
 Vibration     4          0.648              1.807              1.942
 Vibration     5          0.670              1.741              1.642
 Vibration     6          0.778              1.438              0.910
 Vibration     7          0.787              1.415              0.874
 Vibration     8          0.855              1.251              0.659
 Vibration     9          0.909              1.131              0.536
 Vibration    10          0.942              1.064              0.476
 Vibration    11          0.945              1.058              0.471

 Optimization completed.
    -- Stationary point found.
 Normal termination of Gaussian 16 at Sun Jul  3 23:44:57 2022.
