 Gaussian 16, Revision A.03,
 Gaussian 16:  ES64L-G16RevA.03 25-Dec-2016

 -----------------------------
 # opt freq b3lyp/6-31g(2df,p)
 -----------------------------

 -------------------
 Title Card Required
 -------------------
 Symbolic Z-matrix:
 Charge =  0 Multiplicity = 1

 SCF Done:  E(RB3LYP) =  -377.625184668     A.U. after   15 cycles
 SCF Done:  E(RB3LYP) =  -377.649000483     A.U. after   13 cycles
 SCF Done:  E(RB3LYP) =  -377.649125745     A.U. after   12 cycles
 SCF Done:  E(RB3LYP) =  -377.644089279     A.U. after   15 cycles
 SCF Done:  E(RB3LYP) =  -377.649037810     A.U. after   12 cycles
 SCF Done:  E(RB3LYP) =  -377.649483131     A.U. after   10 cycles
 SCF Done:  E(RB3LYP) =  -377.649191045     A.U. after   11 cycles
 SCF Done:  E(RB3LYP) =  -377.649706140     A.U. after   11 cycles
 SCF Done:  E(RB3LYP) =  -377.649762049     A.U. after   11 cycles
 SCF Done:  E(RB3LYP) =  -377.649802407     A.U. after   11 cycles
 SCF Done:  E(RB3LYP) =  -377.649827130     A.U. after   12 cycles
 SCF Done:  E(RB3LYP) =  -377.649833336     A.U. after    8 cycles
 SCF Done:  E(RB3LYP) =  -377.649834520     A.U. after    8 cycles
 Optimization completed.
    -- Stationary point found.
 Normal termination of Gaussian 16 at Thu Aug  4 10:37:30 2022.

 ----------------------------------------------------------------------
 #N Geom=AllCheck Guess=TCheck SCRF=Check GenChk RB3LYP/6-31G(2df,p) Fr
 eq
 ----------------------------------------------------------------------

 Structure from the checkpoint file:  "NtCCc1ncco1.chk"
 -------------------
 Title Card Required
 -------------------
 Charge =  0 Multiplicity = 1

                         Standard orientation:
 ---------------------------------------------------------------------
 Center     Atomic      Atomic             Coordinates (Angstroms)
 Number     Number       Type             X           Y           Z
 ---------------------------------------------------------------------
      1          7           0        3.030403   -0.644507   -0.617475
      2          6           0        2.212906   -0.015560   -0.098652
      3          6           0        1.181392    0.783938    0.567714
      4          6           0       -0.211054    0.374796    0.202063
      5          7           0       -1.132522    1.110545   -0.328887
      6          6           0       -2.228954    0.261560   -0.436056
      7          6           0       -1.892070   -0.957011    0.044013
      8          8           0       -0.591026   -0.897727    0.462235
      9          1           0        1.297210    1.834866    0.291205
     10          1           0        1.330396    0.707158    1.651679
     11          1           0       -3.166853    0.594481   -0.850042
     12          1           0       -2.391034   -1.903293    0.159318
 ---------------------------------------------------------------------

 SCF Done:  E(RB3LYP) =  -377.649834520     A.U. after    1 cycles

 The electronic state is 1-A.
 Alpha  occ. eigenvalues --  -19.23550 -14.34310 -14.33769 -10.29377 -10.26099
 Alpha  occ. eigenvalues --  -10.25456 -10.23203 -10.22518  -1.15005  -0.93639
 Alpha  occ. eigenvalues --   -0.91166  -0.83046  -0.75003  -0.64427  -0.60234
 Alpha  occ. eigenvalues --   -0.55678  -0.53176  -0.49774  -0.47095  -0.45890
 Alpha  occ. eigenvalues --   -0.44050  -0.41212  -0.36611  -0.33895  -0.33533
 Alpha  occ. eigenvalues --   -0.33511  -0.30498  -0.26122
 Alpha virt. eigenvalues --   -0.01893   0.02448   0.03082   0.04782   0.08692
 Alpha virt. eigenvalues --    0.11996   0.12685   0.14744   0.15021   0.17238
 Alpha virt. eigenvalues --    0.19821   0.24979   0.26244   0.30323   0.34778

 Mulliken charges:
               1
     1  N   -0.295549
     2  C    0.266848
     3  C   -0.432177
     4  C    0.399650
     5  N   -0.294584
     6  C   -0.109402
     7  C   -0.032695
     8  O   -0.162769
     9  H    0.191533
    10  H    0.177352
    11  H    0.135046
    12  H    0.156747
 Sum of Mulliken charges =  -0.00000

 Dipole moment (field-independent basis, Debye):
    X=             -2.9730    Y=              0.5176    Z=              1.9471  Tot=              3.5913
 Quadrupole moment (field-independent basis, Debye-Ang):
   XX=            -49.1638   YY=            -44.9976   ZZ=            -44.4446
   XY=              8.7727   XZ=              5.2508   YZ=              0.5077

  Exact polarizability:  79.986  -0.484  57.540   2.678  -0.524  41.569
 Approx polarizability: 112.866  -8.375 102.793   2.623  -2.630  69.057

                      1                      2                      3
                      A                      A                      A
 Frequencies --     42.8932               108.7083               276.0474
 Red. masses --      5.4962                 7.6735                 4.2859
 Frc consts  --      0.0060                 0.0534                 0.1924
 IR Inten    --      4.9414                 4.6442                 9.4727

                      4                      5                      6
                      A                      A                      A
 Frequencies --    328.2264               376.9397               484.4549
 Red. masses --      3.5014                 3.7852                10.3454
 Frc consts  --      0.2222                 0.3169                 1.4306
 IR Inten    --      5.3488                 1.2704                 2.4863

                      7                      8                      9
                      A                      A                      A
 Frequencies --    630.9927               683.4015               773.0929
 Red. masses --      3.5618                 5.1050                 1.3483
 Frc consts  --      0.8355                 1.4047                 0.4748
 IR Inten    --      0.3075                10.5924                30.4381

                     10                     11                     12
                      A                      A                      A
 Frequencies --    792.8124               870.7139               917.1610
 Red. masses --      4.8147                 1.3367                 2.5663
 Frc consts  --      1.7830                 0.5971                 1.2719
 IR Inten    --      7.1951                 5.9084                13.0037

                     13                     14                     15
                      A                      A                      A
 Frequencies --    933.7031               940.7932               979.4578
 Red. masses --      6.0284                 4.5112                 3.1846
 Frc consts  --      3.0965                 2.3525                 1.8000
 IR Inten    --     11.5737                 2.5304                 3.8469

                     16                     17                     18
                      A                      A                      A
 Frequencies --   1106.0728              1135.3833              1165.5440
 Red. masses --      3.9988                 2.4306                 1.5207
 Frc consts  --      2.8823                 1.8461                 1.2171
 IR Inten    --     17.4314                16.8020                11.7321

                     19                     20                     21
                      A                      A                      A
 Frequencies --   1212.7296              1275.7117              1330.2760
 Red. masses --      1.5431                 1.9011                 1.5622
 Frc consts  --      1.3371                 1.8229                 1.6288
 IR Inten    --      6.0835                 9.1424                 8.9770

                     22                     23                     24
                      A                      A                      A
 Frequencies --   1391.2167              1446.7699              1552.2141
 Red. masses --      2.7791                 1.0791                 4.5064
 Frc consts  --      3.1691                 1.3308                 6.3971
 IR Inten    --      9.9094                 8.2223                 6.6179

                     25                     26                     27
                      A                      A                      A
 Frequencies --   1622.1830              2372.2000              3044.3018
 Red. masses --      8.6243                12.6126                 1.0658
 Frc consts  --     13.3713                41.8173                 5.8196
 IR Inten    --     39.2315                 4.7490                 1.5085

                     28                     29                     30
                      A                      A                      A
 Frequencies --   3115.5497              3270.2914              3305.5757
 Red. masses --      1.0942                 1.0922                 1.1071
 Frc consts  --      6.2577                 6.8821                 7.1276
 IR Inten    --      0.5444                 2.8694                 0.6140

 - Thermochemistry -
 -------------------
 Temperature   298.150 Kelvin.  Pressure   1.00000 Atm.
 Atom     1 has atomic number  7 and mass  14.00307

 Molecular mass:   108.03236 amu.
 Principal axes and moments of inertia in atomic units:
                           1         2         3
     Eigenvalues --   304.163551324.015551481.53458
           X            0.99968   0.02036   0.01502
           Y           -0.02069   0.99954   0.02233
           Z           -0.01455  -0.02263   0.99964
 This molecule is an asymmetric top.
 Rotational symmetry number  1.
 Rotational temperatures (Kelvin)      0.28476     0.06542     0.05846
 Rotational constants (GHZ):           5.93346     1.36308     1.21816
 Zero-point vibrational energy     224212.6 (Joules/Mol)
                                   53.58810 (Kcal/Mol)
 Warning -- explicit consideration of   6 degrees of freedom as
           vibrations may cause significant error
 Vibrational temperatures:     61.71   156.41   397.17   472.24   542.33
          (Kelvin)            697.02   907.86   983.26  1112.31  1140.68
                             1252.76  1319.59  1343.39  1353.59  1409.22
                             1591.39  1633.56  1676.96  1744.85  1835.46
                             1913.97  2001.65  2081.58  2233.29  2333.96
                             3413.07  4380.07  4482.58  4705.22  4755.99

 Zero-point correction=                           0.085398 (Hartree/Particle)
 Thermal correction to Energy=                    0.092003
 Thermal correction to Enthalpy=                  0.092947
 Thermal correction to Gibbs Free Energy=         0.053548
 Sum of electronic and zero-point Energies=           -377.564436
 Sum of electronic and thermal Energies=              -377.557832
 Sum of electronic and thermal Enthalpies=            -377.556887
 Sum of electronic and thermal Free Energies=         -377.596287

                     E (Thermal)             CV                S
                      KCal/Mol        Cal/Mol-Kelvin    Cal/Mol-Kelvin
 Total                   57.733             23.091             82.923
 Electronic               0.000              0.000              0.000
 Translational            0.889              2.981             39.948
 Rotational               0.889              2.981             27.880
 Vibrational             55.955             17.129             15.094
 Vibration     1          0.595              1.980              5.121
 Vibration     2          0.606              1.942              3.292
 Vibration     3          0.678              1.718              1.558
 Vibration     4          0.711              1.619              1.269
 Vibration     5          0.747              1.519              1.051
 Vibration     6          0.841              1.285              0.698

 Optimization completed.
    -- Stationary point found.
 Normal termination of Gaussian 16 at Thu Aug  4 10:55:09 2022.
