 Gaussian 16, Revision A.03,
 Gaussian 16:  ES64L-G16RevA.03 25-Dec-2016

 -----------------------------
 # opt freq b3lyp/6-31g(2df,p)
 -----------------------------

 -------------------
 Title Card Required
 -------------------
 Symbolic Z-matrix:
 Charge =  0 Multiplicity = 1

 SCF Done:  E(RB3LYP) =  -403.337969846     A.U. after   14 cycles
 SCF Done:  E(RB3LYP) =  -403.360348753     A.U. after   12 cycles
 SCF Done:  E(RB3LYP) =  -403.359423029     A.U. after   14 cycles
 SCF Done:  E(RB3LYP) =  -403.357863312     A.U. after   12 cycles
 SCF Done:  E(RB3LYP) =  -403.356428071     A.U. after   12 cycles
 SCF Done:  E(RB3LYP) =  -403.360513163     A.U. after    9 cycles
 SCF Done:  E(RB3LYP) =  -403.360954719     A.U. after   11 cycles
 SCF Done:  E(RB3LYP) =  -403.359641598     A.U. after   12 cycles
 SCF Done:  E(RB3LYP) =  -403.361027094     A.U. after   10 cycles
 SCF Done:  E(RB3LYP) =  -403.361029530     A.U. after    8 cycles
 Optimization completed.
    -- Stationary point found.
 Normal termination of Gaussian 16 at Thu Aug  4 03:55:06 2022.

 ----------------------------------------------------------------------
 #N Geom=AllCheck Guess=TCheck SCRF=Check GenChk RB3LYP/6-31G(2df,p) Fr
 eq
 ----------------------------------------------------------------------

 Structure from the checkpoint file:  "NtCC1CCCCpOpC1.chk"
 -------------------
 Title Card Required
 -------------------
 Charge =  0 Multiplicity = 1

                         Standard orientation:
 ---------------------------------------------------------------------
 Center     Atomic      Atomic             Coordinates (Angstroms)
 Number     Number       Type             X           Y           Z
 ---------------------------------------------------------------------
      1          7           0        2.535744   -1.188825   -1.032606
      2          6           0        1.885026   -0.734706   -0.191786
      3          6           0        1.058187   -0.147714    0.869589
      4          6           0        0.906660    1.380092    0.666366
      5          6           0        0.036069    1.707943   -0.553131
      6          6           0       -1.335660    1.021417   -0.467139
      7          6           0       -1.200864   -0.494911   -0.286385
      8          8           0       -2.461398   -1.143393   -0.211981
      9          6           0       -0.330313   -0.830390    0.933179
     10          1           0        1.584953   -0.331922    1.813252
     11          1           0        1.893963    1.842127    0.574499
     12          1           0        0.443997    1.785870    1.574594
     13          1           0        0.552624    1.381234   -1.464331
     14          1           0       -0.087916    2.792360   -0.637700
     15          1           0       -1.932491    1.225580   -1.361456
     16          1           0       -1.895509    1.428251    0.389593
     17          1           0       -0.725620   -0.917365   -1.180408
     18          1           0       -2.948767   -0.760320    0.526064
     19          1           0       -0.225669   -1.914872    1.023727
     20          1           0       -0.833216   -0.472410    1.842089
 ---------------------------------------------------------------------

 SCF Done:  E(RB3LYP) =  -403.361029530     A.U. after    1 cycles

 The electronic state is 1-A.
 Alpha  occ. eigenvalues --  -19.14106 -14.32517 -10.23966 -10.23885 -10.21647
 Alpha  occ. eigenvalues --  -10.20610 -10.20208 -10.19539 -10.19052  -1.02443
 Alpha  occ. eigenvalues --   -0.90198  -0.84996  -0.77291  -0.74986  -0.65434
 Alpha  occ. eigenvalues --   -0.62779  -0.59666  -0.52144  -0.49771  -0.46920
 Alpha  occ. eigenvalues --   -0.46812  -0.45020  -0.42333  -0.40505  -0.39869
 Alpha  occ. eigenvalues --   -0.38481  -0.36396  -0.35429  -0.34569  -0.34174
 Alpha  occ. eigenvalues --   -0.33125  -0.31681  -0.30925  -0.27067
 Alpha virt. eigenvalues --    0.03336   0.03698   0.06940   0.07510   0.09842
 Alpha virt. eigenvalues --    0.11508   0.14234   0.14564   0.15808   0.16130
 Alpha virt. eigenvalues --    0.16620   0.16647   0.17242   0.18108   0.19417

 Mulliken charges:
               1
     1  N   -0.335386
     2  C    0.281688
     3  C   -0.157779
     4  C   -0.202658
     5  C   -0.213787
     6  C   -0.213339
     7  C    0.137398
     8  O   -0.432175
     9  C   -0.232087
    10  H    0.124452
    11  H    0.117283
    12  H    0.102800
    13  H    0.125519
    14  H    0.103643
    15  H    0.109808
    16  H    0.081223
    17  H    0.112212
    18  H    0.275305
    19  H    0.124791
    20  H    0.091089
 Sum of Mulliken charges =  -0.00000

 Dipole moment (field-independent basis, Debye):
    X=             -1.9511    Y=              2.8119    Z=              3.3456  Tot=              4.7861
 Quadrupole moment (field-independent basis, Debye-Ang):
   XX=            -62.1053   YY=            -56.8509   ZZ=            -53.8021
   XY=              1.7531   XZ=              2.5274   YZ=             -3.6178

  Exact polarizability:  84.604  -3.025  75.850  -5.328   2.364  73.611
 Approx polarizability: 117.376  -6.654 107.745 -15.485  10.478 119.728

                      1                      2                      3
                      A                      A                      A
 Frequencies --    100.4898               116.1572               202.7590
 Red. masses --      6.2969                 4.2849                 3.1390
 Frc consts  --      0.0375                 0.0341                 0.0760
 IR Inten    --      2.3492                 2.0369                 4.1477

                      4                      5                      6
                      A                      A                      A
 Frequencies --    248.8325               284.7838               330.8210
 Red. masses --      1.9955                 1.1674                 2.3141
 Frc consts  --      0.0728                 0.0558                 0.1492
 IR Inten    --     15.0043                59.8519                 3.6120

                      7                      8                      9
                      A                      A                      A
 Frequencies --    352.5205               393.6536               409.1337
 Red. masses --      4.3710                 4.5655                 4.9228
 Frc consts  --      0.3200                 0.4168                 0.4855
 IR Inten    --     22.4474                 4.0714                 5.1329

                     10                     11                     12
                      A                      A                      A
 Frequencies --    462.4876               511.0072               597.9332
 Red. masses --      1.7409                 2.9332                 4.8313
 Frc consts  --      0.2194                 0.4513                 1.0177
 IR Inten    --      1.3582                 1.2869                 0.1146

                     13                     14                     15
                      A                      A                      A
 Frequencies --    677.3666               770.0375               807.2422
 Red. masses --      2.9974                 3.5684                 1.9353
 Frc consts  --      0.8103                 1.2467                 0.7430
 IR Inten    --      0.4466                 0.7546                 2.5513

                     16                     17                     18
                      A                      A                      A
 Frequencies --    864.4954               884.6327               910.3597
 Red. masses --      1.9922                 1.8064                 1.8688
 Frc consts  --      0.8772                 0.8329                 0.9125
 IR Inten    --      1.8081                 4.6280                 1.3921

                     19                     20                     21
                      A                      A                      A
 Frequencies --    952.8855               984.3268              1033.9367
 Red. masses --      2.5013                 2.0141                 1.6666
 Frc consts  --      1.3381                 1.1498                 1.0497
 IR Inten    --      3.0322                 6.9947                 0.0277

                     22                     23                     24
                      A                      A                      A
 Frequencies --   1063.9817              1081.4997              1089.3400
 Red. masses --      1.6131                 2.5302                 2.2469
 Frc consts  --      1.0759                 1.7437                 1.5709
 IR Inten    --      2.6803               113.9144                 9.6738

                     25                     26                     27
                      A                      A                      A
 Frequencies --   1135.4973              1154.9746              1188.7450
 Red. masses --      2.0820                 1.4867                 1.3108
 Frc consts  --      1.5816                 1.1685                 1.0914
 IR Inten    --      9.7365                 0.0676                 4.0570

                     28                     29                     30
                      A                      A                      A
 Frequencies --   1223.8945              1268.2517              1280.8322
 Red. masses --      1.4190                 1.2820                 1.3393
 Frc consts  --      1.2523                 1.2150                 1.2945
 IR Inten    --      4.6300                 0.6626                 6.1697

                     31                     32                     33
                      A                      A                      A
 Frequencies --   1327.0214              1328.1528              1345.1841
 Red. masses --      1.4123                 1.3302                 1.4543
 Frc consts  --      1.4654                 1.3825                 1.5504
 IR Inten    --      3.7224                 8.2643                 3.3358

                     34                     35                     36
                      A                      A                      A
 Frequencies --   1371.7523              1379.5354              1381.2966
 Red. masses --      1.3956                 1.3839                 1.4308
 Frc consts  --      1.5472                 1.5518                 1.6084
 IR Inten    --      4.4919                 4.1383                 5.0510

                     37                     38                     39
                      A                      A                      A
 Frequencies --   1397.2507              1431.9006              1478.6108
 Red. masses --      1.4382                 1.2476                 1.0883
 Frc consts  --      1.6543                 1.5071                 1.4018
 IR Inten    --      2.1328                45.6067                 1.0833

                     40                     41                     42
                      A                      A                      A
 Frequencies --   1483.2064              1491.1343              1501.6706
 Red. masses --      1.0934                 1.0826                 1.0973
 Frc consts  --      1.4172                 1.4183                 1.4579
 IR Inten    --      1.3393                10.0530                 3.8143

                     43                     44                     45
                      A                      A                      A
 Frequencies --   2352.7051              2989.8028              3016.0741
 Red. masses --     12.6504                 1.0698                 1.0685
 Frc consts  --     41.2561                 5.6345                 5.7266
 IR Inten    --      8.0327                21.7628                15.1974

                     46                     47                     48
                      A                      A                      A
 Frequencies --   3029.3470              3034.7900              3043.4201
 Red. masses --      1.0682                 1.0619                 1.0819
 Frc consts  --      5.7755                 5.7624                 5.9040
 IR Inten    --     11.2682                11.5593                14.3904

                     49                     50                     51
                      A                      A                      A
 Frequencies --   3046.1057              3078.3531              3081.1128
 Red. masses --      1.0801                 1.0967                 1.0950
 Frc consts  --      5.9048                 6.1229                 6.1247
 IR Inten    --     38.8821                35.0248                30.6321

                     52                     53                     54
                      A                      A                      A
 Frequencies --   3089.2642              3096.9970              3795.4846
 Red. masses --      1.1009                 1.0969                 1.0658
 Frc consts  --      6.1903                 6.1987                 9.0465
 IR Inten    --     25.5792                19.2791                13.6420

 - Thermochemistry -
 -------------------
 Temperature   298.150 Kelvin.  Pressure   1.00000 Atm.
 Atom     1 has atomic number  7 and mass  14.00307

 Molecular mass:   125.08406 amu.
 Principal axes and moments of inertia in atomic units:
                           1         2         3
     Eigenvalues --   782.574681363.497851682.88029
           X            0.99977   0.01758   0.01234
           Y           -0.01707   0.99905  -0.04010
           Z           -0.01303   0.03988   0.99912
 This molecule is an asymmetric top.
 Rotational symmetry number  1.
 Warning -- assumption of classical behavior for rotation
           may cause significant error
 Rotational temperatures (Kelvin)      0.11068     0.06352     0.05147
 Rotational constants (GHZ):           2.30616     1.32361     1.07241
 Zero-point vibrational energy     454300.1 (Joules/Mol)
                                  108.58034 (Kcal/Mol)
 Warning -- explicit consideration of  12 degrees of freedom as
           vibrations may cause significant error
 Vibrational temperatures:    144.58   167.12   291.72   358.01   409.74
          (Kelvin)            475.98   507.20   566.38   588.65   665.42
                              735.23   860.29   974.58  1107.91  1161.44
                             1243.82  1272.79  1309.80  1370.99  1416.23
                             1487.60  1530.83  1556.04  1567.32  1633.73
                             1661.75  1710.34  1760.91  1824.73  1842.83
                             1909.29  1910.92  1935.42  1973.65  1984.84
                             1987.38  2010.33  2060.19  2127.39  2134.00
                             2145.41  2160.57  3385.02  4301.66  4339.46
                             4358.55  4366.39  4378.80  4382.67  4429.06
                             4433.03  4444.76  4455.89  5460.86

 Zero-point correction=                           0.173034 (Hartree/Particle)
 Thermal correction to Energy=                    0.181618
 Thermal correction to Enthalpy=                  0.182562
 Thermal correction to Gibbs Free Energy=         0.139962
 Sum of electronic and zero-point Energies=           -403.187996
 Sum of electronic and thermal Energies=              -403.179411
 Sum of electronic and thermal Enthalpies=            -403.178467
 Sum of electronic and thermal Free Energies=         -403.221068

                     E (Thermal)             CV                S
                      KCal/Mol        Cal/Mol-Kelvin    Cal/Mol-Kelvin
 Total                  113.967             33.169             89.660
 Electronic               0.000              0.000              0.000
 Translational            0.889              2.981             40.385
 Rotational               0.889              2.981             28.975
 Vibrational            112.190             27.207             20.300
 Vibration     1          0.604              1.949              3.445
 Vibration     2          0.608              1.936              3.163
 Vibration     3          0.639              1.836              2.108
 Vibration     4          0.662              1.765              1.739
 Vibration     5          0.683              1.702              1.505
 Vibration     6          0.713              1.614              1.256
 Vibration     7          0.729              1.570              1.155
 Vibration     8          0.761              1.484              0.986
 Vibration     9          0.774              1.450              0.930
 Vibration    10          0.820              1.333              0.759
 Vibration    11          0.866              1.226              0.631
 Vibration    12          0.956              1.036              0.453

                           ! Non-Optimized Parameters !
 Normal termination of Gaussian 16 at Thu Aug  4 04:25:59 2022.
