 Gaussian 16, Revision A.03,
 Gaussian 16:  ES64L-G16RevA.03 25-Dec-2016

 -----------------------------
 # opt freq b3lyp/6-31g(2df,p)
 -----------------------------

 -------------------
 Title Card Required
 -------------------
 Symbolic Z-matrix:
 Charge =  0 Multiplicity = 1

 SCF Done:  E(RB3LYP) =  -419.337689274     A.U. after   14 cycles
 SCF Done:  E(RB3LYP) =  -419.363170621     A.U. after   12 cycles
 SCF Done:  E(RB3LYP) =  -419.364818394     A.U. after   12 cycles
 SCF Done:  E(RB3LYP) =  -419.360318921     A.U. after   14 cycles
 SCF Done:  E(RB3LYP) =  -419.366872870     A.U. after   12 cycles
 SCF Done:  E(RB3LYP) =  -419.367416006     A.U. after   14 cycles
 SCF Done:  E(RB3LYP) =  -419.370166872     A.U. after   12 cycles
 SCF Done:  E(RB3LYP) =  -419.371118238     A.U. after   10 cycles
 SCF Done:  E(RB3LYP) =  -419.371337654     A.U. after   12 cycles
 SCF Done:  E(RB3LYP) =  -419.371867993     A.U. after   11 cycles
 SCF Done:  E(RB3LYP) =  -419.372546954     A.U. after   12 cycles
 SCF Done:  E(RB3LYP) =  -419.372453672     A.U. after   11 cycles
 SCF Done:  E(RB3LYP) =  -419.373025571     A.U. after   10 cycles
 SCF Done:  E(RB3LYP) =  -419.374038844     A.U. after   12 cycles
 SCF Done:  E(RB3LYP) =  -419.373799206     A.U. after   11 cycles
 SCF Done:  E(RB3LYP) =  -419.374320167     A.U. after   11 cycles
 SCF Done:  E(RB3LYP) =  -419.374394927     A.U. after   10 cycles
 SCF Done:  E(RB3LYP) =  -419.374409369     A.U. after    9 cycles
 SCF Done:  E(RB3LYP) =  -419.374410189     A.U. after    7 cycles
 Optimization completed.
    -- Stationary point found.
 Normal termination of Gaussian 16 at Thu Aug  4 07:55:05 2022.

 ----------------------------------------------------------------------
 #N Geom=AllCheck Guess=TCheck SCRF=Check GenChk RB3LYP/6-31G(2df,p) Fr
 eq
 ----------------------------------------------------------------------

 Structure from the checkpoint file:  "NtCCN1CCCpOpC1.chk"
 -------------------
 Title Card Required
 -------------------
 Charge =  0 Multiplicity = 1

                         Standard orientation:
 ---------------------------------------------------------------------
 Center     Atomic      Atomic             Coordinates (Angstroms)
 Number     Number       Type             X           Y           Z
 ---------------------------------------------------------------------
      1          7           0       -3.374887   -0.963937   -0.133556
      2          6           0       -2.578793   -0.128792   -0.084444
      3          6           0       -1.573622    0.938236   -0.008515
      4          7           0       -0.227483    0.428683   -0.177250
      5          6           0        0.789765    1.485138   -0.279711
      6          6           0        2.124786    0.744316   -0.026869
      7          6           0        1.704666   -0.682885    0.420644
      8          8           0        1.778624   -1.621959   -0.636765
      9          6           0        0.255807   -0.473679    0.872187
     10          1           0       -1.714105    1.473940    0.950826
     11          1           0       -1.784455    1.660579   -0.805969
     12          1           0        0.631459    2.266048    0.486310
     13          1           0        0.733977    1.970458   -1.259203
     14          1           0        2.709810    1.250013    0.745266
     15          1           0        2.744894    0.670719   -0.922090
     16          1           0        2.341822   -1.074405    1.216196
     17          1           0        1.090793   -1.374819   -1.267796
     18          1           0        0.212147   -0.008805    1.876189
     19          1           0       -0.314395   -1.405283    0.890273
 ---------------------------------------------------------------------

 SCF Done:  E(RB3LYP) =  -419.374410189     A.U. after    1 cycles

 The electronic state is 1-A.
 Alpha  occ. eigenvalues --  -19.13466 -14.35108 -14.33451 -10.26635 -10.24048
 Alpha  occ. eigenvalues --  -10.22650 -10.22583 -10.21748 -10.19276  -1.02352
 Alpha  occ. eigenvalues --   -0.95835  -0.90461  -0.80273  -0.73984  -0.72133
 Alpha  occ. eigenvalues --   -0.60647  -0.60201  -0.53875  -0.52455  -0.50323
 Alpha  occ. eigenvalues --   -0.48290  -0.44890  -0.44649  -0.42052  -0.39432
 Alpha  occ. eigenvalues --   -0.38903  -0.37373  -0.36071  -0.35944  -0.33622
 Alpha  occ. eigenvalues --   -0.33130  -0.32532  -0.27199  -0.24409
 Alpha virt. eigenvalues --    0.01873   0.03433   0.07294   0.08814   0.10172
 Alpha virt. eigenvalues --    0.11319   0.12881   0.13124   0.14968   0.15384
 Alpha virt. eigenvalues --    0.15813   0.16537   0.17562   0.19957   0.20642

 Mulliken charges:
               1
     1  N   -0.303695
     2  C    0.274937
     3  C   -0.285330
     4  N   -0.085240
     5  C   -0.158958
     6  C   -0.256444
     7  C    0.147820
     8  O   -0.436119
     9  C   -0.198279
    10  H    0.129372
    11  H    0.155403
    12  H    0.086890
    13  H    0.112466
    14  H    0.108979
    15  H    0.120647
    16  H    0.088075
    17  H    0.283117
    18  H    0.081200
    19  H    0.135157
 Sum of Mulliken charges =   0.00000

 Dipole moment (field-independent basis, Debye):
    X=              2.0191    Y=              3.9337    Z=              0.7335  Tot=              4.4821
 Quadrupole moment (field-independent basis, Debye-Ang):
   XX=            -67.2492   YY=            -56.0557   ZZ=            -51.0418
   XY=             -3.8250   XZ=              1.0146   YZ=             -1.5392

  Exact polarizability:  88.608   6.092  75.803   1.085  -0.452  64.008
 Approx polarizability: 116.143  13.568 116.057   1.847   1.874  99.253

                      1                      2                      3
                      A                      A                      A
 Frequencies --     67.4197                91.1147               109.3708
 Red. masses --      3.4832                 5.7369                 2.6614
 Frc consts  --      0.0093                 0.0281                 0.0188
 IR Inten    --      2.2728                 3.5120                 3.8058

                      4                      5                      6
                      A                      A                      A
 Frequencies --    176.3540               304.9527               331.5951
 Red. masses --      3.2007                 3.3017                 3.6752
 Frc consts  --      0.0587                 0.1809                 0.2381
 IR Inten    --      0.5301                 4.4745                 7.9279

                      7                      8                      9
                      A                      A                      A
 Frequencies --    392.6858               401.1476               422.4035
 Red. masses --      3.5256                 2.1211                 2.0328
 Frc consts  --      0.3203                 0.2011                 0.2137
 IR Inten    --      0.7238                 2.0781                 3.7316

                     10                     11                     12
                      A                      A                      A
 Frequencies --    452.2055               490.1625               673.8286
 Red. masses --      1.3266                 4.6618                 4.1925
 Frc consts  --      0.1598                 0.6599                 1.1216
 IR Inten    --     75.5147                11.1852                 0.6776

                     13                     14                     15
                      A                      A                      A
 Frequencies --    745.5354               815.0796               859.6431
 Red. masses --      3.1881                 2.0894                 2.5168
 Frc consts  --      1.0440                 0.8178                 1.0958
 IR Inten    --     11.1594                 2.8120                17.7952

                     16                     17                     18
                      A                      A                      A
 Frequencies --    876.3829               921.7424               933.5538
 Red. masses --      2.4317                 2.5243                 3.5432
 Frc consts  --      1.1004                 1.2636                 1.8194
 IR Inten    --      4.0156                 1.9069                 1.2902

                     19                     20                     21
                      A                      A                      A
 Frequencies --    986.2652              1002.6174              1008.8674
 Red. masses --      2.0048                 2.0590                 2.0666
 Frc consts  --      1.1490                 1.2195                 1.2393
 IR Inten    --     10.3520                 9.5481                 3.4621

                     22                     23                     24
                      A                      A                      A
 Frequencies --   1074.3328              1100.0522              1152.7726
 Red. masses --      1.6282                 1.9933                 2.7037
 Frc consts  --      1.1072                 1.4212                 2.1169
 IR Inten    --      7.5250                56.5799                35.3604

                     25                     26                     27
                      A                      A                      A
 Frequencies --   1175.1358              1195.8331              1231.9508
 Red. masses --      2.5734                 1.1243                 1.2725
 Frc consts  --      2.0938                 0.9472                 1.1379
 IR Inten    --     50.4052                44.4547                 2.6300

                     28                     29                     30
                      A                      A                      A
 Frequencies --   1248.1051              1259.4856              1294.1387
 Red. masses --      1.2870                 1.7890                 1.3093
 Frc consts  --      1.1813                 1.6720                 1.2919
 IR Inten    --      7.7308                 8.3958                18.3586

                     31                     32                     33
                      A                      A                      A
 Frequencies --   1316.9776              1324.4729              1349.3285
 Red. masses --      1.3833                 1.4292                 1.4158
 Frc consts  --      1.4136                 1.4772                 1.5187
 IR Inten    --      2.2628                 5.6740                21.3673

                     34                     35                     36
                      A                      A                      A
 Frequencies --   1372.1254              1409.4671              1440.6635
 Red. masses --      1.5140                 1.4863                 1.2516
 Frc consts  --      1.6794                 1.7397                 1.5306
 IR Inten    --     22.6800                 5.2986                67.6844

                     37                     38                     39
                      A                      A                      A
 Frequencies --   1473.9942              1485.5664              1501.4866
 Red. masses --      1.0781                 1.0868                 1.0882
 Frc consts  --      1.3801                 1.4132                 1.4454
 IR Inten    --      5.6482                 1.8863                 3.4980

                     40                     41                     42
                      A                      A                      A
 Frequencies --   1525.8698              2368.6445              2916.4414
 Red. masses --      1.1015                12.6226                 1.0724
 Frc consts  --      1.5110                41.7252                 5.3740
 IR Inten    --     10.5191                 2.0619                22.1970

                     43                     44                     45
                      A                      A                      A
 Frequencies --   2919.6744              2934.4379              3056.7837
 Red. masses --      1.0714                 1.0729                 1.0850
 Frc consts  --      5.3810                 5.4434                 5.9733
 IR Inten    --     56.4155                87.7305                 7.0646

                     46                     47                     48
                      A                      A                      A
 Frequencies --   3064.8517              3071.2309              3097.2391
 Red. masses --      1.0877                 1.0641                 1.0868
 Frc consts  --      6.0199                 5.9135                 6.1425
 IR Inten    --     25.8252                22.0905                33.3910

                     49                     50                     51
                      A                      A                      A
 Frequencies --   3104.9852              3123.7288              3775.0582
 Red. masses --      1.0900                 1.1045                 1.0654
 Frc consts  --      6.1912                 6.3499                 8.9453
 IR Inten    --     10.9377                18.7760                20.2495

 - Thermochemistry -
 -------------------
 Temperature   298.150 Kelvin.  Pressure   1.00000 Atm.
 Atom     1 has atomic number  7 and mass  14.00307

 Molecular mass:   126.07931 amu.
 Principal axes and moments of inertia in atomic units:
                           1         2         3
     Eigenvalues --   580.121551706.842382060.71766
           X            1.00000  -0.00218   0.00088
           Y            0.00220   0.99984  -0.01751
           Z           -0.00084   0.01751   0.99985
 This molecule is an asymmetric top.
 Rotational symmetry number  1.
 Warning -- assumption of classical behavior for rotation
           may cause significant error
 Rotational temperatures (Kelvin)      0.14930     0.05075     0.04203
 Rotational constants (GHZ):           3.11097     1.05736     0.87578
 Zero-point vibrational energy     421251.6 (Joules/Mol)
                                  100.68154 (Kcal/Mol)
 Warning -- explicit consideration of  11 degrees of freedom as
           vibrations may cause significant error
 Vibrational temperatures:     97.00   131.09   157.36   253.73   438.76
          (Kelvin)            477.09   564.99   577.16   607.74   650.62
                              705.23   969.49  1072.66  1172.72  1236.83
                             1260.92  1326.18  1343.18  1419.02  1442.54
                             1451.54  1545.73  1582.73  1658.58  1690.76
                             1720.54  1772.50  1795.74  1812.12  1861.98
                             1894.84  1905.62  1941.38  1974.18  2027.91
                             2072.79  2120.75  2137.40  2160.30  2195.39
                             3407.95  4196.11  4200.76  4222.00  4398.03
                             4409.64  4418.82  4456.24  4467.38  4494.35
                             5431.47

 Zero-point correction=                           0.160446 (Hartree/Particle)
 Thermal correction to Energy=                    0.169204
 Thermal correction to Enthalpy=                  0.170148
 Thermal correction to Gibbs Free Energy=         0.126351
 Sum of electronic and zero-point Energies=           -419.213964
 Sum of electronic and thermal Energies=              -419.205206
 Sum of electronic and thermal Enthalpies=            -419.204262
 Sum of electronic and thermal Free Energies=         -419.248060

                     E (Thermal)             CV                S
                      KCal/Mol        Cal/Mol-Kelvin    Cal/Mol-Kelvin
 Total                  106.177             32.334             92.180
 Electronic               0.000              0.000              0.000
 Translational            0.889              2.981             40.409
 Rotational               0.889              2.981             29.102
 Vibrational            104.400             26.372             22.669
 Vibration     1          0.598              1.970              4.227
 Vibration     2          0.602              1.955              3.636
 Vibration     3          0.606              1.942              3.280
 Vibration     4          0.628              1.871              2.367
 Vibration     5          0.696              1.664              1.390
 Vibration     6          0.714              1.612              1.252
 Vibration     7          0.760              1.486              0.990
 Vibration     8          0.767              1.468              0.958
 Vibration     9          0.785              1.422              0.884
 Vibration    10          0.811              1.356              0.789
 Vibration    11          0.846              1.272              0.683

                           ! Non-Optimized Parameters !
 Normal termination of Gaussian 16 at Thu Aug  4 08:24:27 2022.
