 Gaussian 16, Revision A.03,
 Gaussian 16:  ES64L-G16RevA.03 25-Dec-2016

 -----------------------------
 # opt freq b3lyp/6-31g(2df,p)
 -----------------------------

 -------------------
 Title Card Required
 -------------------
 Symbolic Z-matrix:
 Charge =  0 Multiplicity = 1

 SCF Done:  E(RB3LYP) =  -320.841904952     A.U. after   13 cycles
 SCF Done:  E(RB3LYP) =  -320.866417580     A.U. after   12 cycles
 SCF Done:  E(RB3LYP) =  -320.866619955     A.U. after   12 cycles
 SCF Done:  E(RB3LYP) =  -320.859598842     A.U. after   14 cycles
 SCF Done:  E(RB3LYP) =  -320.867227635     A.U. after   11 cycles
 SCF Done:  E(RB3LYP) =  -320.867146645     A.U. after   11 cycles
 SCF Done:  E(RB3LYP) =  -320.867152305     A.U. after   11 cycles
 SCF Done:  E(RB3LYP) =  -320.867260565     A.U. after   11 cycles
 SCF Done:  E(RB3LYP) =  -320.867277535     A.U. after    8 cycles
 SCF Done:  E(RB3LYP) =  -320.867282898     A.U. after    8 cycles
 SCF Done:  E(RB3LYP) =  -320.867314002     A.U. after   10 cycles
 SCF Done:  E(RB3LYP) =  -320.867324695     A.U. after   11 cycles
 SCF Done:  E(RB3LYP) =  -320.867350401     A.U. after    9 cycles
 SCF Done:  E(RB3LYP) =  -320.867439105     A.U. after   12 cycles
 SCF Done:  E(RB3LYP) =  -320.867451153     A.U. after    9 cycles
 SCF Done:  E(RB3LYP) =  -320.867460515     A.U. after   10 cycles
 SCF Done:  E(RB3LYP) =  -320.867466113     A.U. after   10 cycles
 SCF Done:  E(RB3LYP) =  -320.867466368     A.U. after    8 cycles
 SCF Done:  E(RB3LYP) =  -320.867466422     A.U. after    7 cycles
 Optimization completed.
    -- Stationary point found.
 Normal termination of Gaussian 16 at Sun Jul  3 11:40:14 2022.

 ----------------------------------------------------------------------
 #N Geom=AllCheck Guess=TCheck SCRF=Check GenChk RB3LYP/6-31G(2df,p) Fr
 eq
 ----------------------------------------------------------------------

 Structure from the checkpoint file:  "NtCC1CNCN1.chk"
 -------------------
 Title Card Required
 -------------------
 Charge =  0 Multiplicity = 1

                         Standard orientation:
 ---------------------------------------------------------------------
 Center     Atomic      Atomic             Coordinates (Angstroms)
 Number     Number       Type             X           Y           Z
 ---------------------------------------------------------------------
      1          7           0        2.858148   -0.043844   -0.383256
      2          6           0        1.783943    0.021101    0.038538
      3          6           0        0.421296    0.082153    0.568597
      4          6           0       -0.424200    1.201647   -0.083826
      5          7           0       -1.758433    0.631660    0.060646
      6          6           0       -1.616833   -0.769142   -0.320956
      7          7           0       -0.345975   -1.160251    0.313182
      8          1           0        0.487431    0.254950    1.649755
      9          1           0       -0.104133    1.345685   -1.129609
     10          1           0       -0.334289    2.154177    0.443839
     11          1           0       -2.452408    1.112052   -0.499541
     12          1           0       -1.584011   -0.923524   -1.417552
     13          1           0       -2.450838   -1.356078    0.081195
     14          1           0        0.176833   -1.794774   -0.276210
 ---------------------------------------------------------------------

 SCF Done:  E(RB3LYP) =  -320.867466422     A.U. after    1 cycles

 The electronic state is 1-A.
 Alpha  occ. eigenvalues --  -14.33629 -14.33544 -14.33336 -10.26232 -10.24667
 Alpha  occ. eigenvalues --  -10.23232 -10.22291  -0.97545  -0.90577  -0.86755
 Alpha  occ. eigenvalues --   -0.77829  -0.65094  -0.63408  -0.57282  -0.51690
 Alpha  occ. eigenvalues --   -0.46242  -0.45694  -0.42661  -0.42024  -0.41023
 Alpha  occ. eigenvalues --   -0.39096  -0.36115  -0.33445  -0.32899  -0.25223
 Alpha  occ. eigenvalues --   -0.23923
 Alpha virt. eigenvalues --    0.02037   0.03300   0.06399   0.10370   0.10493
 Alpha virt. eigenvalues --    0.13171   0.14331   0.14937   0.15644   0.17274
 Alpha virt. eigenvalues --    0.18973   0.21573   0.24285   0.25246   0.29012

 Mulliken charges:
               1
     1  N   -0.321182
     2  C    0.245508
     3  C   -0.055695
     4  C   -0.187984
     5  N   -0.296624
     6  C   -0.103188
     7  N   -0.314173
     8  H    0.134642
     9  H    0.104291
    10  H    0.123843
    11  H    0.232140
    12  H    0.080570
    13  H    0.117264
    14  H    0.240588
 Sum of Mulliken charges =  -0.00000

 Dipole moment (field-independent basis, Debye):
    X=             -3.4252    Y=              0.6992    Z=             -0.8194  Tot=              3.5906
 Quadrupole moment (field-independent basis, Debye-Ang):
   XX=            -51.3352   YY=            -38.6890   ZZ=            -41.5195
   XY=             -0.6289   XZ=              5.7335   YZ=              1.3672

  Exact polarizability:  73.394   1.535  53.306  -1.542   1.908  46.457
 Approx polarizability: 106.676   0.853  76.276  -8.642   3.043  72.081

                      1                      2                      3
                      A                      A                      A
 Frequencies --     43.4584               174.7140               229.7332
 Red. masses --      2.7573                 5.4952                 3.2408
 Frc consts  --      0.0031                 0.0988                 0.1008
 IR Inten    --      5.4463                 8.1635                 5.5850

                      4                      5                      6
                      A                      A                      A
 Frequencies --    291.8676               509.4671               538.7165
 Red. masses --      2.4098                 6.8618                 4.5453
 Frc consts  --      0.1209                 1.0493                 0.7772
 IR Inten    --      3.4117                 8.5267                 4.4316

                      7                      8                      9
                      A                      A                      A
 Frequencies --    584.3337               619.1352               692.8262
 Red. masses --      2.4888                 3.0746                 1.7433
 Frc consts  --      0.5007                 0.6944                 0.4930
 IR Inten    --     36.0281                35.5630                84.7460

                     10                     11                     12
                      A                      A                      A
 Frequencies --    859.3764               902.2907               972.0309
 Red. masses --      2.2989                 2.7863                 2.6335
 Frc consts  --      1.0003                 1.3365                 1.4660
 IR Inten    --     66.0806                 7.8383                 1.8033

                     13                     14                     15
                      A                      A                      A
 Frequencies --   1007.6751              1033.6458              1061.6015
 Red. masses --      2.4952                 2.5481                 2.0304
 Frc consts  --      1.4928                 1.6040                 1.3482
 IR Inten    --      2.3617                 3.9903                 1.0096

                     16                     17                     18
                      A                      A                      A
 Frequencies --   1119.2027              1136.3112              1150.8457
 Red. masses --      2.1335                 2.1307                 3.2630
 Frc consts  --      1.5746                 1.6210                 2.5462
 IR Inten    --     17.3941                27.1580                 8.4501

                     19                     20                     21
                      A                      A                      A
 Frequencies --   1188.6545              1243.8005              1268.1834
 Red. masses --      1.1116                 1.2271                 1.1948
 Frc consts  --      0.9253                 1.1185                 1.1321
 IR Inten    --      3.2730                 3.0381                10.4987

                     22                     23                     24
                      A                      A                      A
 Frequencies --   1318.3985              1356.0831              1393.4572
 Red. masses --      1.1604                 1.3987                 1.3129
 Frc consts  --      1.1884                 1.5154                 1.5020
 IR Inten    --      0.3886                11.5779                18.2901

                     25                     26                     27
                      A                      A                      A
 Frequencies --   1438.1209              1464.5690              1514.6583
 Red. masses --      1.3419                 1.3318                 1.0931
 Frc consts  --      1.6351                 1.6830                 1.4775
 IR Inten    --      9.9690                22.0347                 3.2478

                     28                     29                     30
                      A                      A                      A
 Frequencies --   1547.6315              2357.5747              2895.0805
 Red. masses --      1.0979                12.6539                 1.0741
 Frc consts  --      1.5494                41.4387                 5.3041
 IR Inten    --      5.4874                 7.8585               111.9586

                     31                     32                     33
                      A                      A                      A
 Frequencies --   2959.5422              3027.8489              3041.9596
 Red. masses --      1.0715                 1.0825                 1.0882
 Frc consts  --      5.5294                 5.8471                 5.9329
 IR Inten    --     52.4019                18.6801                50.2195

                     34                     35                     36
                      A                      A                      A
 Frequencies --   3096.6015              3557.4786              3573.9611
 Red. masses --      1.0921                 1.0751                 1.0757
 Frc consts  --      6.1699                 8.0166                 8.0954
 IR Inten    --     23.7679                 3.8658                 6.7646

 - Thermochemistry -
 -------------------
 Temperature   298.150 Kelvin.  Pressure   1.00000 Atm.
 Atom     1 has atomic number  7 and mass  14.00307

 Molecular mass:    97.06400 amu.
 Principal axes and moments of inertia in atomic units:
                           1         2         3
     Eigenvalues --   278.34055 939.592791109.49425
           X            0.99984   0.00467   0.01745
           Y           -0.00504   0.99977   0.02094
           Z           -0.01735  -0.02103   0.99963
 This molecule is an asymmetric top.
 Rotational symmetry number  1.
 Rotational temperatures (Kelvin)      0.31118     0.09218     0.07807
 Rotational constants (GHZ):           6.48393     1.92077     1.62663
 Zero-point vibrational energy     306069.6 (Joules/Mol)
                                   73.15238 (Kcal/Mol)
 Warning -- explicit consideration of   8 degrees of freedom as
           vibrations may cause significant error
 Vibrational temperatures:     62.53   251.37   330.53   419.93   733.01
          (Kelvin)            775.09   840.73   890.80   996.82  1236.45
                             1298.20  1398.54  1449.82  1487.19  1527.41
                             1610.28  1634.90  1655.81  1710.21  1789.55
                             1824.63  1896.88  1951.10  2004.87  2069.14
                             2107.19  2179.26  2226.70  3392.02  4165.38
                             4258.12  4356.40  4376.70  4455.32  5118.42
                             5142.13

 Zero-point correction=                           0.116576 (Hartree/Particle)
 Thermal correction to Energy=                    0.123064
 Thermal correction to Enthalpy=                  0.124009
 Thermal correction to Gibbs Free Energy=         0.085491
 Sum of electronic and zero-point Energies=           -320.750891
 Sum of electronic and thermal Energies=              -320.744402
 Sum of electronic and thermal Enthalpies=            -320.743458
 Sum of electronic and thermal Free Energies=         -320.781976

                     E (Thermal)             CV                S
                      KCal/Mol        Cal/Mol-Kelvin    Cal/Mol-Kelvin
 Total                   77.224             23.076             81.068
 Electronic               0.000              0.000              0.000
 Translational            0.889              2.981             39.629
 Rotational               0.889              2.981             27.164
 Vibrational             75.447             17.115             14.275
 Vibration     1          0.595              1.980              5.095
 Vibration     2          0.627              1.874              2.384
 Vibration     3          0.652              1.796              1.881
 Vibration     4          0.687              1.689              1.463
 Vibration     5          0.865              1.229              0.635
 Vibration     6          0.894              1.164              0.568
 Vibration     7          0.941              1.065              0.477
 Vibration     8          0.979              0.991              0.418

 Optimization completed.
    -- Stationary point found.
 Normal termination of Gaussian 16 at Sun Jul  3 11:53:50 2022.
