 Gaussian 16, Revision A.03,
 Gaussian 16:  ES64L-G16RevA.03 25-Dec-2016

 -----------------------------
 # opt freq b3lyp/6-31g(2df,p)
 -----------------------------

 -------------------
 Title Card Required
 -------------------
 Symbolic Z-matrix:
 Charge =  0 Multiplicity = 1

 SCF Done:  E(RB3LYP) =  -427.847458870     A.U. after   14 cycles
 SCF Done:  E(RB3LYP) =  -427.873205874     A.U. after   14 cycles
 SCF Done:  E(RB3LYP) =  -427.872867046     A.U. after   14 cycles
 SCF Done:  E(RB3LYP) =  -427.870807604     A.U. after   14 cycles
 SCF Done:  E(RB3LYP) =  -427.870070410     A.U. after   13 cycles
 SCF Done:  E(RB3LYP) =  -427.873543518     A.U. after   10 cycles
 SCF Done:  E(RB3LYP) =  -427.873843453     A.U. after   13 cycles
 SCF Done:  E(RB3LYP) =  -427.873650070     A.U. after   13 cycles
 SCF Done:  E(RB3LYP) =  -427.874210044     A.U. after   12 cycles
 SCF Done:  E(RB3LYP) =  -427.874467937     A.U. after   13 cycles
 SCF Done:  E(RB3LYP) =  -427.876410620     A.U. after   13 cycles
 SCF Done:  E(RB3LYP) =  -427.876554746     A.U. after   13 cycles
 SCF Done:  E(RB3LYP) =  -427.876701180     A.U. after   13 cycles
 SCF Done:  E(RB3LYP) =  -427.876780088     A.U. after   13 cycles
 SCF Done:  E(RB3LYP) =  -427.876813038     A.U. after   12 cycles
 SCF Done:  E(RB3LYP) =  -427.876821327     A.U. after   11 cycles
 SCF Done:  E(RB3LYP) =  -427.876822629     A.U. after   11 cycles
 SCF Done:  E(RB3LYP) =  -427.876822757     A.U. after    8 cycles
 SCF Done:  E(RB3LYP) =  -427.876822864     A.U. after    8 cycles
 Optimization completed.
    -- Stationary point found.
 Normal termination of Gaussian 16 at Thu Aug  4 03:02:33 2022.

 ----------------------------------------------------------------------
 #N Geom=AllCheck Guess=TCheck SCRF=Check GenChk RB3LYP/6-31G(2df,p) Fr
 eq
 ----------------------------------------------------------------------

 Structure from the checkpoint file:  "NtCCc1cnnnn1.chk"
 -------------------
 Title Card Required
 -------------------
 Charge =  0 Multiplicity = 1

                         Standard orientation:
 ---------------------------------------------------------------------
 Center     Atomic      Atomic             Coordinates (Angstroms)
 Number     Number       Type             X           Y           Z
 ---------------------------------------------------------------------
      1          7           0       -3.358276    0.747801   -0.000086
      2          6           0       -2.514326   -0.040395    0.000221
      3          6           0       -1.427527   -1.014864   -0.000107
      4          6           0       -0.046194   -0.392316    0.000158
      5          6           0        0.219581    0.973901    0.000041
      6          7           0        1.472918    1.407195   -0.000010
      7          7           0        2.455422    0.512145   -0.000058
      8          7           0        2.207655   -0.779873   -0.000036
      9          7           0        0.966981   -1.251379    0.000075
     10          1           0       -1.519455   -1.667323   -0.875979
     11          1           0       -1.519525   -1.668358    0.874945
     12          1           0       -0.563119    1.726508   -0.000038
 ---------------------------------------------------------------------

 SCF Done:  E(RB3LYP) =  -427.876822864     A.U. after    1 cycles

 The electronic state is 1-A.
 Alpha  occ. eigenvalues --  -14.43520 -14.43226 -14.41614 -14.41468 -14.36300
 Alpha  occ. eigenvalues --  -10.30177 -10.28406 -10.28106 -10.25524  -1.12659
 Alpha  occ. eigenvalues --   -0.99822  -0.94106  -0.92395  -0.82855  -0.75025
 Alpha  occ. eigenvalues --   -0.72286  -0.61397  -0.56092  -0.53243  -0.52443
 Alpha  occ. eigenvalues --   -0.50151  -0.48704  -0.42383  -0.38913  -0.38695
 Alpha  occ. eigenvalues --   -0.36578  -0.36462  -0.36227  -0.34774  -0.29607
 Alpha  occ. eigenvalues --   -0.27343
 Alpha virt. eigenvalues --   -0.10976  -0.09379  -0.00048   0.00746   0.06033
 Alpha virt. eigenvalues --    0.07114   0.10452   0.13420   0.15015   0.15443
 Alpha virt. eigenvalues --    0.19351   0.22884   0.27782   0.29584   0.31062

 Mulliken charges:
               1
     1  N   -0.290169
     2  C    0.271517
     3  C   -0.424671
     4  C    0.354578
     5  C   -0.003717
     6  N   -0.158311
     7  N   -0.047012
     8  N   -0.055354
     9  N   -0.218204
    10  H    0.198051
    11  H    0.198019
    12  H    0.175273
 Sum of Mulliken charges =  -0.00000

 Dipole moment (field-independent basis, Debye):
    X=             -1.9327    Y=             -1.7066    Z=             -0.0001  Tot=              2.5784
 Quadrupole moment (field-independent basis, Debye-Ang):
   XX=            -70.0420   YY=            -52.6269   ZZ=            -47.2850
   XY=              6.4097   XZ=              0.0005   YZ=              0.0005

  Exact polarizability:  90.345  -3.930  68.587   0.001  -0.001  37.746
 Approx polarizability: 148.041 -12.768 135.200   0.002  -0.006  62.139

                      1                      2                      3
                      A                      A                      A
 Frequencies --     25.0349               124.2401               135.2830
 Red. masses --      4.4591                10.2350                 4.2845
 Frc consts  --      0.0016                 0.0931                 0.0462
 IR Inten    --     18.8835                10.3104                 0.1901

                      4                      5                      6
                      A                      A                      A
 Frequencies --    316.4443               323.0080               364.5589
 Red. masses --      8.0094                 7.6385                 2.9389
 Frc consts  --      0.4725                 0.4696                 0.2301
 IR Inten    --      5.6006                 0.1069                 0.6197

                      7                      8                      9
                      A                      A                      A
 Frequencies --    440.0262               457.7723               654.6631
 Red. masses --      4.5414                10.5082                 7.0980
 Frc consts  --      0.5181                 1.2974                 1.7924
 IR Inten    --      0.0466                 3.7754                 0.7404

                     10                     11                     12
                      A                      A                      A
 Frequencies --    683.1402               827.0166               829.3145
 Red. masses --      9.4285                 5.9706                 9.0023
 Frc consts  --      2.5925                 2.4060                 3.6479
 IR Inten    --      1.4485                 0.6075                 0.4706

                     13                     14                     15
                      A                      A                      A
 Frequencies --    896.2113               912.7867               968.9128
 Red. masses --     10.3082                 1.6798                 3.9298
 Frc consts  --      4.8782                 0.8246                 2.1736
 IR Inten    --      0.7804                 0.5607                 2.7045

                     16                     17                     18
                      A                      A                      A
 Frequencies --    996.8457              1070.7097              1094.5234
 Red. masses --      1.6838                 8.8672                 3.8735
 Frc consts  --      0.9858                 5.9893                 2.7340
 IR Inten    --      3.8612                 0.9985                12.0527

                     19                     20                     21
                      A                      A                      A
 Frequencies --   1200.1999              1220.7128              1301.6465
 Red. masses --      4.1142                 1.1112                 4.0559
 Frc consts  --      3.4918                 0.9756                 4.0488
 IR Inten    --      1.0411                 0.1300                30.3786

                     22                     23                     24
                      A                      A                      A
 Frequencies --   1316.8836              1369.3055              1439.0519
 Red. masses --      1.6518                 2.7181                 1.0892
 Frc consts  --      1.6877                 3.0027                 1.3290
 IR Inten    --      5.1931                 4.1334                16.6802

                     25                     26                     27
                      A                      A                      A
 Frequencies --   1520.1031              1581.8330              2372.3406
 Red. masses --      8.4979                 4.8491                12.6189
 Frc consts  --     11.5694                 7.1488                41.8434
 IR Inten    --     15.6829                45.3739                 3.2578

                     28                     29                     30
                      A                      A                      A
 Frequencies --   3051.0205              3085.9359              3186.3856
 Red. masses --      1.0596                 1.1003                 1.0932
 Frc consts  --      5.8113                 6.1733                 6.5394
 IR Inten    --      1.3503                 0.7764                 1.1432

 - Thermochemistry -
 -------------------
 Temperature   298.150 Kelvin.  Pressure   1.00000 Atm.
 Atom     1 has atomic number  7 and mass  14.00307

 Molecular mass:   121.03885 amu.
 Principal axes and moments of inertia in atomic units:
                           1         2         3
     Eigenvalues --   376.290491647.879282013.13614
           X            0.99993   0.01157   0.00000
           Y           -0.01157   0.99993   0.00001
           Z           -0.00000  -0.00001   1.00000
 This molecule is an asymmetric top.
 Rotational symmetry number  1.
 Rotational temperatures (Kelvin)      0.23018     0.05256     0.04302
 Rotational constants (GHZ):           4.79614     1.09519     0.89648
 Zero-point vibrational energy     201965.0 (Joules/Mol)
                                   48.27079 (Kcal/Mol)
 Warning -- explicit consideration of   8 degrees of freedom as
           vibrations may cause significant error
 Vibrational temperatures:     36.02   178.75   194.64   455.29   464.74
          (Kelvin)            524.52   633.10   658.63   941.91   982.89
                             1189.89  1193.20  1289.45  1313.30  1394.05
                             1434.24  1540.51  1574.78  1726.82  1756.33
                             1872.78  1894.70  1970.13  2070.47  2187.09
                             2275.90  3413.27  4389.74  4439.97  4584.50

 Zero-point correction=                           0.076924 (Hartree/Particle)
 Thermal correction to Energy=                    0.084379
 Thermal correction to Enthalpy=                  0.085324
 Thermal correction to Gibbs Free Energy=         0.043428
 Sum of electronic and zero-point Energies=           -427.799898
 Sum of electronic and thermal Energies=              -427.792443
 Sum of electronic and thermal Enthalpies=            -427.791499
 Sum of electronic and thermal Free Energies=         -427.833394

                     E (Thermal)             CV                S
                      KCal/Mol        Cal/Mol-Kelvin    Cal/Mol-Kelvin
 Total                   52.949             25.723             88.176
 Electronic               0.000              0.000              0.000
 Translational            0.889              2.981             40.287
 Rotational               0.889              2.981             28.614
 Vibrational             51.171             19.761             19.275
 Vibration     1          0.593              1.985              6.188
 Vibration     2          0.610              1.929              3.033
 Vibration     3          0.613              1.918              2.870
 Vibration     4          0.703              1.642              1.328
 Vibration     5          0.708              1.629              1.295
 Vibration     6          0.738              1.545              1.103
 Vibration     7          0.800              1.383              0.827
 Vibration     8          0.816              1.344              0.773

 Optimization completed.
    -- Stationary point found.
 Normal termination of Gaussian 16 at Thu Aug  4 03:20:34 2022.
