 Gaussian 16, Revision A.03,
 Gaussian 16:  ES64L-G16RevA.03 25-Dec-2016

 -----------------------------
 # opt freq b3lyp/6-31g(2df,p)
 -----------------------------

 -------------------
 Title Card Required
 -------------------
 Symbolic Z-matrix:
 Charge =  0 Multiplicity = 1

 SCF Done:  E(RB3LYP) =  -403.292628443     A.U. after   14 cycles
 SCF Done:  E(RB3LYP) =  -403.317417811     A.U. after   12 cycles
 SCF Done:  E(RB3LYP) =  -403.317050107     A.U. after   14 cycles
 SCF Done:  E(RB3LYP) =  -403.317652750     A.U. after   12 cycles
 SCF Done:  E(RB3LYP) =  -403.319790181     A.U. after   12 cycles
 SCF Done:  E(RB3LYP) =  -403.319726658     A.U. after   11 cycles
 SCF Done:  E(RB3LYP) =  -403.318822432     A.U. after   14 cycles
 SCF Done:  E(RB3LYP) =  -403.320407129     A.U. after   11 cycles
 SCF Done:  E(RB3LYP) =  -403.320466636     A.U. after   10 cycles
 SCF Done:  E(RB3LYP) =  -403.320475657     A.U. after    9 cycles
 SCF Done:  E(RB3LYP) =  -403.320478311     A.U. after    9 cycles
 SCF Done:  E(RB3LYP) =  -403.320478806     A.U. after    7 cycles
 SCF Done:  E(RB3LYP) =  -403.320478903     A.U. after    7 cycles
 Optimization completed.
    -- Stationary point found.
 Normal termination of Gaussian 16 at Thu Aug  4 00:03:40 2022.

 ----------------------------------------------------------------------
 #N Geom=AllCheck Guess=TCheck SCRF=Check GenChk RB3LYP/6-31G(2df,p) Fr
 eq
 ----------------------------------------------------------------------

 Structure from the checkpoint file:  "NtCCCCC1CCO1.chk"
 -------------------
 Title Card Required
 -------------------
 Charge =  0 Multiplicity = 1

                         Standard orientation:
 ---------------------------------------------------------------------
 Center     Atomic      Atomic             Coordinates (Angstroms)
 Number     Number       Type             X           Y           Z
 ---------------------------------------------------------------------
      1          7           0       -4.017567   -1.118813    0.060781
      2          6           0       -3.209210   -0.295364   -0.001710
      3          6           0       -2.170146    0.729927   -0.072833
      4          6           0       -0.750800    0.145252    0.066570
      5          6           0        0.318626    1.239963    0.014260
      6          6           0        1.752636    0.724600   -0.005313
      7          6           0        2.250597   -0.281710    1.060418
      8          6           0        2.624563   -1.154578   -0.153015
      9          8           0        1.985318   -0.235360   -1.065697
     10          1           0       -2.359904    1.467986    0.715866
     11          1           0       -2.270074    1.260220   -1.027223
     12          1           0       -0.570480   -0.571036   -0.739674
     13          1           0       -0.693058   -0.410949    1.007995
     14          1           0        0.210620    1.927673    0.864381
     15          1           0        0.172053    1.843172   -0.892020
     16          1           0        2.431890    1.582685   -0.114119
     17          1           0        1.467651   -0.703317    1.692859
     18          1           0        3.073402    0.058414    1.690418
     19          1           0        2.179011   -2.154138   -0.201488
     20          1           0        3.701720   -1.234682   -0.347143
 ---------------------------------------------------------------------

 SCF Done:  E(RB3LYP) =  -403.320478903     A.U. after    1 cycles

 The electronic state is 1-A.
 Alpha  occ. eigenvalues --  -19.13715 -14.32299 -10.24439 -10.23671 -10.23532
 Alpha  occ. eigenvalues --  -10.21660 -10.20511 -10.19898 -10.19632  -1.04212
 Alpha  occ. eigenvalues --   -0.89767  -0.82368  -0.76455  -0.74108  -0.67651
 Alpha  occ. eigenvalues --   -0.62161  -0.55139  -0.51963  -0.49974  -0.49871
 Alpha  occ. eigenvalues --   -0.47754  -0.45734  -0.43668  -0.41364  -0.38914
 Alpha  occ. eigenvalues --   -0.38519  -0.37300  -0.35755  -0.34969  -0.32541
 Alpha  occ. eigenvalues --   -0.31945  -0.31830  -0.31030  -0.25393
 Alpha virt. eigenvalues --    0.03646   0.04299   0.07990   0.08401   0.09087
 Alpha virt. eigenvalues --    0.09239   0.10827   0.12397   0.13892   0.15874
 Alpha virt. eigenvalues --    0.16393   0.17179   0.17482   0.19197   0.19621

 Mulliken charges:
               1
     1  N   -0.305077
     2  C    0.256256
     3  C   -0.341709
     4  C   -0.179780
     5  C   -0.227199
     6  C    0.150092
     7  C   -0.294502
     8  C   -0.057837
     9  O   -0.291430
    10  H    0.149217
    11  H    0.153487
    12  H    0.141010
    13  H    0.117674
    14  H    0.102376
    15  H    0.111677
    16  H    0.074983
    17  H    0.113982
    18  H    0.112146
    19  H    0.109981
    20  H    0.104653
 Sum of Mulliken charges =   0.00000

 Dipole moment (field-independent basis, Debye):
    X=              3.4615    Y=              2.6104    Z=              1.4233  Tot=              4.5631
 Quadrupole moment (field-independent basis, Debye-Ang):
   XX=            -69.7249   YY=            -53.6821   ZZ=            -55.2882
   XY=            -10.2652   XZ=              3.9812   YZ=             -0.2527

  Exact polarizability:  96.208   4.237  78.613   0.686  -0.137  63.928
 Approx polarizability: 119.580  13.564 119.640  -0.444  -0.700  99.582

                      1                      2                      3
                      A                      A                      A
 Frequencies --     54.2661                67.8045                79.4879
 Red. masses --      2.8154                 3.1944                 2.6591
 Frc consts  --      0.0049                 0.0087                 0.0099
 IR Inten    --      4.5039                 2.2260                 1.3450

                      4                      5                      6
                      A                      A                      A
 Frequencies --    114.7741               143.1415               241.7043
 Red. masses --      3.3894                 2.6258                 3.9954
 Frc consts  --      0.0263                 0.0317                 0.1375
 IR Inten    --      3.3379                 3.7800                 7.0354

                      7                      8                      9
                      A                      A                      A
 Frequencies --    293.8283               323.7999               399.9584
 Red. masses --      4.3648                 2.3879                 3.4483
 Frc consts  --      0.2220                 0.1475                 0.3250
 IR Inten    --      0.2776                 3.3956                 0.6598

                     10                     11                     12
                      A                      A                      A
 Frequencies --    522.8610               603.7114               711.9458
 Red. masses --      5.7963                 3.1992                 2.2848
 Frc consts  --      0.9336                 0.6870                 0.6823
 IR Inten    --      1.8392                 0.6319                 1.4636

                     13                     14                     15
                      A                      A                      A
 Frequencies --    739.4792               801.0364               825.6288
 Red. masses --      1.1604                 1.3047                 1.4623
 Frc consts  --      0.3739                 0.4932                 0.5873
 IR Inten    --      1.1164                 0.9381                 4.0897

                     16                     17                     18
                      A                      A                      A
 Frequencies --    875.6546               935.0693               941.5409
 Red. masses --      3.6760                 2.3869                 3.7075
 Frc consts  --      1.6607                 1.2296                 1.9365
 IR Inten    --      7.6740                16.2041                 1.1599

                     19                     20                     21
                      A                      A                      A
 Frequencies --    975.1157               992.6248              1022.7410
 Red. masses --      2.6931                 2.0608                 6.8571
 Frc consts  --      1.5087                 1.1963                 4.2259
 IR Inten    --      2.6265                 3.9240                95.4260

                     22                     23                     24
                      A                      A                      A
 Frequencies --   1037.1033              1094.1160              1117.1583
 Red. masses --      2.9674                 2.3574                 2.0091
 Frc consts  --      1.8805                 1.6627                 1.4773
 IR Inten    --      6.9373                 7.7778                 4.8334

                     25                     26                     27
                      A                      A                      A
 Frequencies --   1132.4210              1166.7326              1186.7705
 Red. masses --      2.2503                 1.1609                 1.2195
 Frc consts  --      1.7002                 0.9311                 1.0120
 IR Inten    --      9.3970                 0.2600                 0.7356

                     28                     29                     30
                      A                      A                      A
 Frequencies --   1215.4527              1256.9014              1265.7447
 Red. masses --      1.2441                 1.4795                 1.3370
 Frc consts  --      1.0829                 1.3771                 1.2620
 IR Inten    --      1.6877                 5.8497                 1.7517

                     31                     32                     33
                      A                      A                      A
 Frequencies --   1283.6264              1310.7242              1326.6083
 Red. masses --      1.2171                 1.2053                 1.1185
 Frc consts  --      1.1815                 1.2201                 1.1598
 IR Inten    --      0.3730                 1.1851                 0.6425

                     34                     35                     36
                      A                      A                      A
 Frequencies --   1353.5500              1371.7540              1383.0435
 Red. masses --      1.5505                 1.3413                 1.5846
 Frc consts  --      1.6736                 1.4871                 1.7859
 IR Inten    --      5.4541                 6.0124                12.8530

                     37                     38                     39
                      A                      A                      A
 Frequencies --   1413.7726              1466.8841              1471.7888
 Red. masses --      1.4056                 1.0895                 1.0807
 Frc consts  --      1.6553                 1.3813                 1.3793
 IR Inten    --     11.8965                 0.3263                 5.4006

                     40                     41                     42
                      A                      A                      A
 Frequencies --   1492.6636              1506.5985              1531.1152
 Red. masses --      1.1065                 1.0909                 1.1148
 Frc consts  --      1.4525                 1.4589                 1.5398
 IR Inten    --      6.9588                 3.1913                 0.2328

                     43                     44                     45
                      A                      A                      A
 Frequencies --   2362.7751              2987.5860              3013.7914
 Red. masses --     12.6109                 1.0809                 1.0610
 Frc consts  --     41.4804                 5.6842                 5.6778
 IR Inten    --     11.2055                43.3845                72.7891

                     46                     47                     48
                      A                      A                      A
 Frequencies --   3018.4054              3035.4835              3046.1719
 Red. masses --      1.0607                 1.0583                 1.0963
 Frc consts  --      5.6936                 5.7453                 5.9936
 IR Inten    --     52.1854                 4.0789                13.9089

                     49                     50                     51
                      A                      A                      A
 Frequencies --   3056.5412              3064.2519              3071.3228
 Red. masses --      1.0682                 1.1074                 1.0985
 Frc consts  --      5.8800                 6.1265                 6.1053
 IR Inten    --     22.3810                28.9155                 2.6024

                     52                     53                     54
                      A                      A                      A
 Frequencies --   3083.4136              3109.8864              3136.8842
 Red. masses --      1.0599                 1.1027                 1.1084
 Frc consts  --      5.9370                 6.2837                 6.4261
 IR Inten    --     21.4328                20.4942                28.5506

 - Thermochemistry -
 -------------------
 Temperature   298.150 Kelvin.  Pressure   1.00000 Atm.
 Atom     1 has atomic number  7 and mass  14.00307

 Molecular mass:   125.08406 amu.
 Principal axes and moments of inertia in atomic units:
                           1         2         3
     Eigenvalues --   467.344112670.667722833.44519
           X            0.99980  -0.01770   0.00955
           Y            0.01784   0.99974  -0.01438
           Z           -0.00929   0.01455   0.99985
 This molecule is an asymmetric top.
 Rotational symmetry number  1.
 Warning -- assumption of classical behavior for rotation
           may cause significant error
 Rotational temperatures (Kelvin)      0.18533     0.03243     0.03057
 Rotational constants (GHZ):           3.86170     0.67576     0.63694
 Zero-point vibrational energy     448822.2 (Joules/Mol)
                                  107.27109 (Kcal/Mol)
 Warning -- explicit consideration of  11 degrees of freedom as
           vibrations may cause significant error
 Vibrational temperatures:     78.08    97.56   114.37   165.13   205.95
          (Kelvin)            347.76   422.75   465.88   575.45   752.28
                              868.61  1024.33  1063.95  1152.51  1187.90
                             1259.87  1345.36  1354.67  1402.97  1428.17
                             1471.50  1492.16  1574.19  1607.34  1629.30
                             1678.67  1707.50  1748.77  1808.40  1821.12
                             1846.85  1885.84  1908.69  1947.46  1973.65
                             1989.89  2034.10  2110.52  2117.58  2147.61
                             2167.66  2202.93  3399.51  4298.47  4336.17
                             4342.81  4367.38  4382.76  4397.68  4408.78
                             4418.95  4436.34  4474.43  4513.28

 Zero-point correction=                           0.170947 (Hartree/Particle)
 Thermal correction to Energy=                    0.180425
 Thermal correction to Enthalpy=                  0.181369
 Thermal correction to Gibbs Free Energy=         0.134998
 Sum of electronic and zero-point Energies=           -403.149532
 Sum of electronic and thermal Energies=              -403.140054
 Sum of electronic and thermal Enthalpies=            -403.139110
 Sum of electronic and thermal Free Energies=         -403.185481

                     E (Thermal)             CV                S
                      KCal/Mol        Cal/Mol-Kelvin    Cal/Mol-Kelvin
 Total                  113.218             33.290             97.597
 Electronic               0.000              0.000              0.000
 Translational            0.889              2.981             40.385
 Rotational               0.889              2.981             29.649
 Vibrational            111.441             27.328             27.563
 Vibration     1          0.596              1.976              4.656
 Vibration     2          0.598              1.970              4.216
 Vibration     3          0.600              1.963              3.903
 Vibration     4          0.608              1.937              3.187
 Vibration     5          0.616              1.910              2.761
 Vibration     6          0.658              1.776              1.790
 Vibration     7          0.689              1.685              1.452
 Vibration     8          0.708              1.628              1.291
 Vibration     9          0.766              1.470              0.963
 Vibration    10          0.878              1.199              0.603
 Vibration    11          0.962              1.024              0.443

 Optimization completed.
    -- Stationary point found.
 Normal termination of Gaussian 16 at Thu Aug  4 00:31:31 2022.
