 Gaussian 16, Revision A.03,
 Gaussian 16:  ES64L-G16RevA.03 25-Dec-2016

 -----------------------------
 # opt freq b3lyp/6-31g(2df,p)
 -----------------------------

 -------------------
 Title Card Required
 -------------------
 Symbolic Z-matrix:
 Charge =  0 Multiplicity = 1

 SCF Done:  E(RB3LYP) =  -393.620556181     A.U. after   14 cycles
 SCF Done:  E(RB3LYP) =  -393.621926173     A.U. after   13 cycles
 SCF Done:  E(RB3LYP) =  -393.620987779     A.U. after   14 cycles
 SCF Done:  E(RB3LYP) =  -393.622351218     A.U. after   12 cycles
 SCF Done:  E(RB3LYP) =  -393.622396634     A.U. after   12 cycles
 SCF Done:  E(RB3LYP) =  -393.622484135     A.U. after   11 cycles
 SCF Done:  E(RB3LYP) =  -393.622487525     A.U. after    9 cycles
 Optimization completed.
    -- Stationary point found.
 Normal termination of Gaussian 16 at Mon Jul  4 00:30:43 2022.

 ----------------------------------------------------------------------
 #N Geom=AllCheck Guess=TCheck SCRF=Check GenChk RB3LYP/6-31G(2df,p) Fr
 eq
 ----------------------------------------------------------------------

 Structure from the checkpoint file:  "NtCC1dNOCdNC1.chk"
 -------------------
 Title Card Required
 -------------------
 Charge =  0 Multiplicity = 1

                         Standard orientation:
 ---------------------------------------------------------------------
 Center     Atomic      Atomic             Coordinates (Angstroms)
 Number     Number       Type             X           Y           Z
 ---------------------------------------------------------------------
      1          7           0        3.160512   -0.004226   -0.103329
      2          6           0        2.008107   -0.083985   -0.038874
      3          6           0        0.577889   -0.068588    0.055758
      4          7           0        0.002791   -1.215240    0.027306
      5          8           0       -1.392592   -1.201274    0.096769
      6          6           0       -2.033744   -0.007137   -0.122343
      7          7           0       -1.544633    1.150828   -0.138965
      8          6           0       -0.126332    1.265312    0.166252
      9          1           0       -3.087751   -0.200400   -0.304401
     10          1           0        0.002285    1.667617    1.180455
     11          1           0        0.339990    1.989831   -0.510055
 ---------------------------------------------------------------------

 SCF Done:  E(RB3LYP) =  -393.622487525     A.U. after    1 cycles

 The electronic state is 1-A.
 Alpha  occ. eigenvalues --  -19.24601 -14.43645 -14.36270 -14.35783 -10.30706
 Alpha  occ. eigenvalues --  -10.29814 -10.26486 -10.24976  -1.15639  -0.95816
 Alpha  occ. eigenvalues --   -0.94982  -0.91781  -0.76266  -0.73405  -0.61698
 Alpha  occ. eigenvalues --   -0.56384  -0.55553  -0.51807  -0.46539  -0.45245
 Alpha  occ. eigenvalues --   -0.42159  -0.40519  -0.38605  -0.36671  -0.36093
 Alpha  occ. eigenvalues --   -0.34599  -0.29300  -0.28232
 Alpha virt. eigenvalues --   -0.08822  -0.00803  -0.00518   0.07017   0.07209
 Alpha virt. eigenvalues --    0.09251   0.12197   0.14536   0.15995   0.17547
 Alpha virt. eigenvalues --    0.20915   0.24906   0.31113   0.32513   0.34931

 Mulliken charges:
               1
     1  N   -0.299663
     2  C    0.273718
     3  C    0.206772
     4  N   -0.091869
     5  O   -0.228614
     6  C    0.160591
     7  N   -0.242507
     8  C   -0.251189
     9  H    0.156703
    10  H    0.159381
    11  H    0.156677
 Sum of Mulliken charges =  -0.00000

 Dipole moment (field-independent basis, Debye):
    X=             -2.7202    Y=              1.2368    Z=              0.4201  Tot=              3.0175
 Quadrupole moment (field-independent basis, Debye-Ang):
   XX=            -52.7818   YY=            -47.5002   ZZ=            -42.7407
   XY=              3.1754   XZ=              0.6268   YZ=              0.9441

  Exact polarizability:  89.253   6.641  55.350   0.563   0.723  34.282
 Approx polarizability: 145.175  23.915 103.902  -0.429  -0.052  54.087

                      1                      2                      3
                      A                      A                      A
 Frequencies --     47.4678               163.6976               203.6700
 Red. masses --      3.0194                 8.6797                 7.8838
 Frc consts  --      0.0040                 0.1370                 0.1927
 IR Inten    --      4.4957                 5.6198                 0.7199

                      4                      5                      6
                      A                      A                      A
 Frequencies --    411.4180               466.1113               530.9912
 Red. masses --      6.3574                 8.6788                 2.8935
 Frc consts  --      0.6340                 1.1109                 0.4807
 IR Inten    --     17.7689                 2.5428                 9.7692

                      7                      8                      9
                      A                      A                      A
 Frequencies --    541.2574               566.3892               586.4284
 Red. masses --      9.0781                 8.9840                 6.4748
 Frc consts  --      1.5669                 1.6980                 1.3119
 IR Inten    --      6.2610                 3.2794                 0.6682

                     10                     11                     12
                      A                      A                      A
 Frequencies --    773.3304               910.5562               945.6590
 Red. masses --      8.8570                 8.3457                 2.7003
 Frc consts  --      3.1208                 4.0769                 1.4228
 IR Inten    --      7.7822                55.1063                 4.3439

                     13                     14                     15
                      A                      A                      A
 Frequencies --    949.8465              1002.7959              1026.3414
 Red. masses --      2.2533                 4.1230                 2.1915
 Frc consts  --      1.1978                 2.4428                 1.3601
 IR Inten    --      2.3813                 1.6269                 2.6960

                     16                     17                     18
                      A                      A                      A
 Frequencies --   1065.8600              1217.7270              1253.8445
 Red. masses --      4.8152                 4.0208                 1.1214
 Frc consts  --      3.2231                 3.5129                 1.0387
 IR Inten    --    217.9603                19.6030                 3.9434

                     19                     20                     21
                      A                      A                      A
 Frequencies --   1373.9939              1390.2515              1481.6009
 Red. masses --      1.3614                 1.4421                 1.0924
 Frc consts  --      1.5143                 1.6422                 1.4128
 IR Inten    --      1.2947                 5.3006                 1.7007

                     22                     23                     24
                      A                      A                      A
 Frequencies --   1652.3785              1755.6478              2348.6109
 Red. masses --      8.8685                 8.6049                12.6819
 Frc consts  --     14.2665                15.6268                41.2150
 IR Inten    --     13.9542                95.3586                 0.2771

                     25                     26                     27
                      A                      A                      A
 Frequencies --   3017.3150              3063.5815              3184.4656
 Red. masses --      1.0675                 1.0945                 1.0945
 Frc consts  --      5.7261                 6.0525                 6.5391
 IR Inten    --     12.4565                 7.9124                 7.9978

 - Thermochemistry -
 -------------------
 Temperature   298.150 Kelvin.  Pressure   1.00000 Atm.
 Atom     1 has atomic number  7 and mass  14.00307

 Molecular mass:   109.02761 amu.
 Principal axes and moments of inertia in atomic units:
                           1         2         3
     Eigenvalues --   325.983691139.463531444.79499
           X            0.99998   0.00530   0.00245
           Y           -0.00533   0.99991   0.01194
           Z           -0.00239  -0.01196   0.99993
 This molecule is an asymmetric top.
 Rotational symmetry number  1.
 Rotational temperatures (Kelvin)      0.26570     0.07601     0.05995
 Rotational constants (GHZ):           5.53629     1.58385     1.24913
 Zero-point vibrational energy     190991.2 (Joules/Mol)
                                   45.64800 (Kcal/Mol)
 Warning -- explicit consideration of   9 degrees of freedom as
           vibrations may cause significant error
 Vibrational temperatures:     68.30   235.52   293.04   591.94   670.63
          (Kelvin)            763.98   778.75   814.91   843.74  1112.65
                             1310.09  1360.59  1366.62  1442.80  1476.68
                             1533.53  1752.04  1804.00  1976.87  2000.26
                             2131.69  2377.40  2525.99  3379.13  4341.24
                             4407.81  4581.74

 Zero-point correction=                           0.072745 (Hartree/Particle)
 Thermal correction to Energy=                    0.079267
 Thermal correction to Enthalpy=                  0.080211
 Thermal correction to Gibbs Free Energy=         0.041224
 Sum of electronic and zero-point Energies=           -393.549743
 Sum of electronic and thermal Energies=              -393.543220
 Sum of electronic and thermal Enthalpies=            -393.542276
 Sum of electronic and thermal Free Energies=         -393.581264

                     E (Thermal)             CV                S
                      KCal/Mol        Cal/Mol-Kelvin    Cal/Mol-Kelvin
 Total                   49.741             22.777             82.056
 Electronic               0.000              0.000              0.000
 Translational            0.889              2.981             39.976
 Rotational               0.889              2.981             27.775
 Vibrational             47.963             16.815             14.306
 Vibration     1          0.595              1.979              4.920
 Vibration     2          0.623              1.887              2.507
 Vibration     3          0.639              1.835              2.100
 Vibration     4          0.775              1.445              0.922
 Vibration     5          0.823              1.325              0.749
 Vibration     6          0.886              1.181              0.585
 Vibration     7          0.896              1.159              0.563
 Vibration     8          0.922              1.104              0.511
 Vibration     9          0.944              1.061              0.474

                           ! Non-Optimized Parameters !
 Normal termination of Gaussian 16 at Mon Jul  4 00:45:02 2022.
