 Gaussian 16, Revision A.03,
 Gaussian 16:  ES64L-G16RevA.03 25-Dec-2016

 -----------------------------
 # opt freq b3lyp/6-31g(2df,p)
 -----------------------------

 -------------------
 Title Card Required
 -------------------
 Symbolic Z-matrix:
 Charge =  0 Multiplicity = 1

 SCF Done:  E(RB3LYP) =  -437.825528886     A.U. after   14 cycles
 SCF Done:  E(RB3LYP) =  -437.857851613     A.U. after   13 cycles
 SCF Done:  E(RB3LYP) =  -437.899323531     A.U. after   14 cycles
 SCF Done:  E(RB3LYP) =  -437.903454791     A.U. after   14 cycles
 SCF Done:  E(RB3LYP) =  -437.902257911     A.U. after   14 cycles
 SCF Done:  E(RB3LYP) =  -437.905919040     A.U. after   12 cycles
 SCF Done:  E(RB3LYP) =  -437.905546126     A.U. after   12 cycles
 SCF Done:  E(RB3LYP) =  -437.906168799     A.U. after   11 cycles
 SCF Done:  E(RB3LYP) =  -437.906249269     A.U. after   10 cycles
 SCF Done:  E(RB3LYP) =  -437.906262212     A.U. after    8 cycles
 SCF Done:  E(RB3LYP) =  -437.906266900     A.U. after    8 cycles
 SCF Done:  E(RB3LYP) =  -437.906267690     A.U. after    8 cycles
 SCF Done:  E(RB3LYP) =  -437.906268057     A.U. after    7 cycles
 Optimization completed.
    -- Stationary point found.
 Normal termination of Gaussian 16 at Sun Jul  3 13:04:43 2022.

 ----------------------------------------------------------------------
 #N Geom=AllCheck Guess=TCheck SCRF=Check GenChk RB3LYP/6-31G(2df,p) Fr
 eq
 ----------------------------------------------------------------------

 Structure from the checkpoint file:  "NtCC1CC2OCpOpC12.chk"
 -------------------
 Title Card Required
 -------------------
 Charge =  0 Multiplicity = 1

                         Standard orientation:
 ---------------------------------------------------------------------
 Center     Atomic      Atomic             Coordinates (Angstroms)
 Number     Number       Type             X           Y           Z
 ---------------------------------------------------------------------
      1          7           0        2.967120   -1.258541   -0.572319
      2          6           0        2.210644   -0.641349    0.047769
      3          6           0        1.263605    0.135012    0.826978
      4          6           0        0.950579    1.598111    0.203803
      5          6           0       -0.178315    0.834702   -0.564335
      6          8           0       -1.619354    0.761368   -0.807838
      7          6           0       -1.545925   -0.623939   -0.245835
      8          8           0       -2.687814   -1.005008    0.388697
      9          6           0       -0.286261   -0.112512    0.554450
     10          1           0        1.557913    0.124236    1.877644
     11          1           0        1.743050    2.070897   -0.378116
     12          1           0        0.600952    2.258532    0.998557
     13          1           0        0.313749    0.383977   -1.438299
     14          1           0       -1.337527   -1.347349   -1.038682
     15          1           0       -2.927231   -0.315391    1.020632
     16          1           0       -0.749364    0.443866    1.380652
 ---------------------------------------------------------------------

 SCF Done:  E(RB3LYP) =  -437.906268057     A.U. after    1 cycles

 The electronic state is 1-A.
 Alpha  occ. eigenvalues --  -19.17605 -19.15771 -14.33471 -10.31233 -10.26700
 Alpha  occ. eigenvalues --  -10.25023 -10.23432 -10.22746 -10.21578  -1.08902
 Alpha  occ. eigenvalues --   -1.02893  -0.91230  -0.87401  -0.72378  -0.70931
 Alpha  occ. eigenvalues --   -0.65902  -0.61535  -0.55000  -0.51548  -0.50862
 Alpha  occ. eigenvalues --   -0.46646  -0.45950  -0.42510  -0.40875  -0.40772
 Alpha  occ. eigenvalues --   -0.38884  -0.36494  -0.36064  -0.33752  -0.32929
 Alpha  occ. eigenvalues --   -0.31203  -0.27564  -0.27038
 Alpha virt. eigenvalues --    0.00899   0.01999   0.03030   0.06505   0.07392
 Alpha virt. eigenvalues --    0.09641   0.10029   0.12519   0.13414   0.14550
 Alpha virt. eigenvalues --    0.15819   0.17485   0.18637   0.20584   0.24269

 Mulliken charges:
               1
     1  N   -0.322165
     2  C    0.295189
     3  C   -0.254709
     4  C   -0.307271
     5  C    0.165115
     6  O   -0.337723
     7  C    0.142349
     8  O   -0.377450
     9  C   -0.031228
    10  H    0.137292
    11  H    0.135385
    12  H    0.133801
    13  H    0.109568
    14  H    0.127282
    15  H    0.294511
    16  H    0.090055
 Sum of Mulliken charges =  -0.00000

 Dipole moment (field-independent basis, Debye):
    X=             -1.1979    Y=              2.4366    Z=              2.9185  Tot=              3.9862
 Quadrupole moment (field-independent basis, Debye-Ang):
   XX=            -63.8513   YY=            -54.4877   ZZ=            -48.9139
   XY=              6.1026   XZ=              0.2713   YZ=              1.2551

  Exact polarizability:  88.336  -0.964  65.152  -4.978   5.772  61.228
 Approx polarizability: 127.823  -7.486 101.744 -11.062  10.691 100.458

                      1                      2                      3
                      A                      A                      A
 Frequencies --    102.1643               132.4081               220.2995
 Red. masses --      8.1346                 6.4426                 3.5198
 Frc consts  --      0.0500                 0.0665                 0.1006
 IR Inten    --      4.4075                 1.6173                 1.4523

                      4                      5                      6
                      A                      A                      A
 Frequencies --    255.9833               321.2217               371.6363
 Red. masses --      3.0820                 4.5254                 1.6390
 Frc consts  --      0.1190                 0.2751                 0.1334
 IR Inten    --     26.1623                 2.4016                56.5423

                      7                      8                      9
                      A                      A                      A
 Frequencies --    452.0316               478.3624               508.7340
 Red. masses --      4.8661                 2.6706                 4.4677
 Frc consts  --      0.5858                 0.3601                 0.6813
 IR Inten    --     19.2305                 4.2498                 2.6743

                     10                     11                     12
                      A                      A                      A
 Frequencies --    525.1774               599.4015               702.7574
 Red. masses --      4.4457                 5.4974                 3.9142
 Frc consts  --      0.7224                 1.1637                 1.1389
 IR Inten    --     22.4358                12.4677                14.6392

                     13                     14                     15
                      A                      A                      A
 Frequencies --    742.7842               793.6463               833.7505
 Red. masses --      4.6991                 3.6332                 3.6466
 Frc consts  --      1.5275                 1.3483                 1.4935
 IR Inten    --     28.9521                13.4445                10.3130

                     16                     17                     18
                      A                      A                      A
 Frequencies --    894.6266               928.9170              1008.5210
 Red. masses --      2.7946                 3.5133                 3.4775
 Frc consts  --      1.3178                 1.7861                 2.0840
 IR Inten    --     24.7473                 2.9206                44.6596

                     19                     20                     21
                      A                      A                      A
 Frequencies --   1038.9229              1065.8606              1088.9045
 Red. masses --      1.8845                 1.7953                 2.9394
 Frc consts  --      1.1984                 1.2017                 2.0535
 IR Inten    --     13.5982                 2.5599                97.5334

                     22                     23                     24
                      A                      A                      A
 Frequencies --   1119.5320              1149.5125              1181.4278
 Red. masses --      1.7151                 1.3680                 1.9771
 Frc consts  --      1.2665                 1.0651                 1.6259
 IR Inten    --      6.5274                35.3972               167.6131

                     25                     26                     27
                      A                      A                      A
 Frequencies --   1214.3033              1215.2643              1224.1070
 Red. masses --      1.3258                 1.5058                 1.4246
 Frc consts  --      1.1518                 1.3103                 1.2577
 IR Inten    --     32.3342                53.0967                 4.0895

                     28                     29                     30
                      A                      A                      A
 Frequencies --   1275.4807              1319.2113              1336.0521
 Red. masses --      1.2896                 1.8998                 1.7228
 Frc consts  --      1.2361                 1.9480                 1.8119
 IR Inten    --      0.0398                10.6192                 0.7319

                     31                     32                     33
                      A                      A                      A
 Frequencies --   1424.1574              1437.3800              1454.0992
 Red. masses --      1.1463                 1.2783                 1.1794
 Frc consts  --      1.3698                 1.5560                 1.4692
 IR Inten    --     83.2217                16.9816                44.2040

                     34                     35                     36
                      A                      A                      A
 Frequencies --   1481.8993              2352.3475              2994.8608
 Red. masses --      1.1147                12.6280                 1.0817
 Frc consts  --      1.4423                41.1705                 5.7164
 IR Inten    --      2.0050                13.2716                 3.8634

                     37                     38                     39
                      A                      A                      A
 Frequencies --   3007.1189              3082.7627              3091.8511
 Red. masses --      1.0827                 1.0567                 1.0882
 Frc consts  --      5.7683                 5.9166                 6.1291
 IR Inten    --     45.0676                22.8327                27.4871

                     40                     41                     42
                      A                      A                      A
 Frequencies --   3104.0442              3156.4435              3786.2029
 Red. masses --      1.0855                 1.1120                 1.0648
 Frc consts  --      6.1621                 6.5275                 8.9933
 IR Inten    --      8.2034                13.3674                32.7420

 - Thermochemistry -
 -------------------
 Temperature   298.150 Kelvin.  Pressure   1.00000 Atm.
 Atom     1 has atomic number  7 and mass  14.00307

 Molecular mass:   125.04768 amu.
 Principal axes and moments of inertia in atomic units:
                           1         2         3
     Eigenvalues --   547.326991648.771371874.14915
           X            0.99970   0.02468   0.00033
           Y           -0.02467   0.99865   0.04563
           Z            0.00080  -0.04563   0.99896
 This molecule is an asymmetric top.
 Rotational symmetry number  1.
 Warning -- assumption of classical behavior for rotation
           may cause significant error
 Rotational temperatures (Kelvin)      0.15825     0.05253     0.04622
 Rotational constants (GHZ):           3.29737     1.09460     0.96297
 Zero-point vibrational energy     325827.9 (Joules/Mol)
                                   77.87473 (Kcal/Mol)
 Warning -- explicit consideration of  11 degrees of freedom as
           vibrations may cause significant error
 Vibrational temperatures:    146.99   190.51   316.96   368.30   462.17
          (Kelvin)            534.70   650.37   688.26   731.95   755.61
                              862.41  1011.11  1068.70  1141.88  1199.58
                             1287.17  1336.50  1451.04  1494.78  1533.54
                             1566.69  1610.76  1653.89  1699.81  1747.11
                             1748.49  1761.22  1835.13  1898.05  1922.28
                             2049.04  2068.07  2092.12  2132.12  3384.50
                             4308.94  4326.57  4435.41  4448.48  4466.03
                             4541.42  5447.50

 Zero-point correction=                           0.124101 (Hartree/Particle)
 Thermal correction to Energy=                    0.131914
 Thermal correction to Enthalpy=                  0.132858
 Thermal correction to Gibbs Free Energy=         0.091630
 Sum of electronic and zero-point Energies=           -437.782167
 Sum of electronic and thermal Energies=              -437.774354
 Sum of electronic and thermal Enthalpies=            -437.773410
 Sum of electronic and thermal Free Energies=         -437.814638

                     E (Thermal)             CV                S
                      KCal/Mol        Cal/Mol-Kelvin    Cal/Mol-Kelvin
 Total                   82.777             29.868             86.772
 Electronic               0.000              0.000              0.000
 Translational            0.889              2.981             40.384
 Rotational               0.889              2.981             28.916
 Vibrational             81.000             23.907             17.472
 Vibration     1          0.604              1.947              3.413
 Vibration     2          0.613              1.921              2.911
 Vibration     3          0.647              1.810              1.957
 Vibration     4          0.666              1.753              1.689
 Vibration     5          0.707              1.633              1.304
 Vibration     6          0.743              1.530              1.073
 Vibration     7          0.811              1.356              0.790
 Vibration     8          0.835              1.298              0.714
 Vibration     9          0.864              1.231              0.637
 Vibration    10          0.880              1.194              0.598
 Vibration    11          0.957              1.033              0.451

 Optimization completed.
    -- Stationary point found.
 Normal termination of Gaussian 16 at Sun Jul  3 13:31:54 2022.
