 Gaussian 16, Revision A.03,
 Gaussian 16:  ES64L-G16RevA.03 25-Dec-2016

 -----------------------------
 # opt freq b3lyp/6-31g(2df,p)
 -----------------------------

 -------------------
 Title Card Required
 -------------------
 Symbolic Z-matrix:
 Charge =  0 Multiplicity = 1

 SCF Done:  E(RB3LYP) =  -397.438520814     A.U. after   15 cycles
 SCF Done:  E(RB3LYP) =  -397.451673145     A.U. after   15 cycles
 SCF Done:  E(RB3LYP) =  -397.452596075     A.U. after   15 cycles
 SCF Done:  E(RB3LYP) =  -397.453942627     A.U. after   15 cycles
 SCF Done:  E(RB3LYP) =  -397.455076865     A.U. after   14 cycles
 SCF Done:  E(RB3LYP) =  -397.456916617     A.U. after   16 cycles
 SCF Done:  E(RB3LYP) =  -397.456335836     A.U. after   16 cycles
 SCF Done:  E(RB3LYP) =  -397.457580546     A.U. after   13 cycles
 SCF Done:  E(RB3LYP) =  -397.457698383     A.U. after   13 cycles
 SCF Done:  E(RB3LYP) =  -397.457701923     A.U. after    9 cycles
 SCF Done:  E(RB3LYP) =  -397.457703570     A.U. after   10 cycles
 SCF Done:  E(RB3LYP) =  -397.457713579     A.U. after   10 cycles
 SCF Done:  E(RB3LYP) =  -397.457713890     A.U. after    8 cycles
 SCF Done:  E(RB3LYP) =  -397.457714015     A.U. after    8 cycles
 Optimization completed.
    -- Stationary point found.
 Normal termination of Gaussian 16 at Sun Jul  3 09:39:39 2022.

 ----------------------------------------------------------------------
 #N Geom=AllCheck Guess=TCheck SCRF=Check GenChk RB3LYP/6-31G(2df,p) Fr
 eq
 ----------------------------------------------------------------------

 Structure from the checkpoint file:  "NtCC1CpdOpC1CdO.chk"
 -------------------
 Title Card Required
 -------------------
 Charge =  0 Multiplicity = 1

                         Standard orientation:
 ---------------------------------------------------------------------
 Center     Atomic      Atomic             Coordinates (Angstroms)
 Number     Number       Type             X           Y           Z
 ---------------------------------------------------------------------
      1          7           0        2.930216   -1.143632   -0.302371
      2          6           0        1.945847   -0.691677    0.103442
      3          6           0        0.723276   -0.120516    0.582258
      4          6           0        0.144869    1.110066   -0.015360
      5          8           0        0.222177    2.285275   -0.148849
      6          6           0       -0.574234   -0.142618   -0.342962
      7          6           0       -1.877312   -0.478324    0.314780
      8          8           0       -2.827586   -0.906033   -0.280181
      9          1           0        0.511101   -0.276543    1.639588
     10          1           0       -0.454363   -0.518319   -1.355738
     11          1           0       -1.899655   -0.295235    1.412033
 ---------------------------------------------------------------------

 SCF Done:  E(RB3LYP) =  -397.457714015     A.U. after    1 cycles

 The electronic state is 1-A.
 Alpha  occ. eigenvalues --  -19.20871 -19.17675 -14.35468 -10.34392 -10.31610
 Alpha  occ. eigenvalues --  -10.28527 -10.26321 -10.24968  -1.11492  -1.08578
 Alpha  occ. eigenvalues --   -0.94323  -0.91372  -0.74102  -0.66849  -0.61670
 Alpha  occ. eigenvalues --   -0.55300  -0.52580  -0.49684  -0.47973  -0.46973
 Alpha  occ. eigenvalues --   -0.43820  -0.43378  -0.40530  -0.38230  -0.36406
 Alpha  occ. eigenvalues --   -0.33871  -0.30360  -0.27958
 Alpha virt. eigenvalues --   -0.08976  -0.06033   0.00155   0.00997   0.07460
 Alpha virt. eigenvalues --    0.08285   0.11696   0.14776   0.16527   0.18376
 Alpha virt. eigenvalues --    0.19786   0.24460   0.25960   0.28095   0.32264

 Mulliken charges:
               1
     1  N   -0.305209
     2  C    0.298875
     3  C   -0.342324
     4  C    0.452990
     5  O   -0.233929
     6  C   -0.255815
     7  C    0.168910
     8  O   -0.226649
     9  H    0.172481
    10  H    0.174140
    11  H    0.096530
 Sum of Mulliken charges =  -0.00000

 Dipole moment (field-independent basis, Debye):
    X=             -1.3863    Y=              0.1525    Z=              1.9975  Tot=              2.4362
 Quadrupole moment (field-independent basis, Debye-Ang):
   XX=            -61.6597   YY=            -51.1865   ZZ=            -39.8228
   XY=              1.2342   XZ=             -0.3269   YZ=             -0.8622

  Exact polarizability:  80.872  -1.279  55.582  -0.553   1.576  45.815
 Approx polarizability: 126.464  -1.368  96.811   0.495   4.850  73.498

                      1                      2                      3
                      A                      A                      A
 Frequencies --     76.8128               125.0165               145.6321
 Red. masses --      9.2418                 8.1564                 6.5290
 Frc consts  --      0.0321                 0.0751                 0.0816
 IR Inten    --      9.0656                 4.4072                17.7822

                      4                      5                      6
                      A                      A                      A
 Frequencies --    172.4854               272.4014               410.1460
 Red. masses --      2.7150                 4.7370                 5.2629
 Frc consts  --      0.0476                 0.2071                 0.5216
 IR Inten    --      3.2994                 5.4108                 2.8749

                      7                      8                      9
                      A                      A                      A
 Frequencies --    429.5121               459.2573               553.3891
 Red. masses --      6.8151                 6.0000                 5.2143
 Frc consts  --      0.7408                 0.7456                 0.9408
 IR Inten    --      3.3611                 3.0668                24.3913

                     10                     11                     12
                      A                      A                      A
 Frequencies --    682.5226               742.7750               809.1397
 Red. masses --      6.0483                 5.4627                 3.6406
 Frc consts  --      1.6600                 1.7757                 1.4043
 IR Inten    --      2.8841                 4.7077               130.0138

                     13                     14                     15
                      A                      A                      A
 Frequencies --    910.9060               971.0077              1034.4410
 Red. masses --      2.4393                 2.6820                 1.9200
 Frc consts  --      1.1925                 1.4899                 1.2105
 IR Inten    --     34.6145               131.9406                 9.7610

                     16                     17                     18
                      A                      A                      A
 Frequencies --   1067.9236              1093.9437              1107.3554
 Red. masses --      1.7905                 1.8644                 2.4298
 Frc consts  --      1.2031                 1.3146                 1.7555
 IR Inten    --     37.0820                 7.4300                46.5554

                     19                     20                     21
                      A                      A                      A
 Frequencies --   1222.5370              1312.3455              1429.5627
 Red. masses --      1.4349                 1.9014                 1.1802
 Frc consts  --      1.2636                 1.9294                 1.4210
 IR Inten    --     10.0431                 2.6610                 8.2266

                     22                     23                     24
                      A                      A                      A
 Frequencies --   1827.2186              1966.5583              2356.7563
 Red. masses --     10.4508                12.9447                12.5921
 Frc consts  --     20.5581                29.4954                41.2077
 IR Inten    --    292.2326               324.3967                22.2051

                     25                     26                     27
                      A                      A                      A
 Frequencies --   2884.9497              3121.6858              3166.2789
 Red. masses --      1.0840                 1.0842                 1.0872
 Frc consts  --      5.3158                 6.2248                 6.4219
 IR Inten    --     74.9006                 4.3040                 4.5618

 - Thermochemistry -
 -------------------
 Temperature   298.150 Kelvin.  Pressure   1.00000 Atm.
 Atom     1 has atomic number  7 and mass  14.00307

 Molecular mass:   109.01638 amu.
 Principal axes and moments of inertia in atomic units:
                           1         2         3
     Eigenvalues --   554.670421312.129001750.87813
           X            0.99999   0.00326  -0.00371
           Y           -0.00327   0.99999  -0.00152
           Z            0.00370   0.00153   0.99999
 This molecule is an asymmetric top.
 Rotational symmetry number  1.
 Warning -- assumption of classical behavior for rotation
           may cause significant error
 Rotational temperatures (Kelvin)      0.15615     0.06601     0.04947
 Rotational constants (GHZ):           3.25372     1.37543     1.03076
 Zero-point vibrational energy     181548.6 (Joules/Mol)
                                   43.39116 (Kcal/Mol)
 Warning -- explicit consideration of   9 degrees of freedom as
           vibrations may cause significant error
 Vibrational temperatures:    110.52   179.87   209.53   248.17   391.92
          (Kelvin)            590.11   617.97   660.77   796.20   982.00
                             1068.69  1164.17  1310.59  1397.06  1488.33
                             1536.50  1573.94  1593.24  1758.96  1888.17
                             2056.82  2628.96  2829.44  3390.85  4150.80
                             4491.41  4555.57

 Zero-point correction=                           0.069148 (Hartree/Particle)
 Thermal correction to Energy=                    0.076716
 Thermal correction to Enthalpy=                  0.077660
 Thermal correction to Gibbs Free Energy=         0.036419
 Sum of electronic and zero-point Energies=           -397.388566
 Sum of electronic and thermal Energies=              -397.380998
 Sum of electronic and thermal Enthalpies=            -397.380054
 Sum of electronic and thermal Free Energies=         -397.421295

                     E (Thermal)             CV                S
                      KCal/Mol        Cal/Mol-Kelvin    Cal/Mol-Kelvin
 Total                   48.140             25.510             86.798
 Electronic               0.000              0.000              0.000
 Translational            0.889              2.981             39.975
 Rotational               0.889              2.981             28.634
 Vibrational             46.362             19.548             18.188
 Vibration     1          0.599              1.965              3.971
 Vibration     2          0.610              1.928              3.021
 Vibration     3          0.617              1.907              2.729
 Vibration     4          0.626              1.876              2.408
 Vibration     5          0.675              1.724              1.581
 Vibration     6          0.774              1.448              0.926
 Vibration     7          0.791              1.406              0.860
 Vibration     8          0.817              1.340              0.768
 Vibration     9          0.909              1.132              0.537

                           ! Non-Optimized Parameters !
 Normal termination of Gaussian 16 at Sun Jul  3 09:52:06 2022.
