 Gaussian 16, Revision A.03,
 Gaussian 16:  ES64L-G16RevA.03 25-Dec-2016

 -----------------------------
 # opt freq b3lyp/6-31g(2df,p)
 -----------------------------

 -------------------
 Title Card Required
 -------------------
 Symbolic Z-matrix:
 Charge =  0 Multiplicity = 1

 SCF Done:  E(RB3LYP) =  -362.770582164     A.U. after   15 cycles
 SCF Done:  E(RB3LYP) =  -362.796816828     A.U. after   13 cycles
 SCF Done:  E(RB3LYP) =  -362.794530250     A.U. after   15 cycles
 SCF Done:  E(RB3LYP) =  -362.796391481     A.U. after   12 cycles
 SCF Done:  E(RB3LYP) =  -362.797270954     A.U. after    8 cycles
 SCF Done:  E(RB3LYP) =  -362.797432602     A.U. after   11 cycles
 SCF Done:  E(RB3LYP) =  -362.797755988     A.U. after   12 cycles
 SCF Done:  E(RB3LYP) =  -362.759300112     A.U. after   15 cycles
 SCF Done:  E(RB3LYP) =  -362.799837138     A.U. after   12 cycles
 SCF Done:  E(RB3LYP) =  -362.471035856     A.U. after   14 cycles
 SCF Done:  E(RB3LYP) =  -362.807789818     A.U. after   14 cycles
 SCF Done:  E(RB3LYP) =  -362.809851188     A.U. after   14 cycles
 SCF Done:  E(RB3LYP) =  -362.810349606     A.U. after   12 cycles
 SCF Done:  E(RB3LYP) =  -362.810183015     A.U. after   12 cycles
 SCF Done:  E(RB3LYP) =  -362.810437838     A.U. after   11 cycles
 SCF Done:  E(RB3LYP) =  -362.810501985     A.U. after   10 cycles
 SCF Done:  E(RB3LYP) =  -362.810511853     A.U. after    9 cycles
 SCF Done:  E(RB3LYP) =  -362.810514348     A.U. after    8 cycles
 SCF Done:  E(RB3LYP) =  -362.810515078     A.U. after    8 cycles
 Optimization completed.
    -- Stationary point found.
 Normal termination of Gaussian 16 at Thu Aug  4 04:41:05 2022.

 ----------------------------------------------------------------------
 #N Geom=AllCheck Guess=TCheck SCRF=Check GenChk RB3LYP/6-31G(2df,p) Fr
 eq
 ----------------------------------------------------------------------

 Structure from the checkpoint file:  "NtCC1dCCCCO1.chk"
 -------------------
 Title Card Required
 -------------------
 Charge =  0 Multiplicity = 1

                         Standard orientation:
 ---------------------------------------------------------------------
 Center     Atomic      Atomic             Coordinates (Angstroms)
 Number     Number       Type             X           Y           Z
 ---------------------------------------------------------------------
      1          7           0        3.259872    0.021161   -0.074666
      2          6           0        2.103502    0.032354   -0.034060
      3          6           0        0.670499    0.063633    0.012531
      4          6           0       -0.009338    1.214966    0.119049
      5          6           0       -1.510729    1.253104    0.090426
      6          6           0       -2.065811   -0.103914   -0.368188
      7          6           0       -1.270910   -1.231977    0.282532
      8          8           0        0.117641   -1.178158   -0.070092
      9          1           0        0.552877    2.137082    0.201053
     10          1           0       -1.847725    2.052107   -0.580529
     11          1           0       -1.900087    1.515975    1.083989
     12          1           0       -1.980749   -0.195295   -1.456389
     13          1           0       -3.124690   -0.206933   -0.112453
     14          1           0       -1.610011   -2.217149   -0.043289
     15          1           0       -1.353118   -1.177643    1.377270
 ---------------------------------------------------------------------

 SCF Done:  E(RB3LYP) =  -362.810515078     A.U. after    1 cycles

 The electronic state is 1-A.
 Alpha  occ. eigenvalues --  -19.18549 -14.33193 -10.27694 -10.25389 -10.22128
 Alpha  occ. eigenvalues --  -10.21082 -10.20608 -10.20552  -1.08348  -0.90255
 Alpha  occ. eigenvalues --   -0.82682  -0.80204  -0.68917  -0.67111  -0.58877
 Alpha  occ. eigenvalues --   -0.54338  -0.49925  -0.48142  -0.45056  -0.44934
 Alpha  occ. eigenvalues --   -0.41540  -0.41028  -0.37126  -0.36299  -0.35607
 Alpha  occ. eigenvalues --   -0.33970  -0.33292  -0.32098  -0.24160
 Alpha virt. eigenvalues --   -0.03092   0.02387   0.07470   0.11236   0.11583
 Alpha virt. eigenvalues --    0.12749   0.13078   0.14039   0.14894   0.16046
 Alpha virt. eigenvalues --    0.17670   0.18512   0.21326   0.21515   0.24308

 Mulliken charges:
               1
     1  N   -0.330675
     2  C    0.236444
     3  C    0.270347
     4  C   -0.180856
     5  C   -0.259879
     6  C   -0.227782
     7  C   -0.077204
     8  O   -0.270888
     9  H    0.120690
    10  H    0.122619
    11  H    0.123125
    12  H    0.123725
    13  H    0.110741
    14  H    0.125631
    15  H    0.113961
 Sum of Mulliken charges =  -0.00000

 Dipole moment (field-independent basis, Debye):
    X=             -5.3344    Y=              0.7943    Z=              0.4051  Tot=              5.4084
 Quadrupole moment (field-independent basis, Debye-Ang):
   XX=            -57.2107   YY=            -44.0807   ZZ=            -45.9520
   XY=              1.5320   XZ=              0.1689   YZ=             -0.2914

  Exact polarizability:  94.582  -4.883  67.760  -1.538   0.664  46.659
 Approx polarizability: 142.088 -17.660 108.436  -4.856   3.175  71.763

                      1                      2                      3
                      A                      A                      A
 Frequencies --    109.6541               168.7043               200.6270
 Red. masses --      4.5319                 7.3220                 2.4892
 Frc consts  --      0.0321                 0.1228                 0.0590
 IR Inten    --      0.2390                 3.2315                 2.8485

                      4                      5                      6
                      A                      A                      A
 Frequencies --    286.9826               413.8067               438.4581
 Red. masses --      1.9122                 3.9051                 5.9740
 Frc consts  --      0.0928                 0.3940                 0.6767
 IR Inten    --      0.6384                 7.7702                 5.2921

                      7                      8                      9
                      A                      A                      A
 Frequencies --    489.4523               578.4146               602.8052
 Red. masses --      5.1926                 7.1122                 2.3940
 Frc consts  --      0.7329                 1.4020                 0.5125
 IR Inten    --      2.6715                 3.7268                 0.0905

                     10                     11                     12
                      A                      A                      A
 Frequencies --    674.4261               800.8406               827.9876
 Red. masses --      6.3809                 1.4287                 2.4614
 Frc consts  --      1.7100                 0.5399                 0.9942
 IR Inten    --      0.6218                15.2079                 3.6335

                     13                     14                     15
                      A                      A                      A
 Frequencies --    870.7251               896.2520               930.5119
 Red. masses --      2.1126                 1.5630                 2.9944
 Frc consts  --      0.9437                 0.7397                 1.5276
 IR Inten    --      2.7300                 3.4268                23.4782

                     16                     17                     18
                      A                      A                      A
 Frequencies --    974.8877              1077.9974              1088.1594
 Red. masses --      2.4892                 1.5308                 2.5646
 Frc consts  --      1.3939                 1.0481                 1.7892
 IR Inten    --      1.2664                23.2011                29.5300

                     19                     20                     21
                      A                      A                      A
 Frequencies --   1104.2352              1177.4300              1215.2218
 Red. masses --      2.6343                 2.4869                 1.3866
 Frc consts  --      1.8925                 2.0313                 1.2064
 IR Inten    --     29.8336                28.7412                 4.1250

                     22                     23                     24
                      A                      A                      A
 Frequencies --   1259.6384              1300.2039              1323.9295
 Red. masses --      1.5252                 1.1672                 1.4588
 Frc consts  --      1.4258                 1.1625                 1.5065
 IR Inten    --     33.8932                 2.8756                45.5776

                     25                     26                     27
                      A                      A                      A
 Frequencies --   1367.0741              1380.1568              1422.6766
 Red. masses --      1.5242                 1.6029                 1.4327
 Frc consts  --      1.6784                 1.7989                 1.7085
 IR Inten    --      7.7405                30.2943                 8.0280

                     28                     29                     30
                      A                      A                      A
 Frequencies --   1472.4142              1485.6809              1503.6089
 Red. masses --      1.0861                 1.1036                 1.1056
 Frc consts  --      1.3873                 1.4352                 1.4727
 IR Inten    --      1.9071                 3.9545                 3.1356

                     31                     32                     33
                      A                      A                      A
 Frequencies --   1697.9158              2350.3567              3008.7664
 Red. masses --      7.5369                12.6777                 1.0681
 Frc consts  --     12.8019                41.2627                 5.6970
 IR Inten    --     45.6273                14.1290                20.8367

                     34                     35                     36
                      A                      A                      A
 Frequencies --   3013.0897              3044.7876              3056.9768
 Red. masses --      1.0693                 1.0723                 1.0801
 Frc consts  --      5.7199                 5.8568                 5.9468
 IR Inten    --     38.9129                 7.9091                29.8395

                     37                     38                     39
                      A                      A                      A
 Frequencies --   3096.5218              3114.0605              3208.5895
 Red. masses --      1.1033                 1.0969                 1.0910
 Frc consts  --      6.2330                 6.2670                 6.6178
 IR Inten    --     27.9072                24.6850                 2.7657

 - Thermochemistry -
 -------------------
 Temperature   298.150 Kelvin.  Pressure   1.00000 Atm.
 Atom     1 has atomic number  7 and mass  14.00307

 Molecular mass:   109.05276 amu.
 Principal axes and moments of inertia in atomic units:
                           1         2         3
     Eigenvalues --   369.187281209.327611516.73634
           X            1.00000   0.00216   0.00160
           Y           -0.00215   0.99999  -0.00377
           Z           -0.00160   0.00377   0.99999
 This molecule is an asymmetric top.
 Rotational symmetry number  1.
 Rotational temperatures (Kelvin)      0.23461     0.07162     0.05711
 Rotational constants (GHZ):           4.88842     1.49235     1.18988
 Zero-point vibrational energy     317213.9 (Joules/Mol)
                                   75.81595 (Kcal/Mol)
 Warning -- explicit consideration of   9 degrees of freedom as
           vibrations may cause significant error
 Vibrational temperatures:    157.77   242.73   288.66   412.90   595.38
          (Kelvin)            630.84   704.21   832.21   867.30   970.35
                             1152.23  1191.29  1252.78  1289.51  1338.80
                             1402.65  1551.00  1565.62  1588.75  1694.06
                             1748.43  1812.34  1870.70  1904.84  1966.91
                             1985.74  2046.91  2118.48  2137.56  2163.36
                             2442.92  3381.64  4328.94  4335.16  4380.77
                             4398.31  4455.20  4480.44  4616.44

 Zero-point correction=                           0.120820 (Hartree/Particle)
 Thermal correction to Energy=                    0.127773
 Thermal correction to Enthalpy=                  0.128718
 Thermal correction to Gibbs Free Energy=         0.089563
 Sum of electronic and zero-point Energies=           -362.689695
 Sum of electronic and thermal Energies=              -362.682742
 Sum of electronic and thermal Enthalpies=            -362.681798
 Sum of electronic and thermal Free Energies=         -362.720952

                     E (Thermal)             CV                S
                      KCal/Mol        Cal/Mol-Kelvin    Cal/Mol-Kelvin
 Total                   80.179             25.911             82.408
 Electronic               0.000              0.000              0.000
 Translational            0.889              2.981             39.976
 Rotational               0.889              2.981             28.006
 Vibrational             78.402             19.949             14.425
 Vibration     1          0.606              1.941              3.275
 Vibration     2          0.625              1.881              2.450
 Vibration     3          0.638              1.839              2.127
 Vibration     4          0.684              1.698              1.492
 Vibration     5          0.777              1.440              0.913
 Vibration     6          0.799              1.386              0.831
 Vibration     7          0.845              1.273              0.685
 Vibration     8          0.935              1.078              0.488
 Vibration     9          0.961              1.026              0.445

 Optimization completed.
    -- Stationary point found.
 Normal termination of Gaussian 16 at Thu Aug  4 04:57:57 2022.
