 Gaussian 16, Revision A.03,
 Gaussian 16:  ES64L-G16RevA.03 25-Dec-2016

 -----------------------------
 # opt freq b3lyp/6-31g(2df,p)
 -----------------------------

 -------------------
 Title Card Required
 -------------------
 Symbolic Z-matrix:
 Charge =  0 Multiplicity = 1

 SCF Done:  E(RB3LYP) =  -287.310329031     A.U. after   17 cycles
 SCF Done:  E(RB3LYP) =  -287.366779948     A.U. after   14 cycles
 SCF Done:  E(RB3LYP) =  -287.431719388     A.U. after   13 cycles
 SCF Done:  E(RB3LYP) =  -287.464888554     A.U. after   13 cycles
 SCF Done:  E(RB3LYP) =  -287.485555963     A.U. after   12 cycles
 SCF Done:  E(RB3LYP) =  -287.515257270     A.U. after   12 cycles
 SCF Done:  E(RB3LYP) =  -287.528507152     A.U. after   12 cycles
 SCF Done:  E(RB3LYP) =  -287.534799958     A.U. after   13 cycles
 SCF Done:  E(RB3LYP) =  -287.536211264     A.U. after   14 cycles
 SCF Done:  E(RB3LYP) =  -287.539894061     A.U. after   12 cycles
 SCF Done:  E(RB3LYP) =  -287.539479120     A.U. after   13 cycles
 SCF Done:  E(RB3LYP) =  -287.540545270     A.U. after   11 cycles
 SCF Done:  E(RB3LYP) =  -287.540718309     A.U. after   10 cycles
 SCF Done:  E(RB3LYP) =  -287.540733121     A.U. after    8 cycles
 SCF Done:  E(RB3LYP) =  -287.540737279     A.U. after    8 cycles
 SCF Done:  E(RB3LYP) =  -287.540737719     A.U. after    7 cycles
 SCF Done:  E(RB3LYP) =  -287.540737944     A.U. after    6 cycles
 Optimization completed.
    -- Stationary point found.
 Normal termination of Gaussian 16 at Thu Aug  4 00:50:15 2022.

 ----------------------------------------------------------------------
 #N Geom=AllCheck Guess=TCheck SCRF=Check GenChk RB3LYP/6-31G(2df,p) Fr
 eq
 ----------------------------------------------------------------------

 Structure from the checkpoint file:  "NtCC1CC2CC12.chk"
 -------------------
 Title Card Required
 -------------------
 Charge =  0 Multiplicity = 1

                         Standard orientation:
 ---------------------------------------------------------------------
 Center     Atomic      Atomic             Coordinates (Angstroms)
 Number     Number       Type             X           Y           Z
 ---------------------------------------------------------------------
      1          7           0        2.667964   -0.408792   -0.318632
      2          6           0        1.664413   -0.001959    0.087335
      3          6           0        0.387005    0.504581    0.574782
      4          6           0       -0.547057    1.257037   -0.448632
      5          6           0       -1.648934    0.232050   -0.160443
      6          6           0       -1.162458   -1.151345   -0.482477
      7          6           0       -0.739005   -0.520348    0.812406
      8          1           0        0.566694    1.122817    1.457156
      9          1           0       -0.189080    1.304579   -1.480356
     10          1           0       -0.775389    2.266261   -0.102954
     11          1           0       -2.700993    0.464525   -0.057178
     12          1           0       -0.440128   -1.315178   -1.278659
     13          1           0       -1.899981   -1.940451   -0.381141
     14          1           0       -0.960653   -0.961102    1.775731
 ---------------------------------------------------------------------

 SCF Done:  E(RB3LYP) =  -287.540737944     A.U. after    1 cycles

 The electronic state is 1-A.
 Alpha  occ. eigenvalues --  -14.32170 -10.23956 -10.21472 -10.21294 -10.21061
 Alpha  occ. eigenvalues --  -10.21040 -10.20083  -0.92095  -0.89043  -0.76553
 Alpha  occ. eigenvalues --   -0.69361  -0.61316  -0.56788  -0.53555  -0.50595
 Alpha  occ. eigenvalues --   -0.46646  -0.41916  -0.41036  -0.37920  -0.37129
 Alpha  occ. eigenvalues --   -0.34913  -0.32003  -0.31095  -0.30271  -0.28232
 Alpha virt. eigenvalues --    0.02866   0.03616   0.08007   0.09869   0.11863
 Alpha virt. eigenvalues --    0.12582   0.13782   0.14738   0.15497   0.16735
 Alpha virt. eigenvalues --    0.18065   0.20852   0.22568   0.24665   0.26694

 Mulliken charges:
               1
     1  N   -0.333590
     2  C    0.275924
     3  C   -0.153083
     4  C   -0.246067
     5  C   -0.035940
     6  C   -0.277321
     7  C   -0.047284
     8  H    0.126332
     9  H    0.121090
    10  H    0.119487
    11  H    0.097329
    12  H    0.129524
    13  H    0.121942
    14  H    0.101656
 Sum of Mulliken charges =  -0.00000

 Dipole moment (field-independent basis, Debye):
    X=             -3.9114    Y=              1.2235    Z=              1.1838  Tot=              4.2659
 Quadrupole moment (field-independent basis, Debye-Ang):
   XX=            -51.0178   YY=            -39.5046   ZZ=            -39.7834
   XY=              3.0600   XZ=              1.6731   YZ=              0.0529

  Exact polarizability:  72.451  -2.399  57.936  -2.290   1.115  52.297
 Approx polarizability: 107.481  -9.985  85.295  -6.990   3.423  82.251

                      1                      2                      3
                      A                      A                      A
 Frequencies --    121.4395               179.8751               311.3396
 Red. masses --      4.3253                 4.2752                 2.7386
 Frc consts  --      0.0376                 0.0815                 0.1564
 IR Inten    --      3.3977                 4.0081                 0.8313

                      4                      5                      6
                      A                      A                      A
 Frequencies --    406.7273               522.3072               577.0641
 Red. masses --      2.5762                 5.6881                 4.7155
 Frc consts  --      0.2511                 0.9143                 0.9252
 IR Inten    --      1.3977                 0.6442                 0.3378

                      7                      8                      9
                      A                      A                      A
 Frequencies --    672.4412               782.8975               801.9417
 Red. masses --      3.0193                 1.9469                 2.1556
 Frc consts  --      0.8044                 0.7031                 0.8168
 IR Inten    --      0.0592                 5.3653                10.4630

                     10                     11                     12
                      A                      A                      A
 Frequencies --    810.3684               930.5070               948.7284
 Red. masses --      1.8396                 2.1881                 2.0719
 Frc consts  --      0.7118                 1.1162                 1.0988
 IR Inten    --      3.7745                 6.1670                 0.3709

                     13                     14                     15
                      A                      A                      A
 Frequencies --    965.2446              1009.1144              1024.5499
 Red. masses --      1.5944                 2.1520                 1.4792
 Frc consts  --      0.8752                 1.2911                 0.9148
 IR Inten    --      1.5679                 3.0598                 1.4189

                     16                     17                     18
                      A                      A                      A
 Frequencies --   1051.0655              1063.8521              1087.6376
 Red. masses --      2.1628                 1.2454                 1.6210
 Frc consts  --      1.4077                 0.8304                 1.1298
 IR Inten    --      0.4479                 0.7798                 2.7881

                     19                     20                     21
                      A                      A                      A
 Frequencies --   1098.7938              1142.0427              1200.8803
 Red. masses --      1.5988                 1.5311                 1.5215
 Frc consts  --      1.1373                 1.1766                 1.2928
 IR Inten    --      0.7768                 1.9549                 0.8835

                     22                     23                     24
                      A                      A                      A
 Frequencies --   1218.8593              1261.9634              1295.8341
 Red. masses --      1.4090                 1.3534                 1.7197
 Frc consts  --      1.2333                 1.2699                 1.7014
 IR Inten    --      2.2058                 0.4281                 3.0204

                     25                     26                     27
                      A                      A                      A
 Frequencies --   1335.5263              1365.5976              1483.0446
 Red. masses --      1.5361                 1.9846                 1.1393
 Frc consts  --      1.6142                 2.1806                 1.4764
 IR Inten    --      2.1194                 3.0158                 1.4618

                     28                     29                     30
                      A                      A                      A
 Frequencies --   1498.9225              2350.9526              3067.3856
 Red. masses --      1.1782                12.6433                 1.0598
 Frc consts  --      1.5596                41.1717                 5.8752
 IR Inten    --      2.5641                10.3292                29.9458

                     31                     32                     33
                      A                      A                      A
 Frequencies --   3085.1475              3114.7729              3128.0559
 Red. masses --      1.0852                 1.0572                 1.1063
 Frc consts  --      6.0857                 6.0429                 6.3776
 IR Inten    --      3.9867                 9.7322                15.4729

                     34                     35                     36
                      A                      A                      A
 Frequencies --   3190.1573              3196.6593              3210.5678
 Red. masses --      1.0888                 1.1031                 1.1079
 Frc consts  --      6.5286                 6.6413                 6.7286
 IR Inten    --     13.4113                 4.6018                15.5932

 - Thermochemistry -
 -------------------
 Temperature   298.150 Kelvin.  Pressure   1.00000 Atm.
 Atom     1 has atomic number  7 and mass  14.00307

 Molecular mass:    93.05785 amu.
 Principal axes and moments of inertia in atomic units:
                           1         2         3
     Eigenvalues --   311.40289 837.91878 947.59847
           X            0.99984   0.01683   0.00525
           Y           -0.01686   0.99984   0.00554
           Z           -0.00515  -0.00563   0.99997
 This molecule is an asymmetric top.
 Rotational symmetry number  1.
 Rotational temperatures (Kelvin)      0.27814     0.10337     0.09140
 Rotational constants (GHZ):           5.79552     2.15384     1.90454
 Zero-point vibrational energy     302130.4 (Joules/Mol)
                                   72.21091 (Kcal/Mol)
 Warning -- explicit consideration of   6 degrees of freedom as
           vibrations may cause significant error
 Vibrational temperatures:    174.72   258.80   447.95   585.19   751.48
          (Kelvin)            830.27   967.49  1126.41  1153.82  1165.94
                             1338.79  1365.01  1388.77  1451.89  1474.10
                             1512.25  1530.65  1564.87  1580.92  1643.14
                             1727.80  1753.67  1815.68  1864.42  1921.52
                             1964.79  2133.77  2156.62  3382.50  4413.28
                             4438.84  4481.46  4500.57  4589.92  4599.28
                             4619.29

 Zero-point correction=                           0.115075 (Hartree/Particle)
 Thermal correction to Energy=                    0.121067
 Thermal correction to Enthalpy=                  0.122011
 Thermal correction to Gibbs Free Energy=         0.085269
 Sum of electronic and zero-point Energies=           -287.425663
 Sum of electronic and thermal Energies=              -287.419671
 Sum of electronic and thermal Enthalpies=            -287.418727
 Sum of electronic and thermal Free Energies=         -287.455468

                     E (Thermal)             CV                S
                      KCal/Mol        Cal/Mol-Kelvin    Cal/Mol-Kelvin
 Total                   75.971             22.603             77.330
 Electronic               0.000              0.000              0.000
 Translational            0.889              2.981             39.504
 Rotational               0.889              2.981             27.005
 Vibrational             74.193             16.641             10.821
 Vibration     1          0.609              1.931              3.077
 Vibration     2          0.629              1.867              2.330
 Vibration     3          0.700              1.652              1.355
 Vibration     4          0.771              1.456              0.938
 Vibration     5          0.877              1.201              0.605
 Vibration     6          0.934              1.081              0.491

 Optimization completed.
    -- Stationary point found.
 Normal termination of Gaussian 16 at Thu Aug  4 01:09:37 2022.
