 Gaussian 16, Revision A.03,
 Gaussian 16:  ES64L-G16RevA.03 25-Dec-2016

 -----------------------------
 # opt freq b3lyp/6-31g(2df,p)
 -----------------------------

 -------------------
 Title Card Required
 -------------------
 Symbolic Z-matrix:
 Charge =  0 Multiplicity = 1

 SCF Done:  E(RB3LYP) =  -429.105635832     A.U. after   15 cycles
 SCF Done:  E(RB3LYP) =  -429.131141629     A.U. after   13 cycles
 SCF Done:  E(RB3LYP) =  -429.134143328     A.U. after   13 cycles
 SCF Done:  E(RB3LYP) =  -429.136588899     A.U. after   15 cycles
 SCF Done:  E(RB3LYP) =  -429.135516509     A.U. after   15 cycles
 SCF Done:  E(RB3LYP) =  -429.137324140     A.U. after   13 cycles
 SCF Done:  E(RB3LYP) =  -429.134565636     A.U. after   15 cycles
 SCF Done:  E(RB3LYP) =  -429.138411174     A.U. after   13 cycles
 SCF Done:  E(RB3LYP) =  -429.139148323     A.U. after   11 cycles
 SCF Done:  E(RB3LYP) =  -429.139170303     A.U. after   10 cycles
 SCF Done:  E(RB3LYP) =  -429.139186023     A.U. after   10 cycles
 SCF Done:  E(RB3LYP) =  -429.139193610     A.U. after    9 cycles
 SCF Done:  E(RB3LYP) =  -429.139194053     A.U. after    8 cycles
 SCF Done:  E(RB3LYP) =  -429.139194131     A.U. after    8 cycles
 Optimization completed.
    -- Stationary point found.
 Normal termination of Gaussian 16 at Sun Jul  3 14:40:59 2022.

 ----------------------------------------------------------------------
 #N Geom=AllCheck Guess=TCheck SCRF=Check GenChk RB3LYP/6-31G(2df,p) Fr
 eq
 ----------------------------------------------------------------------

 Structure from the checkpoint file:  "NtCCNn1cncn1.chk"
 -------------------
 Title Card Required
 -------------------
 Charge =  0 Multiplicity = 1

                         Standard orientation:
 ---------------------------------------------------------------------
 Center     Atomic      Atomic             Coordinates (Angstroms)
 Number     Number       Type             X           Y           Z
 ---------------------------------------------------------------------
      1          7           0        4.021257    0.062341   -0.110468
      2          6           0        2.909629   -0.075335    0.169442
      3          6           0        1.501671   -0.270806    0.509798
      4          7           0        0.650284    0.414297   -0.484069
      5          7           0       -0.693170    0.178533   -0.226509
      6          6           0       -1.629088    1.103657    0.077228
      7          7           0       -2.795907    0.518448    0.256564
      8          6           0       -2.507614   -0.797774    0.044398
      9          7           0       -1.245918   -1.061530   -0.250930
     10          1           0        1.301577    0.170888    1.491247
     11          1           0        1.287699   -1.345760    0.573716
     12          1           0        0.856783    0.055694   -1.413682
     13          1           0       -1.399382    2.155529    0.144186
     14          1           0       -3.250088   -1.579425    0.107218
 ---------------------------------------------------------------------

 SCF Done:  E(RB3LYP) =  -429.139194131     A.U. after    1 cycles

 The electronic state is 1-A.
 Alpha  occ. eigenvalues --  -14.45777 -14.41136 -14.36995 -14.35113 -14.33529
 Alpha  occ. eigenvalues --  -10.28431 -10.26700 -10.24627 -10.24157  -1.11481
 Alpha  occ. eigenvalues --   -0.99143  -0.92245  -0.88611  -0.83406  -0.75286
 Alpha  occ. eigenvalues --   -0.64438  -0.63065  -0.58745  -0.55886  -0.51274
 Alpha  occ. eigenvalues --   -0.50106  -0.48018  -0.45348  -0.43721  -0.37762
 Alpha  occ. eigenvalues --   -0.35810  -0.35154  -0.34787  -0.30813  -0.30591
 Alpha  occ. eigenvalues --   -0.28980  -0.28425
 Alpha virt. eigenvalues --   -0.01616   0.00039   0.02138   0.03893   0.07838
 Alpha virt. eigenvalues --    0.09466   0.11596   0.12939   0.14787   0.15976
 Alpha virt. eigenvalues --    0.16684   0.19514   0.21247   0.22429   0.24632

 Mulliken charges:
               1
     1  N   -0.283652
     2  C    0.251274
     3  C   -0.241375
     4  N   -0.295727
     5  N    0.078249
     6  C    0.038451
     7  N   -0.268207
     8  C    0.044564
     9  N   -0.243862
    10  H    0.174082
    11  H    0.178085
    12  H    0.268942
    13  H    0.161596
    14  H    0.137581
 Sum of Mulliken charges =   0.00000

 Dipole moment (field-independent basis, Debye):
    X=             -1.1588    Y=             -0.2302    Z=              0.3617  Tot=              1.2356
 Quadrupole moment (field-independent basis, Debye-Ang):
   XX=            -73.5988   YY=            -49.5252   ZZ=            -47.9967
   XY=              0.5911   XZ=              2.6352   YZ=             -0.4341

  Exact polarizability:  99.914   3.543  61.238  -6.126   0.905  44.148
 Approx polarizability: 146.495   4.809 103.140 -15.641   2.711  70.972

                      1                      2                      3
                      A                      A                      A
 Frequencies --     53.6898                89.1999               110.9173
 Red. masses --      5.6741                 5.4923                 3.6962
 Frc consts  --      0.0096                 0.0257                 0.0268
 IR Inten    --      8.0511                 1.6331                10.2252

                      4                      5                      6
                      A                      A                      A
 Frequencies --    194.2017               347.6902               388.5798
 Red. masses --      7.3314                 4.1018                 4.0734
 Frc consts  --      0.1629                 0.2922                 0.3624
 IR Inten    --      3.2847                 8.4243                 1.2369

                      7                      8                      9
                      A                      A                      A
 Frequencies --    423.4510               509.7658               643.7055
 Red. masses --      4.6882                 7.7940                 4.5355
 Frc consts  --      0.4953                 1.1933                 1.1073
 IR Inten    --      7.0358                 0.7229                 3.5463

                     10                     11                     12
                      A                      A                      A
 Frequencies --    697.4714               771.4635               841.4313
 Red. masses --      3.5039                 5.0203                 1.6432
 Frc consts  --      1.0043                 1.7604                 0.6855
 IR Inten    --     18.7271                19.5896                50.6901

                     13                     14                     15
                      A                      A                      A
 Frequencies --    872.1382               914.5595               963.3087
 Red. masses --      1.3833                 1.3976                 5.9943
 Frc consts  --      0.6199                 0.6887                 3.2773
 IR Inten    --     10.4637                 3.7105                15.8464

                     16                     17                     18
                      A                      A                      A
 Frequencies --    972.7842              1011.8237              1021.5286
 Red. masses --      3.1333                 2.9935                 3.2909
 Frc consts  --      1.7470                 1.8057                 2.0233
 IR Inten    --      2.9400                10.4628                42.4554

                     19                     20                     21
                      A                      A                      A
 Frequencies --   1097.1748              1161.1393              1222.6971
 Red. masses --      2.8232                 2.0428                 1.4245
 Frc consts  --      2.0023                 1.6227                 1.2547
 IR Inten    --      8.5208                17.7158                 4.7897

                     22                     23                     24
                      A                      A                      A
 Frequencies --   1251.1329              1255.4017              1315.2224
 Red. masses --      1.2248                 5.1235                 3.0369
 Frc consts  --      1.1296                 4.7575                 3.0951
 IR Inten    --      7.9680                 3.7442                35.7687

                     25                     26                     27
                      A                      A                      A
 Frequencies --   1365.2814              1394.5155              1449.6492
 Red. masses --      1.3651                 5.1266                 2.8857
 Frc consts  --      1.4992                 5.8739                 3.5730
 IR Inten    --      7.9203                11.8257                 1.3340

                     28                     29                     30
                      A                      A                      A
 Frequencies --   1490.7644              1542.9367              1557.7588
 Red. masses --      1.0790                 2.4218                 2.0800
 Frc consts  --      1.4128                 3.3969                 2.9737
 IR Inten    --      5.6911                15.5013                30.3617

                     31                     32                     33
                      A                      A                      A
 Frequencies --   2373.7737              3030.9174              3087.7180
 Red. masses --     12.6226                 1.0625                 1.0982
 Frc consts  --     41.9063                 5.7506                 6.1691
 IR Inten    --      1.6005                 7.4477                 1.5085

                     34                     35                     36
                      A                      A                      A
 Frequencies --   3259.1274              3274.6565              3495.8145
 Red. masses --      1.0966                 1.0997                 1.0746
 Frc consts  --      6.8628                 6.9479                 7.7374
 IR Inten    --      3.2170                 0.8288                10.8454

 - Thermochemistry -
 -------------------
 Temperature   298.150 Kelvin.  Pressure   1.00000 Atm.
 Atom     1 has atomic number  7 and mass  14.00307

 Molecular mass:   123.05450 amu.
 Principal axes and moments of inertia in atomic units:
                           1         2         3
     Eigenvalues --   245.850932275.163202420.03062
           X            1.00000   0.00117   0.00148
           Y           -0.00115   0.99994  -0.01120
           Z           -0.00149   0.01120   0.99994
 This molecule is an asymmetric top.
 Rotational symmetry number  1.
 Rotational temperatures (Kelvin)      0.35230     0.03807     0.03579
 Rotational constants (GHZ):           7.34079     0.79324     0.74575
 Zero-point vibrational energy     271871.7 (Joules/Mol)
                                   64.97889 (Kcal/Mol)
 Warning -- explicit consideration of   8 degrees of freedom as
           vibrations may cause significant error
 Vibrational temperatures:     77.25   128.34   159.59   279.41   500.25
          (Kelvin)            559.08   609.25   733.44   926.15  1003.51
                             1109.96  1210.63  1254.81  1315.85  1385.99
                             1399.62  1455.79  1469.75  1578.59  1670.62
                             1759.19  1800.10  1806.24  1892.31  1964.34
                             2006.40  2085.72  2144.88  2219.94  2241.27
                             3415.33  4360.81  4442.54  4689.16  4711.50
                             5029.70

 Zero-point correction=                           0.103550 (Hartree/Particle)
 Thermal correction to Energy=                    0.111240
 Thermal correction to Enthalpy=                  0.112184
 Thermal correction to Gibbs Free Energy=         0.070078
 Sum of electronic and zero-point Energies=           -429.035644
 Sum of electronic and thermal Energies=              -429.027954
 Sum of electronic and thermal Enthalpies=            -429.027010
 Sum of electronic and thermal Free Energies=         -429.069117

                     E (Thermal)             CV                S
                      KCal/Mol        Cal/Mol-Kelvin    Cal/Mol-Kelvin
 Total                   69.804             26.742             88.621
 Electronic               0.000              0.000              0.000
 Translational            0.889              2.981             40.336
 Rotational               0.889              2.981             28.694
 Vibrational             68.027             20.780             19.590
 Vibration     1          0.596              1.976              4.677
 Vibration     2          0.602              1.957              3.678
 Vibration     3          0.607              1.940              3.253
 Vibration     4          0.635              1.848              2.187
 Vibration     5          0.725              1.580              1.177
 Vibration     6          0.757              1.495              1.006
 Vibration     7          0.786              1.419              0.880
 Vibration     8          0.865              1.228              0.634

                           ! Non-Optimized Parameters !
 Normal termination of Gaussian 16 at Sun Jul  3 14:59:28 2022.
