 Gaussian 16, Revision A.03,
 Gaussian 16:  ES64L-G16RevA.03 25-Dec-2016

 -----------------------------
 # opt freq b3lyp/6-31g(2df,p)
 -----------------------------

 -------------------
 Title Card Required
 -------------------
 Symbolic Z-matrix:
 Charge =  0 Multiplicity = 1

 SCF Done:  E(RB3LYP) =  -435.343120289     A.U. after   14 cycles
 SCF Done:  E(RB3LYP) =  -435.367898944     A.U. after   13 cycles
 SCF Done:  E(RB3LYP) =  -435.367466729     A.U. after   14 cycles
 SCF Done:  E(RB3LYP) =  -435.367007159     A.U. after   12 cycles
 SCF Done:  E(RB3LYP) =  -435.365502677     A.U. after   12 cycles
 SCF Done:  E(RB3LYP) =  -435.368347717     A.U. after   10 cycles
 SCF Done:  E(RB3LYP) =  -435.369422190     A.U. after   12 cycles
 SCF Done:  E(RB3LYP) =  -435.368833645     A.U. after   12 cycles
 SCF Done:  E(RB3LYP) =  -435.369738879     A.U. after   12 cycles
 SCF Done:  E(RB3LYP) =  -435.369944606     A.U. after   12 cycles
 SCF Done:  E(RB3LYP) =  -435.370344757     A.U. after   11 cycles
 SCF Done:  E(RB3LYP) =  -435.370483651     A.U. after   12 cycles
 SCF Done:  E(RB3LYP) =  -435.370501634     A.U. after   10 cycles
 SCF Done:  E(RB3LYP) =  -435.370490985     A.U. after   11 cycles
 SCF Done:  E(RB3LYP) =  -435.370518285     A.U. after   11 cycles
 SCF Done:  E(RB3LYP) =  -435.370514403     A.U. after   10 cycles
 SCF Done:  E(RB3LYP) =  -435.370519413     A.U. after   10 cycles
 SCF Done:  E(RB3LYP) =  -435.370519500     A.U. after    7 cycles
 SCF Done:  E(RB3LYP) =  -435.370519518     A.U. after    6 cycles
 Optimization completed.
    -- Stationary point found.
 Normal termination of Gaussian 16 at Mon Jul  4 00:40:34 2022.

 ----------------------------------------------------------------------
 #N Geom=AllCheck Guess=TCheck SCRF=Check GenChk RB3LYP/6-31G(2df,p) Fr
 eq
 ----------------------------------------------------------------------

 Structure from the checkpoint file:  "NtCC1CCCpNOpN1.chk"
 -------------------
 Title Card Required
 -------------------
 Charge =  0 Multiplicity = 1

                         Standard orientation:
 ---------------------------------------------------------------------
 Center     Atomic      Atomic             Coordinates (Angstroms)
 Number     Number       Type             X           Y           Z
 ---------------------------------------------------------------------
      1          7           0        3.416181   -1.054383   -0.033518
      2          6           0        2.361596   -0.621781    0.155408
      3          6           0        1.037089   -0.046952    0.376897
      4          6           0        0.964082    1.481384    0.126687
      5          6           0       -0.542879    1.705204   -0.111259
      6          6           0       -1.100123    0.305983   -0.509772
      7          7           0       -2.040134   -0.126418    0.523671
      8          8           0       -2.733856   -1.288969    0.045718
      9          7           0        0.020745   -0.644574   -0.507118
     10          1           0        0.742558   -0.255337    1.412653
     11          1           0        1.545298    1.727514   -0.766990
     12          1           0        1.364729    2.064191    0.959003
     13          1           0       -0.729424    2.450980   -0.886286
     14          1           0       -1.031336    2.047842    0.806817
     15          1           0       -1.567167    0.287891   -1.502355
     16          1           0       -2.786078    0.562619    0.594621
     17          1           0       -2.163358   -2.003434    0.352027
     18          1           0        0.399499   -0.735922   -1.444243
 ---------------------------------------------------------------------

 SCF Done:  E(RB3LYP) =  -435.370519518     A.U. after    1 cycles

 The electronic state is 1-A.
 Alpha  occ. eigenvalues --  -19.16068 -14.37298 -14.34062 -14.33306 -10.26147
 Alpha  occ. eigenvalues --  -10.25045 -10.22306 -10.20990 -10.20495  -1.05858
 Alpha  occ. eigenvalues --   -0.95326  -0.90260  -0.83452  -0.78697  -0.73928
 Alpha  occ. eigenvalues --   -0.63362  -0.60605  -0.56908  -0.51155  -0.50224
 Alpha  occ. eigenvalues --   -0.48623  -0.45253  -0.44209  -0.42423  -0.39779
 Alpha  occ. eigenvalues --   -0.39469  -0.37536  -0.36238  -0.35730  -0.33350
 Alpha  occ. eigenvalues --   -0.32622  -0.29994  -0.26317  -0.24044
 Alpha virt. eigenvalues --    0.02086   0.03300   0.06465   0.07917   0.08787
 Alpha virt. eigenvalues --    0.09896   0.12187   0.13408   0.13785   0.15496
 Alpha virt. eigenvalues --    0.16101   0.17609   0.18886   0.19722   0.20998

 Mulliken charges:
               1
     1  N   -0.316879
     2  C    0.257349
     3  C   -0.090733
     4  C   -0.216180
     5  C   -0.268138
     6  C    0.075402
     7  N   -0.201073
     8  O   -0.417936
     9  N   -0.295326
    10  H    0.140574
    11  H    0.120401
    12  H    0.122049
    13  H    0.116766
    14  H    0.115534
    15  H    0.077680
    16  H    0.241903
    17  H    0.304733
    18  H    0.233872
 Sum of Mulliken charges =  -0.00000

 Dipole moment (field-independent basis, Debye):
    X=             -2.3717    Y=              2.9245    Z=             -0.2755  Tot=              3.7754
 Quadrupole moment (field-independent basis, Debye-Ang):
   XX=            -70.8183   YY=            -51.1330   ZZ=            -50.3236
   XY=              2.5412   XZ=              0.4136   YZ=             -0.6238

  Exact polarizability:  90.767  -4.693  72.144  -1.105   1.169  58.414
 Approx polarizability: 126.613 -10.085 104.747  -4.224   3.732  91.982

                      1                      2                      3
                      A                      A                      A
 Frequencies --     58.3316               102.9793               117.3495
 Red. masses --      3.6595                 3.1245                 3.8886
 Frc consts  --      0.0073                 0.0195                 0.0316
 IR Inten    --      1.7491                 9.4249                 6.9419

                      4                      5                      6
                      A                      A                      A
 Frequencies --    175.8896               239.0719               279.1855
 Red. masses --      3.5506                 1.7436                 2.7194
 Frc consts  --      0.0647                 0.0587                 0.1249
 IR Inten    --     15.2770                22.1321                41.6758

                      7                      8                      9
                      A                      A                      A
 Frequencies --    310.8389               412.3730               494.7518
 Red. masses --      2.4372                 4.6529                 4.7365
 Frc consts  --      0.1387                 0.4662                 0.6831
 IR Inten    --     41.3611                 4.9184                 3.6546

                     10                     11                     12
                      A                      A                      A
 Frequencies --    537.2698               557.9167               588.1999
 Red. masses --      7.1338                 2.7221                 2.9673
 Frc consts  --      1.2133                 0.4992                 0.6049
 IR Inten    --      3.0463                 2.2396                 2.6074

                     13                     14                     15
                      A                      A                      A
 Frequencies --    715.4593               774.6901               812.5344
 Red. masses --      2.8814                 1.7144                 2.1986
 Frc consts  --      0.8690                 0.6062                 0.8552
 IR Inten    --      5.0136               105.8554                30.1054

                     16                     17                     18
                      A                      A                      A
 Frequencies --    873.8890               916.7324               939.0519
 Red. masses --      2.3698                 2.5709                 2.4514
 Frc consts  --      1.0663                 1.2730                 1.2736
 IR Inten    --      1.5111                 8.7506                51.4734

                     19                     20                     21
                      A                      A                      A
 Frequencies --    958.2803              1008.9577              1034.4577
 Red. masses --      2.3701                 3.3336                 1.9737
 Frc consts  --      1.2824                 1.9995                 1.2444
 IR Inten    --     10.5754                 9.1785                 1.1886

                     22                     23                     24
                      A                      A                      A
 Frequencies --   1042.0831              1064.1686              1091.2307
 Red. masses --      3.3071                 2.0557                 2.6725
 Frc consts  --      2.1160                 1.3716                 1.8750
 IR Inten    --     21.0111                 3.8532                 9.0482

                     25                     26                     27
                      A                      A                      A
 Frequencies --   1148.1755              1211.5387              1214.5061
 Red. masses --      2.7220                 1.4695                 1.3181
 Frc consts  --      2.1142                 1.2709                 1.1455
 IR Inten    --     59.0988                 1.6975                 2.8033

                     28                     29                     30
                      A                      A                      A
 Frequencies --   1297.3949              1303.1248              1310.3091
 Red. masses --      1.3060                 1.2951                 1.1870
 Frc consts  --      1.2952                 1.2958                 1.2007
 IR Inten    --      0.2459                 6.3253                 6.0215

                     31                     32                     33
                      A                      A                      A
 Frequencies --   1329.5321              1341.7344              1362.1043
 Red. masses --      1.4265                 1.1787                 1.3871
 Frc consts  --      1.4857                 1.2503                 1.5163
 IR Inten    --     20.9624                60.9109                 6.4479

                     34                     35                     36
                      A                      A                      A
 Frequencies --   1410.0360              1464.6437              1480.7658
 Red. masses --      1.3510                 1.2260                 1.0829
 Frc consts  --      1.5826                 1.5495                 1.3990
 IR Inten    --     13.1549                 7.8041                 1.1017

                     37                     38                     39
                      A                      A                      A
 Frequencies --   1500.1720              1526.2387              2364.2734
 Red. masses --      1.1040                 1.1120                12.6639
 Frc consts  --      1.4639                 1.5262                41.7074
 IR Inten    --      4.2567                11.1047                 7.8237

                     40                     41                     42
                      A                      A                      A
 Frequencies --   3024.2017              3039.4834              3054.3809
 Red. masses --      1.0858                 1.0820                 1.0639
 Frc consts  --      5.8508                 5.8897                 5.8477
 IR Inten    --     36.5218                 5.2413                18.6550

                     43                     44                     45
                      A                      A                      A
 Frequencies --   3062.5111              3108.6465              3121.7505
 Red. masses --      1.0634                 1.0993                 1.1050
 Frc consts  --      5.8764                 6.2591                 6.3448
 IR Inten    --     15.4240                11.0661                25.4458

                     46                     47                     48
                      A                      A                      A
 Frequencies --   3493.1492              3531.2180              3802.8516
 Red. masses --      1.0752                 1.0750                 1.0674
 Frc consts  --      7.7296                 7.8976                 9.0944
 IR Inten    --      1.1250                 3.7577                37.3359

 - Thermochemistry -
 -------------------
 Temperature   298.150 Kelvin.  Pressure   1.00000 Atm.
 Atom     1 has atomic number  7 and mass  14.00307

 Molecular mass:   127.07456 amu.
 Principal axes and moments of inertia in atomic units:
                           1         2         3
     Eigenvalues --   572.432081766.228032175.96863
           X            0.99995   0.00963   0.00081
           Y           -0.00963   0.99995   0.00010
           Z           -0.00081  -0.00011   1.00000
 This molecule is an asymmetric top.
 Rotational symmetry number  1.
 Warning -- assumption of classical behavior for rotation
           may cause significant error
 Rotational temperatures (Kelvin)      0.15131     0.04904     0.03980
 Rotational constants (GHZ):           3.15276     1.02181     0.82940
 Zero-point vibrational energy     392425.6 (Joules/Mol)
                                   93.79197 (Kcal/Mol)
 Warning -- explicit consideration of  12 degrees of freedom as
           vibrations may cause significant error
 Vibrational temperatures:     83.93   148.16   168.84   253.07   343.97
          (Kelvin)            401.69   447.23   593.31   711.84   773.01
                              802.72   846.29  1029.39  1114.61  1169.06
                             1257.33  1318.97  1351.09  1378.75  1451.67
                             1488.35  1499.33  1531.10  1570.04  1651.97
                             1743.13  1747.40  1866.66  1874.91  1885.24
                             1912.90  1930.46  1959.76  2028.73  2107.30
                             2130.49  2158.41  2195.92  3401.66  4351.15
                             4373.14  4394.57  4406.27  4472.65  4491.50
                             5025.86  5080.64  5471.46

 Zero-point correction=                           0.149467 (Hartree/Particle)
 Thermal correction to Energy=                    0.158340
 Thermal correction to Enthalpy=                  0.159284
 Thermal correction to Gibbs Free Energy=         0.115163
 Sum of electronic and zero-point Energies=           -435.221053
 Sum of electronic and thermal Energies=              -435.212179
 Sum of electronic and thermal Enthalpies=            -435.211235
 Sum of electronic and thermal Free Energies=         -435.255357

                     E (Thermal)             CV                S
                      KCal/Mol        Cal/Mol-Kelvin    Cal/Mol-Kelvin
 Total                   99.360             32.411             92.862
 Electronic               0.000              0.000              0.000
 Translational            0.889              2.981             40.432
 Rotational               0.889              2.981             29.177
 Vibrational             97.582             26.450             23.253
 Vibration     1          0.596              1.974              4.513
 Vibration     2          0.605              1.947              3.397
 Vibration     3          0.608              1.935              3.144
 Vibration     4          0.628              1.872              2.372
 Vibration     5          0.657              1.781              1.810
 Vibration     6          0.680              1.712              1.539
 Vibration     7          0.700              1.653              1.358
 Vibration     8          0.776              1.443              0.918
 Vibration     9          0.850              1.262              0.671
 Vibration    10          0.892              1.168              0.571
 Vibration    11          0.913              1.122              0.528
 Vibration    12          0.945              1.057              0.470

 Optimization completed.
    -- Stationary point found.
 Normal termination of Gaussian 16 at Mon Jul  4 01:09:25 2022.
