 Gaussian 16, Revision A.03,
 Gaussian 16:  ES64L-G16RevA.03 25-Dec-2016

 -----------------------------
 # opt freq b3lyp/6-31g(2df,p)
 -----------------------------

 -------------------
 Title Card Required
 -------------------
 Symbolic Z-matrix:
 Charge =  0 Multiplicity = 1

 SCF Done:  E(RB3LYP) =  -357.455134662     A.U. after   19 cycles
 SCF Done:  E(RB3LYP) =  -357.496724369     A.U. after   15 cycles
 SCF Done:  E(RB3LYP) =  -357.532199410     A.U. after   17 cycles
 SCF Done:  E(RB3LYP) =  -357.543457268     A.U. after   17 cycles
 SCF Done:  E(RB3LYP) =  -357.548136862     A.U. after   18 cycles
 SCF Done:  E(RB3LYP) =  -357.556061742     A.U. after   15 cycles
 SCF Done:  E(RB3LYP) =  -357.562245558     A.U. after   17 cycles
 SCF Done:  E(RB3LYP) =  -357.585484620     A.U. after   17 cycles
 SCF Done:  E(RB3LYP) =  -357.596210913     A.U. after   15 cycles
 SCF Done:  E(RB3LYP) =  -357.638410547     A.U. after   15 cycles
 SCF Done:  E(RB3LYP) =  -357.734672632     A.U. after   12 cycles
 SCF Done:  E(RB3LYP) =  -357.734790882     A.U. after   12 cycles
 SCF Done:  E(RB3LYP) =  -357.734869557     A.U. after   12 cycles
 SCF Done:  E(RB3LYP) =  -357.734914012     A.U. after   12 cycles
 SCF Done:  E(RB3LYP) =  -357.734945662     A.U. after   11 cycles
 SCF Done:  E(RB3LYP) =  -357.734951790     A.U. after    9 cycles
 SCF Done:  E(RB3LYP) =  -357.734955229     A.U. after    8 cycles
 SCF Done:  E(RB3LYP) =  -357.734955653     A.U. after    8 cycles
 SCF Done:  E(RB3LYP) =  -357.734955842     A.U. after    8 cycles
 Optimization completed.
    -- Stationary point found.
 Normal termination of Gaussian 16 at Thu Aug  4 03:42:31 2022.

 ----------------------------------------------------------------------
 #N Geom=AllCheck Guess=TCheck SCRF=Check GenChk RB3LYP/6-31G(2df,p) Fr
 eq
 ----------------------------------------------------------------------

 Structure from the checkpoint file:  "NtCC1NC2dNCC21.chk"
 -------------------
 Title Card Required
 -------------------
 Charge =  0 Multiplicity = 1

                         Standard orientation:
 ---------------------------------------------------------------------
 Center     Atomic      Atomic             Coordinates (Angstroms)
 Number     Number       Type             X           Y           Z
 ---------------------------------------------------------------------
      1          7           0        1.704742    1.800079   -0.738894
      2          6           0        1.143031    1.055442   -0.057601
      3          6           0        0.409133    0.137335    0.835136
      4          7           0       -1.031598    0.455833    0.899326
      5          6           0       -1.820931    0.150319   -0.143662
      6          7           0       -2.529637   -0.149016   -1.012029
      7          6           0        1.335401   -1.769515   -0.530277
      8          6           0        0.612309   -1.318576    0.485892
      9          1           0        0.784351    0.310144    1.852040
     10          1           0       -1.246300    1.342988    1.336898
     11          1           0        1.848001   -1.102632   -1.215578
     12          1           0        1.439202   -2.833378   -0.710117
     13          1           0        0.096545   -1.995418    1.161003
 ---------------------------------------------------------------------

 SCF Done:  E(RB3LYP) =  -357.734955842     A.U. after    1 cycles

 The electronic state is 1-A.
 Alpha  occ. eigenvalues --  -14.41252 -14.35355 -14.32818 -10.30665 -10.25144
 Alpha  occ. eigenvalues --  -10.24131 -10.22748 -10.21391  -0.99963  -0.92389
 Alpha  occ. eigenvalues --   -0.89431  -0.83016  -0.74989  -0.63197  -0.61291
 Alpha  occ. eigenvalues --   -0.56245  -0.51908  -0.50021  -0.44432  -0.40720
 Alpha  occ. eigenvalues --   -0.39594  -0.37575  -0.36387  -0.35834  -0.35073
 Alpha  occ. eigenvalues --   -0.33607  -0.30181  -0.27845
 Alpha virt. eigenvalues --   -0.02898  -0.00001   0.00803   0.02412   0.07127
 Alpha virt. eigenvalues --    0.07795   0.10045   0.11547   0.12236   0.15269
 Alpha virt. eigenvalues --    0.16840   0.18383   0.23442   0.26533   0.30358

 Mulliken charges:
               1
     1  N   -0.313855
     2  C    0.298728
     3  C   -0.190704
     4  N   -0.384528
     5  C    0.341676
     6  N   -0.314902
     7  C   -0.307406
     8  C    0.017748
     9  H    0.155642
    10  H    0.282679
    11  H    0.151220
    12  H    0.137141
    13  H    0.126560
 Sum of Mulliken charges =  -0.00000

 Dipole moment (field-independent basis, Debye):
    X=              1.4749    Y=             -1.0718    Z=              4.3979  Tot=              4.7609
 Quadrupole moment (field-independent basis, Debye-Ang):
   XX=            -56.4481   YY=            -44.6968   ZZ=            -45.2326
   XY=             -8.2139   XZ=             -4.1710   YZ=              4.7618

  Exact polarizability:  67.048   1.978  63.807  -3.229   3.129  60.627
 Approx polarizability:  99.298   8.856  92.436  -5.398   4.894 111.102

                      1                      2                      3
                      A                      A                      A
 Frequencies --     59.3638                78.5445               153.1440
 Red. masses --      8.1794                 3.3868                 3.6766
 Frc consts  --      0.0170                 0.0123                 0.0508
 IR Inten    --      6.5736                 1.0083                 0.9716

                      4                      5                      6
                      A                      A                      A
 Frequencies --    161.9277               250.0946               329.5194
 Red. masses --      5.3241                 5.2040                 2.9627
 Frc consts  --      0.0823                 0.1918                 0.1895
 IR Inten    --      8.2590                10.4062                 4.7533

                      7                      8                      9
                      A                      A                      A
 Frequencies --    404.5929               441.1124               518.1003
 Red. masses --      3.6881                 1.7806                 9.2134
 Frc consts  --      0.3557                 0.2041                 1.4571
 IR Inten    --     11.4474                53.5391                 1.5551

                     10                     11                     12
                      A                      A                      A
 Frequencies --    586.2283               590.5811               627.1762
 Red. masses --      2.5565                 3.3209                 3.5887
 Frc consts  --      0.5176                 0.6824                 0.8317
 IR Inten    --     40.8457                10.3938                 0.5895

                     13                     14                     15
                      A                      A                      A
 Frequencies --    750.4394               867.8821               946.9543
 Red. masses --      3.7702                 4.5918                 2.3647
 Frc consts  --      1.2510                 2.0377                 1.2494
 IR Inten    --     11.3959                15.9863                 8.5527

                     16                     17                     18
                      A                      A                      A
 Frequencies --    992.3794              1016.7341              1034.4099
 Red. masses --      1.3594                 1.6776                 1.3740
 Frc consts  --      0.7888                 1.0218                 0.8662
 IR Inten    --     21.4684                20.4975                 8.3577

                     19                     20                     21
                      A                      A                      A
 Frequencies --   1114.6450              1153.7458              1287.4192
 Red. masses --      1.6610                 5.0598                 1.4089
 Frc consts  --      1.2159                 3.9683                 1.3759
 IR Inten    --      3.8806                63.8691                 6.5647

                     22                     23                     24
                      A                      A                      A
 Frequencies --   1320.1938              1357.5741              1449.6546
 Red. masses --      1.2267                 1.2939                 1.1649
 Frc consts  --      1.2597                 1.4050                 1.4423
 IR Inten    --      1.6626                 7.3136                13.0446

                     25                     26                     27
                      A                      A                      A
 Frequencies --   1466.7173              1719.2903              2352.4309
 Red. masses --      1.3559                 4.8358                12.4448
 Frc consts  --      1.7185                 8.4220                40.5761
 IR Inten    --     19.7359                 1.0608                82.3633

                     28                     29                     30
                      A                      A                      A
 Frequencies --   2360.7803              3033.5159              3158.7894
 Red. masses --     12.6559                 1.0820                 1.0596
 Frc consts  --     41.5579                 5.8662                 6.2290
 IR Inten    --      2.7627                 4.1923                 0.7887

                     31                     32                     33
                      A                      A                      A
 Frequencies --   3179.0804              3247.0799              3573.7453
 Red. masses --      1.0936                 1.1155                 1.0747
 Frc consts  --      6.5119                 6.9293                 8.0872
 IR Inten    --      2.4372                 2.3195                38.2655

 - Thermochemistry -
 -------------------
 Temperature   298.150 Kelvin.  Pressure   1.00000 Atm.
 Atom     1 has atomic number  7 and mass  14.00307

 Molecular mass:   107.04835 amu.
 Principal axes and moments of inertia in atomic units:
                           1         2         3
     Eigenvalues --   685.840671047.773891329.88076
           X            0.99693  -0.07573  -0.02011
           Y            0.07654   0.99613   0.04329
           Z            0.01675  -0.04469   0.99886
 This molecule is an asymmetric top.
 Rotational symmetry number  1.
 Warning -- assumption of classical behavior for rotation
           may cause significant error
 Rotational temperatures (Kelvin)      0.12629     0.08266     0.06513
 Rotational constants (GHZ):           2.63143     1.72245     1.35707
 Zero-point vibrational energy     248726.6 (Joules/Mol)
                                   59.44709 (Kcal/Mol)
 Warning -- explicit consideration of  11 degrees of freedom as
           vibrations may cause significant error
 Vibrational temperatures:     85.41   113.01   220.34   232.98   359.83
          (Kelvin)            474.10   582.12   634.66   745.43   843.45
                              849.71   902.37  1079.71  1248.69  1362.46
                             1427.81  1462.85  1488.29  1603.73  1659.98
                             1852.31  1899.46  1953.25  2085.73  2110.28
                             2473.68  3384.62  3396.64  4364.55  4544.79
                             4573.99  4671.82  5141.82

 Zero-point correction=                           0.094735 (Hartree/Particle)
 Thermal correction to Energy=                    0.102950
 Thermal correction to Enthalpy=                  0.103895
 Thermal correction to Gibbs Free Energy=         0.061340
 Sum of electronic and zero-point Energies=           -357.640221
 Sum of electronic and thermal Energies=              -357.632006
 Sum of electronic and thermal Enthalpies=            -357.631061
 Sum of electronic and thermal Free Energies=         -357.673616

                     E (Thermal)             CV                S
                      KCal/Mol        Cal/Mol-Kelvin    Cal/Mol-Kelvin
 Total                   64.602             28.144             89.564
 Electronic               0.000              0.000              0.000
 Translational            0.889              2.981             39.921
 Rotational               0.889              2.981             28.349
 Vibrational             62.825             22.183             21.295
 Vibration     1          0.597              1.974              4.478
 Vibration     2          0.600              1.964              3.927
 Vibration     3          0.619              1.899              2.633
 Vibration     4          0.622              1.889              2.527
 Vibration     5          0.663              1.763              1.730
 Vibration     6          0.712              1.617              1.262
 Vibration     7          0.770              1.460              0.946
 Vibration     8          0.801              1.380              0.823
 Vibration     9          0.873              1.210              0.614
 Vibration    10          0.943              1.061              0.474
 Vibration    11          0.948              1.052              0.466

 Optimization completed.
    -- Stationary point found.
 Normal termination of Gaussian 16 at Thu Aug  4 03:59:15 2022.
