 Gaussian 16, Revision A.03,
 Gaussian 16:  ES64L-G16RevA.03 25-Dec-2016

 -----------------------------
 # opt freq b3lyp/6-31g(2df,p)
 -----------------------------

 -------------------
 Title Card Required
 -------------------
 Symbolic Z-matrix:
 Charge =  0 Multiplicity = 1

 SCF Done:  E(RB3LYP) =  -363.701962405     A.U. after   15 cycles
 SCF Done:  E(RB3LYP) =  -363.737255134     A.U. after   13 cycles
 SCF Done:  E(RB3LYP) =  -363.739892503     A.U. after   13 cycles
 SCF Done:  E(RB3LYP) =  -363.734800330     A.U. after   16 cycles
 SCF Done:  E(RB3LYP) =  -363.737760434     A.U. after   13 cycles
 SCF Done:  E(RB3LYP) =  -363.740009565     A.U. after   11 cycles
 SCF Done:  E(RB3LYP) =  -363.739694388     A.U. after   13 cycles
 SCF Done:  E(RB3LYP) =  -363.740195396     A.U. after   12 cycles
 SCF Done:  E(RB3LYP) =  -363.740359331     A.U. after   11 cycles
 SCF Done:  E(RB3LYP) =  -363.740218395     A.U. after   12 cycles
 SCF Done:  E(RB3LYP) =  -363.740383955     A.U. after   11 cycles
 SCF Done:  E(RB3LYP) =  -363.740432419     A.U. after   12 cycles
 SCF Done:  E(RB3LYP) =  -363.740438641     A.U. after   10 cycles
 SCF Done:  E(RB3LYP) =  -363.740439364     A.U. after    8 cycles
 SCF Done:  E(RB3LYP) =  -363.740439505     A.U. after    7 cycles
 SCF Done:  E(RB3LYP) =  -363.740439535     A.U. after    8 cycles
 Optimization completed.
    -- Stationary point found.
 Normal termination of Gaussian 16 at Thu Aug  4 01:01:06 2022.

 ----------------------------------------------------------------------
 #N Geom=AllCheck Guess=TCheck SCRF=Check GenChk RB3LYP/6-31G(2df,p) Fr
 eq
 ----------------------------------------------------------------------

 Structure from the checkpoint file:  "NtCCtCC1CCdCC1.chk"
 -------------------
 Title Card Required
 -------------------
 Charge =  0 Multiplicity = 1

                         Standard orientation:
 ---------------------------------------------------------------------
 Center     Atomic      Atomic             Coordinates (Angstroms)
 Number     Number       Type             X           Y           Z
 ---------------------------------------------------------------------
      1          7           0        4.249722    0.000003    0.512887
      2          6           0        3.131089    0.000006    0.198051
      3          6           0        1.817565   -0.000013   -0.171969
      4          6           0        0.653211   -0.000000   -0.498966
      5          6           0       -0.746432    0.000007   -0.886530
      6          6           0       -1.504865   -1.248461   -0.310016
      7          6           0       -2.361138   -0.665007    0.784538
      8          6           0       -2.361143    0.665003    0.784538
      9          6           0       -1.504869    1.248462   -0.310013
     10          1           0       -0.787577    0.000005   -1.980448
     11          1           0       -0.809364   -2.013256    0.049006
     12          1           0       -2.116186   -1.722075   -1.088618
     13          1           0       -2.924924   -1.291850    1.465827
     14          1           0       -2.924931    1.291842    1.465829
     15          1           0       -0.809375    2.013263    0.049011
     16          1           0       -2.116193    1.722076   -1.088612
 ---------------------------------------------------------------------

 SCF Done:  E(RB3LYP) =  -363.740439535     A.U. after    1 cycles

 The electronic state is 1-A.
 Alpha  occ. eigenvalues --  -14.33812 -10.23825 -10.23569 -10.22855 -10.21892
 Alpha  occ. eigenvalues --  -10.21004 -10.21003 -10.19756 -10.19664  -0.90823
 Alpha  occ. eigenvalues --   -0.87260  -0.79957  -0.74293  -0.72983  -0.65525
 Alpha  occ. eigenvalues --   -0.60683  -0.55136  -0.52103  -0.51327  -0.42907
 Alpha  occ. eigenvalues --   -0.40927  -0.40053  -0.39332  -0.39080  -0.37185
 Alpha  occ. eigenvalues --   -0.37079  -0.36756  -0.36688  -0.28073  -0.27985
 Alpha  occ. eigenvalues --   -0.26017
 Alpha virt. eigenvalues --   -0.03514  -0.03483   0.01055   0.07894   0.10291
 Alpha virt. eigenvalues --    0.13216   0.13348   0.13829   0.14009   0.16172
 Alpha virt. eigenvalues --    0.16660   0.17239   0.18574   0.19200   0.21244

 Mulliken charges:
               1
     1  N   -0.341154
     2  C    0.208589
     3  C   -0.066447
     4  C    0.203530
     5  C   -0.193525
     6  C   -0.267882
     7  C   -0.048596
     8  C   -0.048597
     9  C   -0.267881
    10  H    0.123119
    11  H    0.127607
    12  H    0.118307
    13  H    0.103508
    14  H    0.103508
    15  H    0.127607
    16  H    0.118307
 Sum of Mulliken charges =  -0.00000

 Dipole moment (field-independent basis, Debye):
    X=             -5.3880    Y=              0.0000    Z=             -1.2189  Tot=              5.5242
 Quadrupole moment (field-independent basis, Debye-Ang):
   XX=            -70.2426   YY=            -48.9620   ZZ=            -50.3160
   XY=             -0.0000   XZ=             -3.0621   YZ=             -0.0000

  Exact polarizability: 131.003  -0.000  72.818   7.174  -0.000  61.369
 Approx polarizability: 217.244  -0.001 115.928  29.246  -0.000  95.583

                      1                      2                      3
                      A                      A                      A
 Frequencies --     34.2622                86.7791               115.5425
 Red. masses --      3.3657                 4.8074                 5.1008
 Frc consts  --      0.0023                 0.0213                 0.0401
 IR Inten    --      0.6191                 0.9861                 0.8197

                      4                      5                      6
                      A                      A                      A
 Frequencies --    229.4072               255.0957               379.3545
 Red. masses --      6.6413                 4.1945                 2.0892
 Frc consts  --      0.2059                 0.1608                 0.1771
 IR Inten    --      1.6238                 2.1485                 0.2821

                      7                      8                      9
                      A                      A                      A
 Frequencies --    421.0065               522.1968               574.9916
 Red. masses --      6.6298                 6.1553                10.9694
 Frc consts  --      0.6924                 0.9889                 2.1368
 IR Inten    --      1.6582                 4.6116                 4.2368

                     10                     11                     12
                      A                      A                      A
 Frequencies --    594.2239               636.8401               727.8779
 Red. masses --      9.1599                 1.9342                 2.9405
 Frc consts  --      1.9056                 0.4622                 0.9179
 IR Inten    --      1.7323                10.5609                12.8132

                     13                     14                     15
                      A                      A                      A
 Frequencies --    730.6959               786.0208               891.6483
 Red. masses --      1.7992                 6.3243                 4.0449
 Frc consts  --      0.5660                 2.3021                 1.8947
 IR Inten    --     15.0476                 0.4935                 1.4438

                     16                     17                     18
                      A                      A                      A
 Frequencies --    897.4825               960.3871               979.9669
 Red. masses --      1.8500                 1.6065                 1.3476
 Frc consts  --      0.8780                 0.8730                 0.7625
 IR Inten    --      4.6996                 4.6593                 0.1322

                     19                     20                     21
                      A                      A                      A
 Frequencies --    982.2881              1006.6484              1046.6957
 Red. masses --      2.8067                 1.9971                 2.8266
 Frc consts  --      1.5956                 1.1924                 1.8246
 IR Inten    --      0.2478                 1.3977                 2.1268

                     22                     23                     24
                      A                      A                      A
 Frequencies --   1131.9556              1152.0052              1174.8095
 Red. masses --      1.1106                 1.7724                 1.1917
 Frc consts  --      0.8384                 1.3858                 0.9691
 IR Inten    --      2.8646                 7.4350                 0.0004

                     25                     26                     27
                      A                      A                      A
 Frequencies --   1210.1227              1214.3227              1307.8969
 Red. masses --      1.1865                 1.4142                 1.3460
 Frc consts  --      1.0237                 1.2287                 1.3565
 IR Inten    --      0.0091                 0.4004                 2.7378

                     28                     29                     30
                      A                      A                      A
 Frequencies --   1328.2793              1344.2821              1367.9684
 Red. masses --      1.5506                 1.6918                 1.7163
 Frc consts  --      1.6119                 1.8013                 1.8924
 IR Inten    --      5.2728                12.0122                 3.1434

                     31                     32                     33
                      A                      A                      A
 Frequencies --   1484.9891              1490.8055              1696.2488
 Red. masses --      1.0790                 1.0942                 6.1274
 Frc consts  --      1.4020                 1.4328                10.3873
 IR Inten    --      3.2905                 0.4512                 6.8052

                     34                     35                     36
                      A                      A                      A
 Frequencies --   2261.2192              2396.5142              3025.5159
 Red. masses --     12.3794                12.2013                 1.0689
 Frc consts  --     37.2938                41.2873                 5.7646
 IR Inten    --      1.9503               166.2901                18.8246

                     37                     38                     39
                      A                      A                      A
 Frequencies --   3027.3604              3056.8634              3076.3150
 Red. masses --      1.0662                 1.0809                 1.0958
 Frc consts  --      5.7572                 5.9512                 6.1098
 IR Inten    --     40.9650                11.5103                 8.0660

                     40                     41                     42
                      A                      A                      A
 Frequencies --   3078.5564              3189.8629              3214.2832
 Red. masses --      1.0970                 1.0846                 1.1043
 Frc consts  --      6.1258                 6.5020                 6.7222
 IR Inten    --     20.3547                 3.0447                17.3154

 - Thermochemistry -
 -------------------
 Temperature   298.150 Kelvin.  Pressure   1.00000 Atm.
 Atom     1 has atomic number  7 and mass  14.00307

 Molecular mass:   117.05785 amu.
 Principal axes and moments of inertia in atomic units:
                           1         2         3
     Eigenvalues --   393.518212434.454322508.97772
           X            0.99999  -0.00000  -0.00398
           Y            0.00000   1.00000  -0.00000
           Z            0.00398   0.00000   0.99999
 This molecule is an asymmetric top.
 Rotational symmetry number  1.
 Rotational temperatures (Kelvin)      0.22010     0.03558     0.03452
 Rotational constants (GHZ):           4.58617     0.74133     0.71931
 Zero-point vibrational energy     329508.9 (Joules/Mol)
                                   78.75452 (Kcal/Mol)
 Warning -- explicit consideration of  10 degrees of freedom as
           vibrations may cause significant error
 Vibrational temperatures:     49.30   124.86   166.24   330.07   367.03
          (Kelvin)            545.81   605.73   751.32   827.28   854.96
                              916.27  1047.25  1051.31  1130.91  1282.88
                             1291.28  1381.78  1409.95  1413.29  1448.34
                             1505.96  1628.63  1657.48  1690.29  1741.10
                             1747.14  1881.77  1911.10  1934.12  1968.20
                             2136.57  2144.94  2440.52  3253.39  3448.05
                             4353.04  4355.70  4398.14  4426.13  4429.36
                             4589.50  4624.64

 Zero-point correction=                           0.125503 (Hartree/Particle)
 Thermal correction to Energy=                    0.133700
 Thermal correction to Enthalpy=                  0.134644
 Thermal correction to Gibbs Free Energy=         0.091280
 Sum of electronic and zero-point Energies=           -363.614936
 Sum of electronic and thermal Energies=              -363.606740
 Sum of electronic and thermal Enthalpies=            -363.605796
 Sum of electronic and thermal Free Energies=         -363.649160

                     E (Thermal)             CV                S
                      KCal/Mol        Cal/Mol-Kelvin    Cal/Mol-Kelvin
 Total                   83.898             29.603             91.267
 Electronic               0.000              0.000              0.000
 Translational            0.889              2.981             40.187
 Rotational               0.889              2.981             29.265
 Vibrational             82.120             23.641             21.815
 Vibration     1          0.594              1.983              5.566
 Vibration     2          0.601              1.958              3.731
 Vibration     3          0.608              1.937              3.174
 Vibration     4          0.652              1.796              1.884
 Vibration     5          0.665              1.754              1.695
 Vibration     6          0.749              1.514              1.042
 Vibration     7          0.784              1.425              0.889
 Vibration     8          0.877              1.201              0.605
 Vibration     9          0.931              1.085              0.495
 Vibration    10          0.952              1.044              0.460

 Optimization completed.
    -- Stationary point found.
 Normal termination of Gaussian 16 at Thu Aug  4 01:25:34 2022.
