 Gaussian 16, Revision A.03,
 Gaussian 16:  ES64L-G16RevA.03 25-Dec-2016

 -----------------------------
 # opt freq b3lyp/6-31g(2df,p)
 -----------------------------

 -------------------
 Title Card Required
 -------------------
 Symbolic Z-matrix:
 Charge =  0 Multiplicity = 1

 SCF Done:  E(RB3LYP) =  -361.576839271     A.U. after   15 cycles
 SCF Done:  E(RB3LYP) =  -361.599547949     A.U. after   13 cycles
 SCF Done:  E(RB3LYP) =  -361.594859986     A.U. after   15 cycles
 SCF Done:  E(RB3LYP) =  -361.599788954     A.U. after   12 cycles
 SCF Done:  E(RB3LYP) =  -361.600114028     A.U. after   12 cycles
 SCF Done:  E(RB3LYP) =  -361.599796178     A.U. after   12 cycles
 SCF Done:  E(RB3LYP) =  -361.600385617     A.U. after   11 cycles
 SCF Done:  E(RB3LYP) =  -361.600556151     A.U. after   12 cycles
 SCF Done:  E(RB3LYP) =  -361.600844179     A.U. after   14 cycles
 SCF Done:  E(RB3LYP) =  -361.600913600     A.U. after   12 cycles
 SCF Done:  E(RB3LYP) =  -361.600928868     A.U. after    9 cycles
 SCF Done:  E(RB3LYP) =  -361.600936759     A.U. after   11 cycles
 SCF Done:  E(RB3LYP) =  -361.600937897     A.U. after    9 cycles
 SCF Done:  E(RB3LYP) =  -361.600937919     A.U. after    7 cycles
 Optimization completed.
    -- Stationary point found.
 Normal termination of Gaussian 16 at Thu Aug  4 11:05:59 2022.

 ----------------------------------------------------------------------
 #N Geom=AllCheck Guess=TCheck SCRF=Check GenChk RB3LYP/6-31G(2df,p) Fr
 eq
 ----------------------------------------------------------------------

 Structure from the checkpoint file:  "NtCCc1ccco1.chk"
 -------------------
 Title Card Required
 -------------------
 Charge =  0 Multiplicity = 1

                         Standard orientation:
 ---------------------------------------------------------------------
 Center     Atomic      Atomic             Coordinates (Angstroms)
 Number     Number       Type             X           Y           Z
 ---------------------------------------------------------------------
      1          7           0       -3.043169   -0.562066   -0.746477
      2          6           0       -2.240397   -0.025580   -0.112814
      3          6           0       -1.222077    0.657615    0.694981
      4          6           0        0.177926    0.359432    0.263016
      5          6           0        1.155949    1.115738   -0.301745
      6          6           0        2.287094    0.250325   -0.466281
      7          6           0        1.903414   -0.961269    0.009951
      8          8           0        0.620940   -0.912184    0.460494
      9          1           0       -1.371585    0.374150    1.744209
     10          1           0       -1.389613    1.736833    0.628420
     11          1           0        1.082923    2.157715   -0.571518
     12          1           0        3.249179    0.502542   -0.882909
     13          1           0        2.392301   -1.916868    0.100534
 ---------------------------------------------------------------------

 SCF Done:  E(RB3LYP) =  -361.600937919     A.U. after    1 cycles

 The electronic state is 1-A.
 Alpha  occ. eigenvalues --  -19.21717 -14.32927 -10.25378 -10.25225 -10.24104
 Alpha  occ. eigenvalues --  -10.22350 -10.19662 -10.19386  -1.12174  -0.90354
 Alpha  occ. eigenvalues --   -0.82200  -0.80579  -0.72480  -0.61380  -0.57370
 Alpha  occ. eigenvalues --   -0.54920  -0.51943  -0.48068  -0.45149  -0.44729
 Alpha  occ. eigenvalues --   -0.42095  -0.40609  -0.38393  -0.35844  -0.32959
 Alpha  occ. eigenvalues --   -0.32676  -0.28997  -0.23780
 Alpha virt. eigenvalues --   -0.00327   0.03256   0.04133   0.06614   0.09094
 Alpha virt. eigenvalues --    0.11178   0.12987   0.15064   0.16027   0.17318
 Alpha virt. eigenvalues --    0.18332   0.19971   0.25182   0.28556   0.30609

 Mulliken charges:
               1
     1  N   -0.301691
     2  C    0.268475
     3  C   -0.444713
     4  C    0.374324
     5  C   -0.269934
     6  C   -0.164465
     7  C   -0.012127
     8  O   -0.169322
     9  H    0.170467
    10  H    0.169276
    11  H    0.118102
    12  H    0.119497
    13  H    0.142110
 Sum of Mulliken charges =  -0.00000

 Dipole moment (field-independent basis, Debye):
    X=              3.1950    Y=              2.0332    Z=              1.7132  Tot=              4.1566
 Quadrupole moment (field-independent basis, Debye-Ang):
   XX=            -51.8998   YY=            -41.7190   ZZ=            -46.0229
   XY=             -5.8410   XZ=             -6.8904   YZ=             -1.0188

  Exact polarizability:  84.627   0.606  62.869  -3.696  -1.526  44.977
 Approx polarizability: 120.455   7.357 107.726  -4.144  -3.433  75.158

                      1                      2                      3
                      A                      A                      A
 Frequencies --     46.9307               103.1208               272.8629
 Red. masses --      4.6316                 7.5182                 4.5889
 Frc consts  --      0.0060                 0.0471                 0.2013
 IR Inten    --      2.9414                 3.3666                 6.5004

                      4                      5                      6
                      A                      A                      A
 Frequencies --    315.4367               378.0537               477.2613
 Red. masses --      2.9082                 3.7240                 9.1423
 Frc consts  --      0.1705                 0.3136                 1.2269
 IR Inten    --      3.5175                 1.1566                 0.9738

                      7                      8                      9
                      A                      A                      A
 Frequencies --    614.4661               642.0185               752.9764
 Red. masses --      3.3917                 4.8105                 1.6191
 Frc consts  --      0.7545                 1.1682                 0.5409
 IR Inten    --      4.9565                 2.4801                22.1893

                     10                     11                     12
                      A                      A                      A
 Frequencies --    766.7035               815.5641               858.0380
 Red. masses --      2.6007                 1.3019                 1.2991
 Frc consts  --      0.9007                 0.5102                 0.5635
 IR Inten    --     22.1541                17.7808                 0.6731

                     13                     14                     15
                      A                      A                      A
 Frequencies --    899.5088               910.7072               929.6189
 Red. masses --      4.2009                 2.7757                 4.1770
 Frc consts  --      2.0027                 1.3564                 2.1268
 IR Inten    --      7.8002                 3.6764                 5.1666

                     16                     17                     18
                      A                      A                      A
 Frequencies --    968.6351              1037.2808              1106.5383
 Red. masses --      2.9265                 1.3578                 2.6898
 Frc consts  --      1.6178                 0.8608                 1.9405
 IR Inten    --      8.3266                22.2851                 6.4007

                     19                     20                     21
                      A                      A                      A
 Frequencies --   1179.2179              1205.1280              1243.4323
 Red. masses --      1.7382                 1.5951                 2.2400
 Frc consts  --      1.4241                 1.3649                 2.0405
 IR Inten    --      8.1533                12.4288                 3.8740

                     22                     23                     24
                      A                      A                      A
 Frequencies --   1283.1869              1335.7201              1420.0711
 Red. masses --      1.5547                 1.5562                 2.7171
 Frc consts  --      1.5083                 1.6358                 3.2283
 IR Inten    --      3.7991                11.1853                 0.4893

                     25                     26                     27
                      A                      A                      A
 Frequencies --   1446.2380              1537.4285              1640.2573
 Red. masses --      1.0857                 4.6485                 6.3823
 Frc consts  --      1.3380                 6.4738                10.1170
 IR Inten    --      7.7624                15.6531                 4.2366

                     28                     29                     30
                      A                      A                      A
 Frequencies --   2367.1336              3038.0719              3096.3338
 Red. masses --     12.6077                 1.0644                 1.0954
 Frc consts  --     41.6229                 5.7883                 6.1878
 IR Inten    --      5.6259                 5.0412                 0.5860

                     31                     32                     33
                      A                      A                      A
 Frequencies --   3254.2000              3265.5721              3290.0279
 Red. masses --      1.0916                 1.0958                 1.1064
 Frc consts  --      6.8111                 6.8851                 7.0560
 IR Inten    --      2.7162                 0.1595                 0.2421

 - Thermochemistry -
 -------------------
 Temperature   298.150 Kelvin.  Pressure   1.00000 Atm.
 Atom     1 has atomic number  7 and mass  14.00307

 Molecular mass:   107.03711 amu.
 Principal axes and moments of inertia in atomic units:
                           1         2         3
     Eigenvalues --   318.207671372.158851503.73452
           X            0.99975  -0.01161  -0.01936
           Y            0.01159   0.99993  -0.00095
           Z            0.01937   0.00072   0.99981
 This molecule is an asymmetric top.
 Rotational symmetry number  1.
 Rotational temperatures (Kelvin)      0.27219     0.06312     0.05760
 Rotational constants (GHZ):           5.67158     1.31526     1.20017
 Zero-point vibrational energy     254192.9 (Joules/Mol)
                                   60.75357 (Kcal/Mol)
 Warning -- explicit consideration of   7 degrees of freedom as
           vibrations may cause significant error
 Vibrational temperatures:     67.52   148.37   392.59   453.84   543.93
          (Kelvin)            686.67   884.08   923.72  1083.37  1103.12
                             1173.41  1234.53  1294.19  1310.30  1337.51
                             1393.65  1492.42  1592.06  1696.63  1733.91
                             1789.02  1846.22  1921.80  2043.17  2080.81
                             2212.02  2359.96  3405.78  4371.11  4454.93
                             4682.07  4698.43  4733.62

 Zero-point correction=                           0.096817 (Hartree/Particle)
 Thermal correction to Energy=                    0.103600
 Thermal correction to Enthalpy=                  0.104545
 Thermal correction to Gibbs Free Energy=         0.064905
 Sum of electronic and zero-point Energies=           -361.504121
 Sum of electronic and thermal Energies=              -361.497337
 Sum of electronic and thermal Enthalpies=            -361.496393
 Sum of electronic and thermal Free Energies=         -361.536033

                     E (Thermal)             CV                S
                      KCal/Mol        Cal/Mol-Kelvin    Cal/Mol-Kelvin
 Total                   65.010             24.304             83.429
 Electronic               0.000              0.000              0.000
 Translational            0.889              2.981             39.921
 Rotational               0.889              2.981             27.976
 Vibrational             63.233             18.342             15.533
 Vibration     1          0.595              1.979              4.943
 Vibration     2          0.605              1.947              3.394
 Vibration     3          0.676              1.723              1.578
 Vibration     4          0.703              1.644              1.334
 Vibration     5          0.748              1.517              1.047
 Vibration     6          0.834              1.300              0.717
 Vibration     7          0.974              1.001              0.425

 Optimization completed.
    -- Stationary point found.
 Normal termination of Gaussian 16 at Thu Aug  4 11:21:28 2022.
