 Gaussian 16, Revision A.03,
 Gaussian 16:  ES64L-G16RevA.03 25-Dec-2016

 -----------------------------
 # opt freq b3lyp/6-31g(2df,p)
 -----------------------------

 -------------------
 Title Card Required
 -------------------
 Symbolic Z-matrix:
 Charge =  0 Multiplicity = 1

 SCF Done:  E(RB3LYP) =  -413.044837251     A.U. after   15 cycles
 SCF Done:  E(RB3LYP) =  -413.068165001     A.U. after   15 cycles
 SCF Done:  E(RB3LYP) =  -413.073446330     A.U. after   14 cycles
 SCF Done:  E(RB3LYP) =  -413.075759381     A.U. after   16 cycles
 SCF Done:  E(RB3LYP) =  -413.080309102     A.U. after   13 cycles
 SCF Done:  E(RB3LYP) =  -413.079206111     A.U. after   15 cycles
 SCF Done:  E(RB3LYP) =  -413.081501820     A.U. after   13 cycles
 SCF Done:  E(RB3LYP) =  -413.083057877     A.U. after   13 cycles
 SCF Done:  E(RB3LYP) =  -413.082578615     A.U. after   13 cycles
 SCF Done:  E(RB3LYP) =  -413.083273176     A.U. after   13 cycles
 SCF Done:  E(RB3LYP) =  -413.084722023     A.U. after   14 cycles
 SCF Done:  E(RB3LYP) =  -413.084801435     A.U. after   12 cycles
 SCF Done:  E(RB3LYP) =  -413.084827124     A.U. after   11 cycles
 SCF Done:  E(RB3LYP) =  -413.084838795     A.U. after   12 cycles
 SCF Done:  E(RB3LYP) =  -413.084843991     A.U. after   10 cycles
 SCF Done:  E(RB3LYP) =  -413.084847643     A.U. after   11 cycles
 SCF Done:  E(RB3LYP) =  -413.084849738     A.U. after   11 cycles
 SCF Done:  E(RB3LYP) =  -413.084850228     A.U. after    8 cycles
 SCF Done:  E(RB3LYP) =  -413.084850261     A.U. after    7 cycles
 Optimization completed.
    -- Stationary point found.
 Normal termination of Gaussian 16 at Sun Jul  3 23:01:26 2022.

 ----------------------------------------------------------------------
 #N Geom=AllCheck Guess=TCheck SCRF=Check GenChk RB3LYP/6-31G(2df,p) Fr
 eq
 ----------------------------------------------------------------------

 Structure from the checkpoint file:  "NtCC1NCC1NdCdN.chk"
 -------------------
 Title Card Required
 -------------------
 Charge =  0 Multiplicity = 1

                         Standard orientation:
 ---------------------------------------------------------------------
 Center     Atomic      Atomic             Coordinates (Angstroms)
 Number     Number       Type             X           Y           Z
 ---------------------------------------------------------------------
      1          7           0        2.846437    1.705184    0.376507
      2          6           0        2.043256    1.001116   -0.067390
      3          6           0        1.051869    0.073808   -0.612737
      4          7           0        1.402515   -1.361472   -0.511103
      5          6           0        0.481783   -1.559418    0.632147
      6          6           0       -0.167035   -0.175672    0.348905
      7          7           0       -1.413200   -0.247281   -0.364508
      8          6           0       -2.479317    0.268047   -0.079896
      9          7           0       -3.550338    0.848735    0.033013
     10          1           0        0.771640    0.388869   -1.622564
     11          1           0        2.381480   -1.556191   -0.336687
     12          1           0        0.961735   -1.594395    1.617662
     13          1           0       -0.183826   -2.419056    0.518618
     14          1           0       -0.212131    0.503136    1.202733
     15          1           0       -4.300136    0.414188    0.556698
 ---------------------------------------------------------------------

 SCF Done:  E(RB3LYP) =  -413.084850261     A.U. after    1 cycles

 The electronic state is 1-A.
 Alpha  occ. eigenvalues --  -14.35754 -14.34979 -14.34329 -14.33753 -10.29137
 Alpha  occ. eigenvalues --  -10.26752 -10.26393 -10.23292 -10.22592  -0.98670
 Alpha  occ. eigenvalues --   -0.95757  -0.91230  -0.90408  -0.75675  -0.73394
 Alpha  occ. eigenvalues --   -0.63135  -0.57807  -0.57034  -0.54628  -0.48314
 Alpha  occ. eigenvalues --   -0.46195  -0.44411  -0.42626  -0.41025  -0.38409
 Alpha  occ. eigenvalues --   -0.36940  -0.36555  -0.34080  -0.33022  -0.28277
 Alpha  occ. eigenvalues --   -0.27857  -0.25415
 Alpha virt. eigenvalues --    0.00174   0.01078   0.01746   0.03666   0.06575
 Alpha virt. eigenvalues --    0.08673   0.10592   0.12198   0.13145   0.14850
 Alpha virt. eigenvalues --    0.15932   0.17692   0.18841   0.21624   0.23761

 Mulliken charges:
               1
     1  N   -0.320721
     2  C    0.265409
     3  C   -0.115928
     4  N   -0.309934
     5  C   -0.168898
     6  C   -0.018393
     7  N   -0.261270
     8  C    0.455564
     9  N   -0.535216
    10  H    0.138156
    11  H    0.239009
    12  H    0.114725
    13  H    0.122748
    14  H    0.117296
    15  H    0.277452
 Sum of Mulliken charges =  -0.00000

 Dipole moment (field-independent basis, Debye):
    X=             -2.0945    Y=             -2.7200    Z=              1.4453  Tot=              3.7249
 Quadrupole moment (field-independent basis, Debye-Ang):
   XX=            -53.7117   YY=            -57.1527   ZZ=            -50.7273
   XY=             -4.7196   XZ=             -6.3025   YZ=             -3.9825

  Exact polarizability: 107.891  -2.895  68.375  -0.497   0.541  53.071
 Approx polarizability: 156.561  -8.861 108.627  -0.723   8.288  83.881

                      1                      2                      3
                      A                      A                      A
 Frequencies --     29.1559                64.9422               126.9792
 Red. masses --      5.6736                 4.3963                 4.0021
 Frc consts  --      0.0028                 0.0109                 0.0380
 IR Inten    --      1.5361                 3.7579                 4.4013

                      4                      5                      6
                      A                      A                      A
 Frequencies --    182.7730               213.8744               335.0746
 Red. masses --      6.3114                 5.3077                 3.7935
 Frc consts  --      0.1242                 0.1430                 0.2509
 IR Inten    --     17.2390                 6.4170                12.0230

                      7                      8                      9
                      A                      A                      A
 Frequencies --    367.1848               474.3317               505.1640
 Red. masses --      3.0375                 2.2421                 5.0758
 Frc consts  --      0.2413                 0.2972                 0.7632
 IR Inten    --      9.0039                59.1849                13.9230

                     10                     11                     12
                      A                      A                      A
 Frequencies --    547.3632               591.9225               638.6140
 Red. masses --      4.7044                 1.9603                 6.1571
 Frc consts  --      0.8304                 0.4047                 1.4795
 IR Inten    --      8.8511                63.6135                 9.0193

                     13                     14                     15
                      A                      A                      A
 Frequencies --    673.8319               809.6481               855.0185
 Red. masses --      2.3393                 2.5192                 2.6584
 Frc consts  --      0.6258                 0.9730                 1.1450
 IR Inten    --     91.0916                 2.3666                11.0940

                     16                     17                     18
                      A                      A                      A
 Frequencies --    917.0700               968.3662               984.8854
 Red. masses --      1.4729                 3.4516                 3.2520
 Frc consts  --      0.7298                 1.9070                 1.8585
 IR Inten    --    327.6460                14.0377                11.1091

                     19                     20                     21
                      A                      A                      A
 Frequencies --    988.4115              1036.9764              1075.8764
 Red. masses --      2.3351                 3.7623                 3.3945
 Frc consts  --      1.3441                 2.3837                 2.3150
 IR Inten    --     14.8078                23.9745                16.8890

                     22                     23                     24
                      A                      A                      A
 Frequencies --   1108.1860              1177.4031              1214.5265
 Red. masses --      2.3164                 1.2278                 1.2764
 Frc consts  --      1.6760                 1.0029                 1.1093
 IR Inten    --      1.9454                 6.3561                 2.2952

                     25                     26                     27
                      A                      A                      A
 Frequencies --   1235.5511              1308.0571              1320.6572
 Red. masses --      1.3922                 1.1978                 1.3654
 Frc consts  --      1.2522                 1.2075                 1.4031
 IR Inten    --      0.1421                 2.6628                12.1713

                     28                     29                     30
                      A                      A                      A
 Frequencies --   1362.6057              1395.0427              1431.8366
 Red. masses --      1.5131                 1.3477                 4.7181
 Frc consts  --      1.6552                 1.5453                 5.6990
 IR Inten    --     29.6002                19.2845                72.1736

                     31                     32                     33
                      A                      A                      A
 Frequencies --   1509.1005              2258.1860              2345.8798
 Red. masses --      1.0966                10.3666                12.6388
 Frc consts  --      1.4715                31.1462                40.9796
 IR Inten    --      5.6845              1025.8665                 6.6718

                     34                     35                     36
                      A                      A                      A
 Frequencies --   3026.5459              3064.2038              3083.6617
 Red. masses --      1.0621                 1.0846                 1.0894
 Frc consts  --      5.7323                 6.0002                 6.1032
 IR Inten    --     44.4103                 8.6407                 9.8245

                     37                     38                     39
                      A                      A                      A
 Frequencies --   3095.5784              3552.3250              3593.2883
 Red. masses --      1.1028                 1.0764                 1.0794
 Frc consts  --      6.2263                 8.0029                 8.2116
 IR Inten    --     33.0519                 3.9951                82.0521

 - Thermochemistry -
 -------------------
 Temperature   298.150 Kelvin.  Pressure   1.00000 Atm.
 Atom     1 has atomic number  7 and mass  14.00307

 Molecular mass:   122.05925 amu.
 Principal axes and moments of inertia in atomic units:
                           1         2         3
     Eigenvalues --   561.214251919.575412297.13493
           X            0.99984  -0.01684  -0.00626
           Y            0.01665   0.99943  -0.02942
           Z            0.00675   0.02931   0.99955
 This molecule is an asymmetric top.
 Rotational symmetry number  1.
 Warning -- assumption of classical behavior for rotation
           may cause significant error
 Rotational temperatures (Kelvin)      0.15433     0.04512     0.03771
 Rotational constants (GHZ):           3.21578     0.94018     0.78565
 Zero-point vibrational energy     295896.9 (Joules/Mol)
                                   70.72106 (Kcal/Mol)
 Warning -- explicit consideration of  11 degrees of freedom as
           vibrations may cause significant error
 Vibrational temperatures:     41.95    93.44   182.69   262.97   307.72
          (Kelvin)            482.10   528.30   682.46   726.82   787.53
                              851.64   918.82   969.49  1164.90  1230.18
                             1319.46  1393.26  1417.03  1422.10  1491.98
                             1547.95  1594.43  1694.02  1747.43  1777.68
                             1882.00  1900.13  1960.49  2007.16  2060.09
                             2171.26  3249.03  3375.20  4354.52  4408.71
                             4436.70  4453.85  5111.00  5169.94

 Zero-point correction=                           0.112701 (Hartree/Particle)
 Thermal correction to Energy=                    0.121324
 Thermal correction to Enthalpy=                  0.122268
 Thermal correction to Gibbs Free Energy=         0.077709
 Sum of electronic and zero-point Energies=           -412.972149
 Sum of electronic and thermal Energies=              -412.963527
 Sum of electronic and thermal Enthalpies=            -412.962582
 Sum of electronic and thermal Free Energies=         -413.007141

                     E (Thermal)             CV                S
                      KCal/Mol        Cal/Mol-Kelvin    Cal/Mol-Kelvin
 Total                   76.132             30.313             93.781
 Electronic               0.000              0.000              0.000
 Translational            0.889              2.981             40.312
 Rotational               0.889              2.981             29.294
 Vibrational             74.354             24.351             24.175
 Vibration     1          0.593              1.984              5.886
 Vibration     2          0.597              1.971              4.301
 Vibration     3          0.611              1.926              2.991
 Vibration     4          0.630              1.863              2.300
 Vibration     5          0.644              1.820              2.010
 Vibration     6          0.716              1.605              1.236
 Vibration     7          0.740              1.540              1.092
 Vibration     8          0.831              1.307              0.726
 Vibration     9          0.860              1.239              0.645
 Vibration    10          0.903              1.145              0.550
 Vibration    11          0.949              1.049              0.464

 Optimization completed.
    -- Stationary point found.
 Normal termination of Gaussian 16 at Sun Jul  3 23:20:24 2022.
