 Gaussian 16, Revision A.03,
 Gaussian 16:  ES64L-G16RevA.03 25-Dec-2016

 -----------------------------
 # opt freq b3lyp/6-31g(2df,p)
 -----------------------------

 -------------------
 Title Card Required
 -------------------
 Symbolic Z-matrix:
 Charge =  0 Multiplicity = 1

 SCF Done:  E(RB3LYP) =  -398.221864000     A.U. after   15 cycles
 SCF Done:  E(RB3LYP) =  -398.248571409     A.U. after   13 cycles
 SCF Done:  E(RB3LYP) =  -398.250238742     A.U. after   13 cycles
 SCF Done:  E(RB3LYP) =  -398.242273091     A.U. after   15 cycles
 SCF Done:  E(RB3LYP) =  -398.251265178     A.U. after   13 cycles
 SCF Done:  E(RB3LYP) =  -398.249121490     A.U. after   15 cycles
 SCF Done:  E(RB3LYP) =  -398.251388247     A.U. after   12 cycles
 SCF Done:  E(RB3LYP) =  -398.251412167     A.U. after   11 cycles
 SCF Done:  E(RB3LYP) =  -398.251420008     A.U. after   11 cycles
 SCF Done:  E(RB3LYP) =  -398.251425254     A.U. after    9 cycles
 SCF Done:  E(RB3LYP) =  -398.251427232     A.U. after    9 cycles
 SCF Done:  E(RB3LYP) =  -398.251427582     A.U. after    8 cycles
 Optimization completed.
    -- Stationary point found.
 Normal termination of Gaussian 16 at Sun Jul  3 09:44:59 2022.

 ----------------------------------------------------------------------
 #N Geom=AllCheck Guess=TCheck SCRF=Check GenChk RB3LYP/6-31G(2df,p) Fr
 eq
 ----------------------------------------------------------------------

 Structure from the checkpoint file:  "NtCC1CCCNdNC1.chk"
 -------------------
 Title Card Required
 -------------------
 Charge =  0 Multiplicity = 1

                         Standard orientation:
 ---------------------------------------------------------------------
 Center     Atomic      Atomic             Coordinates (Angstroms)
 Number     Number       Type             X           Y           Z
 ---------------------------------------------------------------------
      1          7           0       -3.442294   -0.114899   -0.162109
      2          6           0       -2.289565   -0.058878   -0.228341
      3          6           0       -0.828411    0.014698   -0.284185
      4          6           0       -0.334381    1.408143    0.164017
      5          6           0        1.164319    1.384244    0.481934
      6          6           0        1.999043    0.550390   -0.495626
      7          7           0        2.059831   -0.930059   -0.300652
      8          7           0        1.148993   -1.627952    0.149299
      9          6           0       -0.209333   -1.141686    0.538775
     10          1           0       -0.545267   -0.148298   -1.331493
     11          1           0       -0.900381    1.730523    1.043401
     12          1           0       -0.548496    2.131294   -0.629575
     13          1           0        1.334402    1.002515    1.494931
     14          1           0        1.551443    2.408679    0.481153
     15          1           0        3.048425    0.852225   -0.433651
     16          1           0        1.704388    0.720527   -1.539972
     17          1           0       -0.182561   -0.898605    1.607475
     18          1           0       -0.837689   -2.029967    0.442524
 ---------------------------------------------------------------------

 SCF Done:  E(RB3LYP) =  -398.251427582     A.U. after    1 cycles

 The electronic state is 1-A.
 Alpha  occ. eigenvalues --  -14.38887 -14.38768 -14.33310 -10.25122 -10.23747
 Alpha  occ. eigenvalues --  -10.23038 -10.22486 -10.21682 -10.21256  -1.03476
 Alpha  occ. eigenvalues --   -0.90940  -0.84906  -0.81807  -0.72682  -0.72161
 Alpha  occ. eigenvalues --   -0.61658  -0.57474  -0.54171  -0.50557  -0.49992
 Alpha  occ. eigenvalues --   -0.46626  -0.45621  -0.42609  -0.42374  -0.40336
 Alpha  occ. eigenvalues --   -0.39628  -0.36728  -0.36030  -0.34495  -0.33316
 Alpha  occ. eigenvalues --   -0.32451  -0.32221  -0.22142
 Alpha virt. eigenvalues --   -0.04916   0.02331   0.03428   0.06276   0.08014
 Alpha virt. eigenvalues --    0.10308   0.11628   0.12534   0.12736   0.14293
 Alpha virt. eigenvalues --    0.15841   0.17143   0.17883   0.19503   0.20434

 Mulliken charges:
               1
     1  N   -0.314620
     2  C    0.260048
     3  C   -0.153614
     4  C   -0.207957
     5  C   -0.230888
     6  C   -0.158061
     7  N   -0.095928
     8  N   -0.104942
     9  C   -0.174381
    10  H    0.138683
    11  H    0.127658
    12  H    0.123005
    13  H    0.121159
    14  H    0.117410
    15  H    0.130844
    16  H    0.129544
    17  H    0.143182
    18  H    0.148860
 Sum of Mulliken charges =  -0.00000

 Dipole moment (field-independent basis, Debye):
    X=              2.4485    Y=              2.8141    Z=              0.2160  Tot=              3.7364
 Quadrupole moment (field-independent basis, Debye-Ang):
   XX=            -73.0648   YY=            -55.0596   ZZ=            -50.2190
   XY=              5.9791   XZ=             -0.2357   YZ=             -0.7074

  Exact polarizability: 100.283   5.605  73.830  -3.790  -2.317  60.069
 Approx polarizability: 150.571   9.886 109.993  -9.725  -6.129  97.288

                      1                      2                      3
                      A                      A                      A
 Frequencies --     94.4953               108.7011               154.8400
 Red. masses --      2.8155                 3.5889                 6.3773
 Frc consts  --      0.0148                 0.0250                 0.0901
 IR Inten    --      0.8538                16.5783                 7.5381

                      4                      5                      6
                      A                      A                      A
 Frequencies --    244.2547               272.9700               332.1619
 Red. masses --      1.9119                 5.7456                 2.6781
 Frc consts  --      0.0672                 0.2522                 0.1741
 IR Inten    --      0.2829                 1.2371                 1.5979

                      7                      8                      9
                      A                      A                      A
 Frequencies --    360.1838               436.7252               520.8170
 Red. masses --      3.5422                 2.4622                 5.2831
 Frc consts  --      0.2708                 0.2767                 0.8443
 IR Inten    --      1.2960                 0.2693                 0.9125

                     10                     11                     12
                      A                      A                      A
 Frequencies --    548.5400               554.8056               682.5420
 Red. masses --      6.6503                 3.5129                 2.4877
 Frc consts  --      1.1790                 0.6371                 0.6828
 IR Inten    --      0.1018                 1.1778                 0.3828

                     13                     14                     15
                      A                      A                      A
 Frequencies --    760.5035               803.7823               841.9075
 Red. masses --      3.2301                 1.7073                 4.6591
 Frc consts  --      1.1007                 0.6499                 1.9457
 IR Inten    --      5.1594                 2.6907                10.1911

                     16                     17                     18
                      A                      A                      A
 Frequencies --    883.5174               946.6655               955.2905
 Red. masses --      2.9561                 3.1861                 2.0020
 Frc consts  --      1.3596                 1.6823                 1.0764
 IR Inten    --      0.5086                15.7464                 2.9495

                     19                     20                     21
                      A                      A                      A
 Frequencies --    974.4655              1025.7474              1051.7533
 Red. masses --      2.2876                 2.2199                 2.0866
 Frc consts  --      1.2798                 1.3762                 1.3599
 IR Inten    --      2.5369                 1.7260                 1.1203

                     22                     23                     24
                      A                      A                      A
 Frequencies --   1075.8992              1121.4050              1184.8015
 Red. masses --      2.4292                 2.9204                 1.2961
 Frc consts  --      1.6568                 2.1638                 1.0720
 IR Inten    --      0.9334                 6.2780                 0.8726

                     25                     26                     27
                      A                      A                      A
 Frequencies --   1217.2657              1252.4686              1282.6041
 Red. masses --      1.3802                 1.2436                 1.2038
 Frc consts  --      1.2050                 1.1494                 1.1668
 IR Inten    --      5.5253                 1.4957                 1.4784

                     28                     29                     30
                      A                      A                      A
 Frequencies --   1316.8945              1332.6346              1348.1490
 Red. masses --      1.1896                 1.2458                 1.2751
 Frc consts  --      1.2154                 1.3035                 1.3654
 IR Inten    --      0.7042                 1.0300                 0.6955

                     31                     32                     33
                      A                      A                      A
 Frequencies --   1361.9566              1382.0404              1396.9690
 Red. masses --      1.3030                 1.3631                 1.4021
 Frc consts  --      1.4240                 1.5340                 1.6121
 IR Inten    --      0.7498                 1.2441                 0.6943

                     34                     35                     36
                      A                      A                      A
 Frequencies --   1465.3031              1472.9708              1487.9333
 Red. masses --      1.0987                 1.0837                 1.0730
 Frc consts  --      1.3899                 1.3852                 1.3996
 IR Inten    --      2.8460                12.1403                 7.1017

                     37                     38                     39
                      A                      A                      A
 Frequencies --   1502.4633              1696.3002              2355.1870
 Red. masses --      1.0921                 7.7103                12.6534
 Frc consts  --      1.4525                13.0715                41.3532
 IR Inten    --      5.2301                24.7497                14.2911

                     40                     41                     42
                      A                      A                      A
 Frequencies --   3026.4493              3036.0256              3041.6831
 Red. masses --      1.0719                 1.0752                 1.0630
 Frc consts  --      5.7846                 5.8390                 5.7945
 IR Inten    --      5.4694                 7.1248                10.4526

                     43                     44                     45
                      A                      A                      A
 Frequencies --   3049.5138              3053.5808              3076.1021
 Red. masses --      1.0630                 1.0652                 1.1005
 Frc consts  --      5.8241                 5.8521                 6.1356
 IR Inten    --     13.6107                10.9523                13.2245

                     46                     47                     48
                      A                      A                      A
 Frequencies --   3085.2802              3096.4729              3104.8988
 Red. masses --      1.0939                 1.1040                 1.0997
 Frc consts  --      6.1352                 6.2367                 6.2465
 IR Inten    --     24.3407                25.3463                 7.1956

 - Thermochemistry -
 -------------------
 Temperature   298.150 Kelvin.  Pressure   1.00000 Atm.
 Atom     1 has atomic number  7 and mass  14.00307

 Molecular mass:   123.07965 amu.
 Principal axes and moments of inertia in atomic units:
                           1         2         3
     Eigenvalues --   571.032681514.275721912.38355
           X            0.99950   0.03133  -0.00458
           Y           -0.03135   0.99950  -0.00434
           Z            0.00444   0.00448   0.99998
 This molecule is an asymmetric top.
 Rotational symmetry number  1.
 Warning -- assumption of classical behavior for rotation
           may cause significant error
 Rotational temperatures (Kelvin)      0.15168     0.05720     0.04529
 Rotational constants (GHZ):           3.16049     1.19182     0.94371
 Zero-point vibrational energy     391046.8 (Joules/Mol)
                                   93.46243 (Kcal/Mol)
 Warning -- explicit consideration of  11 degrees of freedom as
           vibrations may cause significant error
 Vibrational temperatures:    135.96   156.40   222.78   351.43   392.74
          (Kelvin)            477.91   518.22   628.35   749.34   789.23
                              798.24   982.03  1094.19  1156.46  1211.32
                             1271.18  1362.04  1374.45  1402.04  1475.82
                             1513.24  1547.98  1613.45  1704.67  1751.37
                             1802.02  1845.38  1894.72  1917.36  1939.69
                             1959.55  1988.45  2009.93  2108.24  2119.28
                             2140.80  2161.71  2440.60  3388.59  4354.39
                             4368.16  4376.30  4387.57  4393.42  4425.82
                             4439.03  4455.13  4467.26

 Zero-point correction=                           0.148942 (Hartree/Particle)
 Thermal correction to Energy=                    0.157208
 Thermal correction to Enthalpy=                  0.158152
 Thermal correction to Gibbs Free Energy=         0.115868
 Sum of electronic and zero-point Energies=           -398.102486
 Sum of electronic and thermal Energies=              -398.094220
 Sum of electronic and thermal Enthalpies=            -398.093276
 Sum of electronic and thermal Free Energies=         -398.135559

                     E (Thermal)             CV                S
                      KCal/Mol        Cal/Mol-Kelvin    Cal/Mol-Kelvin
 Total                   98.649             30.964             88.993
 Electronic               0.000              0.000              0.000
 Translational            0.889              2.981             40.337
 Rotational               0.889              2.981             28.893
 Vibrational             96.872             25.002             19.763
 Vibration     1          0.603              1.953              3.565
 Vibration     2          0.606              1.942              3.292
 Vibration     3          0.620              1.897              2.612
 Vibration     4          0.660              1.772              1.772
 Vibration     5          0.676              1.723              1.577
 Vibration     6          0.714              1.611              1.250
 Vibration     7          0.735              1.554              1.121
 Vibration     8          0.797              1.390              0.837
 Vibration     9          0.876              1.204              0.608
 Vibration    10          0.904              1.143              0.547
 Vibration    11          0.910              1.129              0.534

 Optimization completed.
    -- Stationary point found.
 Normal termination of Gaussian 16 at Sun Jul  3 10:15:19 2022.
