 Gaussian 16, Revision A.03,
 Gaussian 16:  ES64L-G16RevA.03 25-Dec-2016

 -----------------------------
 # opt freq b3lyp/6-31g(2df,p)
 -----------------------------

 -------------------
 Title Card Required
 -------------------
 Symbolic Z-matrix:
 Charge =  0 Multiplicity = 1

 SCF Done:  E(RB3LYP) =  -414.267956911     A.U. after   15 cycles
 SCF Done:  E(RB3LYP) =  -414.294499087     A.U. after   13 cycles
 SCF Done:  E(RB3LYP) =  -414.297978402     A.U. after   13 cycles
 SCF Done:  E(RB3LYP) =  -414.290045521     A.U. after   15 cycles
 SCF Done:  E(RB3LYP) =  -414.300279789     A.U. after   13 cycles
 SCF Done:  E(RB3LYP) =  -414.300616897     A.U. after   12 cycles
 SCF Done:  E(RB3LYP) =  -414.296886264     A.U. after   15 cycles
 SCF Done:  E(RB3LYP) =  -414.300997581     A.U. after   12 cycles
 SCF Done:  E(RB3LYP) =  -414.301065895     A.U. after   11 cycles
 SCF Done:  E(RB3LYP) =  -414.301379798     A.U. after   12 cycles
 SCF Done:  E(RB3LYP) =  -414.308222046     A.U. after   12 cycles
 SCF Done:  E(RB3LYP) =  -414.309410650     A.U. after   12 cycles
 SCF Done:  E(RB3LYP) =  -414.310306925     A.U. after   12 cycles
 SCF Done:  E(RB3LYP) =  -414.310637908     A.U. after   11 cycles
 SCF Done:  E(RB3LYP) =  -414.310758501     A.U. after   11 cycles
 SCF Done:  E(RB3LYP) =  -414.310779390     A.U. after   10 cycles
 SCF Done:  E(RB3LYP) =  -414.310787372     A.U. after    9 cycles
 SCF Done:  E(RB3LYP) =  -414.310790923     A.U. after    9 cycles
 SCF Done:  E(RB3LYP) =  -414.310791068     A.U. after    7 cycles
 Optimization completed.
    -- Stationary point found.
 Normal termination of Gaussian 16 at Sun Jul  3 21:11:42 2022.

 ----------------------------------------------------------------------
 #N Geom=AllCheck Guess=TCheck SCRF=Check GenChk RB3LYP/6-31G(2df,p) Fr
 eq
 ----------------------------------------------------------------------

 Structure from the checkpoint file:  "NtCC1CCNNC1dN.chk"
 -------------------
 Title Card Required
 -------------------
 Charge =  0 Multiplicity = 1

                         Standard orientation:
 ---------------------------------------------------------------------
 Center     Atomic      Atomic             Coordinates (Angstroms)
 Number     Number       Type             X           Y           Z
 ---------------------------------------------------------------------
      1          7           0       -2.620287   -0.588707   -0.971450
      2          6           0       -1.787193   -0.279502   -0.232343
      3          6           0       -0.729853    0.077172    0.720886
      4          6           0        0.096167   -1.166738    1.116201
      5          6           0        0.948032   -1.597473   -0.070914
      6          7           0        1.888534   -0.520134   -0.401000
      7          7           0        1.156034    0.705930   -0.737330
      8          6           0        0.171065    1.162712    0.128558
      9          7           0       -0.101337    2.378723    0.397651
     10          1           0       -1.208290    0.525593    1.594542
     11          1           0       -0.566633   -1.975020    1.433806
     12          1           0        0.744153   -0.901141    1.957536
     13          1           0        0.291276   -1.861089   -0.914839
     14          1           0        1.553873   -2.472927    0.179067
     15          1           0        2.328588   -0.774879   -1.282858
     16          1           0        1.843864    1.427668   -0.920666
     17          1           0        0.563253    3.024076   -0.036016
 ---------------------------------------------------------------------

 SCF Done:  E(RB3LYP) =  -414.310791068     A.U. after    1 cycles

 The electronic state is 1-A.
 Alpha  occ. eigenvalues --  -14.38501 -14.37492 -14.32634 -14.30826 -10.27179
 Alpha  occ. eigenvalues --  -10.24401 -10.23228 -10.21936 -10.21461  -1.01060
 Alpha  occ. eigenvalues --   -0.91512  -0.89975  -0.83961  -0.80686  -0.71588
 Alpha  occ. eigenvalues --   -0.64556  -0.59822  -0.54782  -0.51780  -0.50542
 Alpha  occ. eigenvalues --   -0.48315  -0.45798  -0.44966  -0.41966  -0.38660
 Alpha  occ. eigenvalues --   -0.37772  -0.36863  -0.35294  -0.32650  -0.32253
 Alpha  occ. eigenvalues --   -0.30704  -0.27723  -0.21980
 Alpha virt. eigenvalues --   -0.00423   0.03508   0.05161   0.05828   0.08631
 Alpha virt. eigenvalues --    0.10066   0.12045   0.13018   0.13295   0.14688
 Alpha virt. eigenvalues --    0.16227   0.17167   0.18055   0.20091   0.20781

 Mulliken charges:
               1
     1  N   -0.332017
     2  C    0.285817
     3  C   -0.179559
     4  C   -0.216988
     5  C   -0.152036
     6  N   -0.295719
     7  N   -0.325003
     8  C    0.376436
     9  N   -0.505003
    10  H    0.151738
    11  H    0.126597
    12  H    0.125446
    13  H    0.125309
    14  H    0.119969
    15  H    0.244403
    16  H    0.243523
    17  H    0.207085
 Sum of Mulliken charges =  -0.00000

 Dipole moment (field-independent basis, Debye):
    X=              4.7179    Y=             -1.2224    Z=              0.6905  Tot=              4.9223
 Quadrupole moment (field-independent basis, Debye-Ang):
   XX=            -59.6394   YY=            -51.3973   ZZ=            -52.2896
   XY=              1.2295   XZ=             -9.0082   YZ=             -4.1394

  Exact polarizability:  77.461  -0.643  85.810  -0.806   3.317  62.170
 Approx polarizability: 116.067  -2.518 127.943   3.101  12.665 102.300

                      1                      2                      3
                      A                      A                      A
 Frequencies --     81.8171               140.6682               153.4631
 Red. masses --      5.3353                 5.1874                 4.7705
 Frc consts  --      0.0210                 0.0605                 0.0662
 IR Inten    --      5.3595                 0.9410                 2.4809

                      4                      5                      6
                      A                      A                      A
 Frequencies --    206.4551               339.3599               386.3106
 Red. masses --      3.4758                 2.1205                 6.6012
 Frc consts  --      0.0873                 0.1439                 0.5804
 IR Inten    --      3.3786                 1.2028                 9.5585

                      7                      8                      9
                      A                      A                      A
 Frequencies --    420.1093               457.0119               494.0917
 Red. masses --      4.3261                 3.8823                 3.5905
 Frc consts  --      0.4498                 0.4777                 0.5164
 IR Inten    --      9.7182                16.6422                10.6810

                     10                     11                     12
                      A                      A                      A
 Frequencies --    578.2054               631.0314               701.1189
 Red. masses --      3.2097                 3.1294                 2.9894
 Frc consts  --      0.6322                 0.7342                 0.8658
 IR Inten    --      9.1928                10.2622                20.4113

                     13                     14                     15
                      A                      A                      A
 Frequencies --    713.2364               823.7071               853.6540
 Red. masses --      2.4546                 2.2007                 2.3971
 Frc consts  --      0.7357                 0.8797                 1.0292
 IR Inten    --     63.4666                 0.9352                54.6410

                     16                     17                     18
                      A                      A                      A
 Frequencies --    874.8799               898.0707               942.5358
 Red. masses --      1.6442                 2.4932                 2.2905
 Frc consts  --      0.7415                 1.1848                 1.1989
 IR Inten    --     76.6885                 5.6311                15.7904

                     19                     20                     21
                      A                      A                      A
 Frequencies --    986.8063              1042.9429              1061.0168
 Red. masses --      1.5493                 2.6220                 1.7316
 Frc consts  --      0.8889                 1.6804                 1.1485
 IR Inten    --     12.4512                16.2128                 6.0188

                     22                     23                     24
                      A                      A                      A
 Frequencies --   1120.0039              1135.7998              1152.7686
 Red. masses --      1.8403                 1.5766                 2.7406
 Frc consts  --      1.3602                 1.1983                 2.1457
 IR Inten    --     16.4369                31.9844                22.2063

                     25                     26                     27
                      A                      A                      A
 Frequencies --   1215.9318              1233.7789              1295.8078
 Red. masses --      1.5100                 1.1986                 1.3169
 Frc consts  --      1.3154                 1.0750                 1.3028
 IR Inten    --     20.8634                 1.2908                 6.4055

                     28                     29                     30
                      A                      A                      A
 Frequencies --   1323.0980              1359.5798              1371.9977
 Red. masses --      1.4200                 1.4503                 1.4003
 Frc consts  --      1.4646                 1.5795                 1.5530
 IR Inten    --      1.4098                15.6369                19.7762

                     31                     32                     33
                      A                      A                      A
 Frequencies --   1412.4556              1465.0149              1480.1913
 Red. masses --      1.8748                 1.3409                 1.0940
 Frc consts  --      2.2037                 1.6956                 1.4122
 IR Inten    --     85.8965                15.6124                 6.7764

                     34                     35                     36
                      A                      A                      A
 Frequencies --   1493.9783              1521.0393              1715.8601
 Red. masses --      1.0884                 1.3392                 6.8314
 Frc consts  --      1.4313                 1.8254                11.8501
 IR Inten    --      7.6788                23.7009               201.8284

                     37                     38                     39
                      A                      A                      A
 Frequencies --   2356.1980              2986.1687              3057.6947
 Red. masses --     12.6563                 1.0697                 1.0613
 Frc consts  --     41.3981                 5.6203                 5.8464
 IR Inten    --      7.9266                35.5112                13.9777

                     40                     41                     42
                      A                      A                      A
 Frequencies --   3090.5248              3095.8238              3114.2139
 Red. masses --      1.0921                 1.0837                 1.1045
 Frc consts  --      6.1458                 6.1193                 6.3114
 IR Inten    --     21.0869                 0.8661                12.3810

                     43                     44                     45
                      A                      A                      A
 Frequencies --   3441.5714              3476.6431              3546.7644
 Red. masses --      1.0744                 1.0754                 1.0756
 Frc consts  --      7.4976                 7.6587                 7.9716
 IR Inten    --      4.9625                 1.8575                10.7538

 - Thermochemistry -
 -------------------
 Temperature   298.150 Kelvin.  Pressure   1.00000 Atm.
 Atom     1 has atomic number  7 and mass  14.00307

 Molecular mass:   124.07490 amu.
 Principal axes and moments of inertia in atomic units:
                           1         2         3
     Eigenvalues --   873.030741049.998751501.77834
           X            0.99838  -0.04631  -0.03294
           Y            0.04558   0.99870  -0.02278
           Z            0.03395   0.02124   0.99920
 This molecule is an asymmetric top.
 Rotational symmetry number  1.
 Warning -- assumption of classical behavior for rotation
           may cause significant error
 Rotational temperatures (Kelvin)      0.09921     0.08249     0.05767
 Rotational constants (GHZ):           2.06721     1.71880     1.20174
 Zero-point vibrational energy     366352.8 (Joules/Mol)
                                   87.56041 (Kcal/Mol)
 Warning -- explicit consideration of  10 degrees of freedom as
           vibrations may cause significant error
 Vibrational temperatures:    117.72   202.39   220.80   297.04   488.26
          (Kelvin)            555.81   604.44   657.54   710.89   831.91
                              907.91  1008.75  1026.19  1185.13  1228.22
                             1258.76  1292.12  1356.10  1419.79  1500.56
                             1526.57  1611.44  1634.16  1658.58  1749.45
                             1775.13  1864.38  1903.64  1956.13  1974.00
                             2032.21  2107.83  2129.67  2149.50  2188.44
                             2468.74  3390.04  4296.43  4399.34  4446.58
                             4454.20  4480.66  4951.65  5002.11  5103.00

 Zero-point correction=                           0.139536 (Hartree/Particle)
 Thermal correction to Energy=                    0.147554
 Thermal correction to Enthalpy=                  0.148498
 Thermal correction to Gibbs Free Energy=         0.106738
 Sum of electronic and zero-point Energies=           -414.171255
 Sum of electronic and thermal Energies=              -414.163237
 Sum of electronic and thermal Enthalpies=            -414.162293
 Sum of electronic and thermal Free Energies=         -414.204053

                     E (Thermal)             CV                S
                      KCal/Mol        Cal/Mol-Kelvin    Cal/Mol-Kelvin
 Total                   92.591             30.180             87.891
 Electronic               0.000              0.000              0.000
 Translational            0.889              2.981             40.361
 Rotational               0.889              2.981             28.711
 Vibrational             90.814             24.218             18.819
 Vibration     1          0.600              1.962              3.847
 Vibration     2          0.615              1.913              2.795
 Vibration     3          0.619              1.899              2.629
 Vibration     4          0.641              1.831              2.075
 Vibration     5          0.719              1.597              1.215
 Vibration     6          0.755              1.499              1.014
 Vibration     7          0.783              1.427              0.892
 Vibration     8          0.815              1.345              0.775
 Vibration     9          0.850              1.263              0.673
 Vibration    10          0.935              1.078              0.489

 Optimization completed.
    -- Stationary point found.
 Normal termination of Gaussian 16 at Sun Jul  3 21:38:40 2022.
