 Gaussian 16, Revision A.03,
 Gaussian 16:  ES64L-G16RevA.03 25-Dec-2016

 -----------------------------
 # opt freq b3lyp/6-31g(2df,p)
 -----------------------------

 -------------------
 Title Card Required
 -------------------
 Symbolic Z-matrix:
 Charge =  0 Multiplicity = 1

 SCF Done:  E(RB3LYP) =  -373.804154292     A.U. after   15 cycles
 SCF Done:  E(RB3LYP) =  -373.827511417     A.U. after   13 cycles
 SCF Done:  E(RB3LYP) =  -373.825887689     A.U. after   15 cycles
 SCF Done:  E(RB3LYP) =  -373.825088186     A.U. after   13 cycles
 SCF Done:  E(RB3LYP) =  -373.823252685     A.U. after   13 cycles
 SCF Done:  E(RB3LYP) =  -373.827663273     A.U. after   10 cycles
 SCF Done:  E(RB3LYP) =  -373.827801144     A.U. after   13 cycles
 SCF Done:  E(RB3LYP) =  -373.827947624     A.U. after   12 cycles
 SCF Done:  E(RB3LYP) =  -373.828205410     A.U. after   11 cycles
 SCF Done:  E(RB3LYP) =  -373.828208279     A.U. after    8 cycles
 SCF Done:  E(RB3LYP) =  -373.828208574     A.U. after    8 cycles
 Optimization completed.
    -- Stationary point found.
 Normal termination of Gaussian 16 at Thu Aug  4 05:16:45 2022.

 ----------------------------------------------------------------------
 #N Geom=AllCheck Guess=TCheck SCRF=Check GenChk RB3LYP/6-31G(2df,p) Fr
 eq
 ----------------------------------------------------------------------

 Structure from the checkpoint file:  "NtCCc1nc[nH]n1.chk"
 -------------------
 Title Card Required
 -------------------
 Charge =  0 Multiplicity = 1

                         Standard orientation:
 ---------------------------------------------------------------------
 Center     Atomic      Atomic             Coordinates (Angstroms)
 Number     Number       Type             X           Y           Z
 ---------------------------------------------------------------------
      1          7           0       -3.061901   -0.517813   -0.752389
      2          6           0       -2.242814   -0.029182   -0.101442
      3          6           0       -1.211411    0.601867    0.726091
      4          6           0        0.181302    0.228096    0.305979
      5          7           0        0.710891   -1.013166    0.499146
      6          6           0        1.922515   -0.894684   -0.005456
      7          7           0        2.105244    0.356766   -0.470978
      8          7           0        0.989643    1.097686   -0.278819
      9          1           0       -1.374408    0.304138    1.767373
     10          1           0       -1.322191    1.688010    0.664316
     11          1           0        2.679843   -1.662576   -0.051206
     12          1           0        2.912062    0.769539   -0.910229
 ---------------------------------------------------------------------

 SCF Done:  E(RB3LYP) =  -373.828208574     A.U. after    1 cycles

 The electronic state is 1-A.
 Alpha  occ. eigenvalues --  -14.43334 -14.37213 -14.33791 -14.32489 -10.27118
 Alpha  occ. eigenvalues --  -10.25851 -10.24462 -10.21973  -1.09461  -0.91509
 Alpha  occ. eigenvalues --   -0.89845  -0.85764  -0.78056  -0.66099  -0.61576
 Alpha  occ. eigenvalues --   -0.58488  -0.51938  -0.49772  -0.47421  -0.45211
 Alpha  occ. eigenvalues --   -0.43345  -0.35560  -0.34895  -0.32626  -0.32298
 Alpha  occ. eigenvalues --   -0.31190  -0.29430  -0.28364
 Alpha virt. eigenvalues --   -0.01123   0.02095   0.04287   0.05311   0.06491
 Alpha virt. eigenvalues --    0.10321   0.11606   0.15043   0.17946   0.18792
 Alpha virt. eigenvalues --    0.22191   0.24770   0.26957   0.29287   0.32735

 Mulliken charges:
               1
     1  N   -0.304501
     2  C    0.269244
     3  C   -0.423032
     4  C    0.351022
     5  N   -0.285807
     6  C    0.024924
     7  N   -0.174258
     8  N   -0.251564
     9  H    0.172656
    10  H    0.174843
    11  H    0.156727
    12  H    0.289747
 Sum of Mulliken charges =  -0.00000

 Dipole moment (field-independent basis, Debye):
    X=              5.4764    Y=              1.4872    Z=              1.0249  Tot=              5.7665
 Quadrupole moment (field-independent basis, Debye-Ang):
   XX=            -42.5887   YY=            -47.0218   ZZ=            -44.5168
   XY=             -5.5097   XZ=             -9.1686   YZ=              0.9267

  Exact polarizability:  78.497  -0.017  55.014  -2.273  -0.662  43.660
 Approx polarizability: 113.950   6.510  97.415  -2.233  -2.913  74.276

                      1                      2                      3
                      A                      A                      A
 Frequencies --     37.1815               110.0184               301.1693
 Red. masses --      5.6006                 7.6779                 4.7040
 Frc consts  --      0.0046                 0.0548                 0.2514
 IR Inten    --      1.5016                 4.5417                16.0543

                      4                      5                      6
                      A                      A                      A
 Frequencies --    328.3797               378.3838               484.5341
 Red. masses --      2.9726                 4.0965                10.6475
 Frc consts  --      0.1889                 0.3456                 1.4728
 IR Inten    --     11.3285                 2.4010                 2.8189

                      7                      8                      9
                      A                      A                      A
 Frequencies --    559.9015               683.4976               703.3673
 Red. masses --      1.6639                 1.9698                 5.1262
 Frc consts  --      0.3073                 0.5422                 1.4942
 IR Inten    --     70.1685                 8.2942                17.0976

                     10                     11                     12
                      A                      A                      A
 Frequencies --    819.3132               865.0990               927.9549
 Red. masses --      7.2700                 1.3874                 2.0636
 Frc consts  --      2.8753                 0.6118                 1.0470
 IR Inten    --     10.6936                12.0430                 3.0532

                     13                     14                     15
                      A                      A                      A
 Frequencies --    944.8858               999.1570              1011.1803
 Red. masses --      4.5130                 7.6246                 4.0881
 Frc consts  --      2.3740                 4.4847                 2.4628
 IR Inten    --      3.9668                 8.5518                 2.2830

                     16                     17                     18
                      A                      A                      A
 Frequencies --   1108.8528              1163.8151              1219.1007
 Red. masses --      2.5060                 1.9396                 1.3387
 Frc consts  --      1.8155                 1.5478                 1.1722
 IR Inten    --     25.1924                16.9352                 2.7589

                     19                     20                     21
                      A                      A                      A
 Frequencies --   1293.3579              1330.0380              1367.3045
 Red. masses --      1.8468                 1.5488                 5.2971
 Frc consts  --      1.8201                 1.6143                 5.8347
 IR Inten    --      3.4250                 7.9396                43.3102

                     22                     23                     24
                      A                      A                      A
 Frequencies --   1448.1761              1470.3451              1485.9242
 Red. masses --      1.0828                 2.3604                 5.7950
 Frc consts  --      1.3379                 3.0066                 7.5387
 IR Inten    --      8.4870                16.5666                 3.7848

                     25                     26                     27
                      A                      A                      A
 Frequencies --   1559.7942              2370.4775              3058.1481
 Red. masses --      4.8430                12.6117                 1.0604
 Frc consts  --      6.9422                41.7537                 5.8433
 IR Inten    --     46.2439                 6.3652                 1.4459

                     28                     29                     30
                      A                      A                      A
 Frequencies --   3110.5558              3262.9356              3663.0177
 Red. masses --      1.1001                 1.0986                 1.0824
 Frc consts  --      6.2712                 6.8917                 8.5567
 IR Inten    --      0.0201                 1.0185                90.3901

 - Thermochemistry -
 -------------------
 Temperature   298.150 Kelvin.  Pressure   1.00000 Atm.
 Atom     1 has atomic number  7 and mass  14.00307

 Molecular mass:   108.04360 amu.
 Principal axes and moments of inertia in atomic units:
                           1         2         3
     Eigenvalues --   303.953441370.781821478.74044
           X            0.99971  -0.01532  -0.01882
           Y            0.01602   0.99916   0.03772
           Z            0.01823  -0.03801   0.99911
 This molecule is an asymmetric top.
 Rotational symmetry number  1.
 Rotational temperatures (Kelvin)      0.28496     0.06319     0.05857
 Rotational constants (GHZ):           5.93756     1.31658     1.22046
 Zero-point vibrational energy     227684.4 (Joules/Mol)
                                   54.41789 (Kcal/Mol)
 Warning -- explicit consideration of   7 degrees of freedom as
           vibrations may cause significant error
 Vibrational temperatures:     53.50   158.29   433.32   472.47   544.41
          (Kelvin)            697.14   805.57   983.40  1011.99  1178.81
                             1244.68  1335.12  1359.48  1437.56  1454.86
                             1595.39  1674.47  1754.01  1860.85  1913.63
                             1967.25  2083.60  2115.50  2137.91  2244.20
                             3410.59  4399.99  4475.40  4694.64  5270.27

 Zero-point correction=                           0.086720 (Hartree/Particle)
 Thermal correction to Energy=                    0.093327
 Thermal correction to Enthalpy=                  0.094271
 Thermal correction to Gibbs Free Energy=         0.054762
 Sum of electronic and zero-point Energies=           -373.741488
 Sum of electronic and thermal Energies=              -373.734882
 Sum of electronic and thermal Enthalpies=            -373.733938
 Sum of electronic and thermal Free Energies=         -373.773447

                     E (Thermal)             CV                S
                      KCal/Mol        Cal/Mol-Kelvin    Cal/Mol-Kelvin
 Total                   58.563             23.008             83.154
 Electronic               0.000              0.000              0.000
 Translational            0.889              2.981             39.949
 Rotational               0.889              2.981             27.912
 Vibrational             56.786             17.046             15.293
 Vibration     1          0.594              1.982              5.404
 Vibration     2          0.606              1.941              3.269
 Vibration     3          0.693              1.671              1.410
 Vibration     4          0.712              1.619              1.268
 Vibration     5          0.749              1.516              1.046
 Vibration     6          0.841              1.284              0.698
 Vibration     7          0.916              1.118              0.524

                           ! Non-Optimized Parameters !
 Normal termination of Gaussian 16 at Thu Aug  4 05:29:52 2022.
