 Gaussian 16, Revision A.03,
 Gaussian 16:  ES64L-G16RevA.03 25-Dec-2016

 -----------------------------
 # opt freq b3lyp/6-31g(2df,p)
 -----------------------------

 -------------------
 Title Card Required
 -------------------
 Symbolic Z-matrix:
 Charge =  0 Multiplicity = 1

 SCF Done:  E(RB3LYP) =  -418.117899350     A.U. after   15 cycles
 SCF Done:  E(RB3LYP) =  -418.142288415     A.U. after   13 cycles
 SCF Done:  E(RB3LYP) =  -418.142824109     A.U. after   13 cycles
 SCF Done:  E(RB3LYP) =  -418.137098396     A.U. after   16 cycles
 SCF Done:  E(RB3LYP) =  -418.142802931     A.U. after   14 cycles
 SCF Done:  E(RB3LYP) =  -418.143081781     A.U. after    9 cycles
 SCF Done:  E(RB3LYP) =  -418.143705507     A.U. after   14 cycles
 SCF Done:  E(RB3LYP) =  -418.144417121     A.U. after   13 cycles
 SCF Done:  E(RB3LYP) =  -418.145535836     A.U. after   14 cycles
 SCF Done:  E(RB3LYP) =  -418.144904814     A.U. after   13 cycles
 SCF Done:  E(RB3LYP) =  -418.145802676     A.U. after   13 cycles
 SCF Done:  E(RB3LYP) =  -418.145819017     A.U. after   10 cycles
 SCF Done:  E(RB3LYP) =  -418.145820092     A.U. after    8 cycles
 SCF Done:  E(RB3LYP) =  -418.145820271     A.U. after    8 cycles
 SCF Done:  E(RB3LYP) =  -418.145820346     A.U. after    7 cycles
 Optimization completed.
    -- Stationary point found.
 Normal termination of Gaussian 16 at Sun Jul  3 22:48:40 2022.

 ----------------------------------------------------------------------
 #N Geom=AllCheck Guess=TCheck SCRF=Check GenChk RB3LYP/6-31G(2df,p) Fr
 eq
 ----------------------------------------------------------------------

 Structure from the checkpoint file:  "NtCCNCCdCCdO.chk"
 -------------------
 Title Card Required
 -------------------
 Charge =  0 Multiplicity = 1

                         Standard orientation:
 ---------------------------------------------------------------------
 Center     Atomic      Atomic             Coordinates (Angstroms)
 Number     Number       Type             X           Y           Z
 ---------------------------------------------------------------------
      1          7           0        4.500022   -1.080053    0.120624
      2          6           0        3.632303   -0.318566    0.095163
      3          6           0        2.529473    0.645797    0.092191
      4          7           0        1.254245   -0.020101   -0.150264
      5          6           0        0.122110    0.905432   -0.126815
      6          6           0       -1.145037    0.182704   -0.465924
      7          6           0       -2.285050    0.250603    0.227956
      8          6           0       -3.486183   -0.485297   -0.200321
      9          8           0       -4.546945   -0.455614    0.378375
     10          1           0        2.705981    1.370835   -0.712347
     11          1           0        2.571418    1.213762    1.039529
     12          1           0        1.115516   -0.751871    0.539624
     13          1           0        0.309951    1.667967   -0.897995
     14          1           0        0.010497    1.446008    0.829346
     15          1           0       -1.097371   -0.441358   -1.357972
     16          1           0       -2.379974    0.849461    1.130317
     17          1           0       -3.346025   -1.092864   -1.123520
 ---------------------------------------------------------------------

 SCF Done:  E(RB3LYP) =  -418.145820346     A.U. after    1 cycles

 The electronic state is 1-A.
 Alpha  occ. eigenvalues --  -19.14112 -14.35731 -14.34047 -10.27554 -10.27434
 Alpha  occ. eigenvalues --  -10.24744 -10.23153 -10.22991 -10.21134  -1.04702
 Alpha  occ. eigenvalues --   -0.95226  -0.90875  -0.82820  -0.76440  -0.69776
 Alpha  occ. eigenvalues --   -0.62117  -0.58376  -0.55183  -0.51530  -0.50521
 Alpha  occ. eigenvalues --   -0.47817  -0.45861  -0.44148  -0.43082  -0.41282
 Alpha  occ. eigenvalues --   -0.40093  -0.39097  -0.36693  -0.34307  -0.33733
 Alpha  occ. eigenvalues --   -0.29456  -0.26617  -0.25986
 Alpha virt. eigenvalues --   -0.07018   0.01329   0.02958   0.05159   0.07067
 Alpha virt. eigenvalues --    0.09298   0.09392   0.10972   0.13624   0.15065
 Alpha virt. eigenvalues --    0.15582   0.16004   0.16941   0.20372   0.22204

 Mulliken charges:
               1
     1  N   -0.290849
     2  C    0.259897
     3  C   -0.259891
     4  N   -0.301977
     5  C   -0.193345
     6  C   -0.026040
     7  C   -0.146334
     8  C    0.147747
     9  O   -0.265362
    10  H    0.160544
    11  H    0.137007
    12  H    0.238786
    13  H    0.131185
    14  H    0.101910
    15  H    0.120517
    16  H    0.112003
    17  H    0.074203
 Sum of Mulliken charges =  -0.00000

 Dipole moment (field-independent basis, Debye):
    X=              0.1993    Y=              2.9586    Z=             -0.2341  Tot=              2.9745
 Quadrupole moment (field-independent basis, Debye-Ang):
   XX=            -90.1326   YY=            -52.0844   ZZ=            -50.6680
   XY=              8.8146   XZ=              4.2867   YZ=              0.2455

  Exact polarizability: 124.712   0.356  62.807  -7.142   4.554  59.133
 Approx polarizability: 169.518  -6.052  98.266 -21.731   5.065  94.606

                      1                      2                      3
                      A                      A                      A
 Frequencies --     39.3929                74.4085                86.3937
 Red. masses --      6.0170                 3.2040                 3.0043
 Frc consts  --      0.0055                 0.0105                 0.0132
 IR Inten    --      5.0932                 6.7078                 3.9547

                      4                      5                      6
                      A                      A                      A
 Frequencies --    125.8428               153.0182               190.3618
 Red. masses --      3.2955                 3.7469                 4.2016
 Frc consts  --      0.0307                 0.0517                 0.0897
 IR Inten    --      4.8270                 0.3572                 3.4420

                      7                      8                      9
                      A                      A                      A
 Frequencies --    254.6747               288.3924               374.2776
 Red. masses --      2.9307                 5.0058                 3.9540
 Frc consts  --      0.1120                 0.2453                 0.3263
 IR Inten    --      8.8646                 1.2837                 4.7658

                     10                     11                     12
                      A                      A                      A
 Frequencies --    392.9026               482.2133               556.0194
 Red. masses --      3.7449                 3.0043                 6.8525
 Frc consts  --      0.3406                 0.4116                 1.2482
 IR Inten    --      0.8452                 2.7132                 2.0440

                     13                     14                     15
                      A                      A                      A
 Frequencies --    596.5832               775.3973               831.5273
 Red. masses --      3.8409                 1.2576                 1.4315
 Frc consts  --      0.8054                 0.4455                 0.5832
 IR Inten    --      6.9834                78.3928                10.2461

                     16                     17                     18
                      A                      A                      A
 Frequencies --    932.5851               963.5148               998.5311
 Red. masses --      2.5585                 2.2257                 2.1007
 Frc consts  --      1.3110                 1.2174                 1.2340
 IR Inten    --      8.2701                25.0658                10.8152

                     19                     20                     21
                      A                      A                      A
 Frequencies --   1024.3295              1044.4356              1085.9219
 Red. masses --      1.3557                 1.3971                 3.7705
 Frc consts  --      0.8381                 0.8979                 2.6196
 IR Inten    --     23.2349                 8.6450                 6.1526

                     22                     23                     24
                      A                      A                      A
 Frequencies --   1103.6651              1144.0985              1152.5536
 Red. masses --      2.4489                 4.0911                 2.4044
 Frc consts  --      1.7575                 3.1551                 1.8818
 IR Inten    --     13.8999                59.1956                48.4091

                     25                     26                     27
                      A                      A                      A
 Frequencies --   1208.5385              1254.3089              1298.4527
 Red. masses --      1.1189                 1.2595                 1.2267
 Frc consts  --      0.9629                 1.1675                 1.2185
 IR Inten    --     11.7315                 4.0488                 5.5773

                     28                     29                     30
                      A                      A                      A
 Frequencies --   1313.0875              1347.1489              1407.0304
 Red. masses --      1.3794                 1.2785                 1.4157
 Frc consts  --      1.4013                 1.3670                 1.6513
 IR Inten    --      4.8457                50.5712                 2.9290

                     31                     32                     33
                      A                      A                      A
 Frequencies --   1430.1146              1487.4711              1496.4791
 Red. masses --      1.2535                 1.0815                 1.1990
 Frc consts  --      1.5105                 1.4099                 1.5820
 IR Inten    --      3.6865                 3.9347                32.3209

                     34                     35                     36
                      A                      A                      A
 Frequencies --   1499.8846              1709.7274              1800.0997
 Red. masses --      1.0781                 6.2167                 9.9757
 Frc consts  --      1.4289                10.7069                19.0453
 IR Inten    --      5.2951                29.1672               265.4773

                     37                     38                     39
                      A                      A                      A
 Frequencies --   2370.8940              2871.6217              2941.4875
 Red. masses --     12.6243                 1.0825                 1.0719
 Frc consts  --     41.8102                 5.2593                 5.4644
 IR Inten    --      2.5012                96.0989                37.6797

                     40                     41                     42
                      A                      A                      A
 Frequencies --   2951.5995              3007.7100              3047.4562
 Red. masses --      1.0673                 1.0909                 1.0853
 Frc consts  --      5.4782                 5.8146                 5.9384
 IR Inten    --     50.9022                17.6543                 7.2849

                     43                     44                     45
                      A                      A                      A
 Frequencies --   3143.5466              3171.3784              3522.2970
 Red. masses --      1.0884                 1.0909                 1.0744
 Frc consts  --      6.3371                 6.4645                 7.8537
 IR Inten    --      6.3923                 5.0645                 4.0296

 - Thermochemistry -
 -------------------
 Temperature   298.150 Kelvin.  Pressure   1.00000 Atm.
 Atom     1 has atomic number  7 and mass  14.00307

 Molecular mass:   124.06366 amu.
 Principal axes and moments of inertia in atomic units:
                           1         2         3
     Eigenvalues --   232.845064085.478764214.24239
           X            0.99996   0.00773   0.00373
           Y           -0.00796   0.99782   0.06554
           Z           -0.00321  -0.06557   0.99784
 This molecule is an asymmetric top.
 Rotational symmetry number  1.
 Rotational temperatures (Kelvin)      0.37198     0.02120     0.02055
 Rotational constants (GHZ):           7.75082     0.44175     0.42825
 Zero-point vibrational energy     352607.5 (Joules/Mol)
                                   84.27522 (Kcal/Mol)
 Warning -- explicit consideration of  13 degrees of freedom as
           vibrations may cause significant error
 Vibrational temperatures:     56.68   107.06   124.30   181.06   220.16
          (Kelvin)            273.89   366.42   414.93   538.50   565.30
                              693.80   799.99   858.35  1115.62  1196.38
                             1341.78  1386.28  1436.66  1473.78  1502.71
                             1562.40  1587.93  1646.10  1658.27  1738.82
                             1804.67  1868.18  1889.24  1938.25  2024.40
                             2057.62  2140.14  2153.10  2158.00  2459.92
                             2589.94  3411.19  4131.62  4232.14  4246.69
                             4327.42  4384.61  4522.86  4562.91  5067.80

 Zero-point correction=                           0.134301 (Hartree/Particle)
 Thermal correction to Energy=                    0.144121
 Thermal correction to Enthalpy=                  0.145066
 Thermal correction to Gibbs Free Energy=         0.097864
 Sum of electronic and zero-point Energies=           -418.011519
 Sum of electronic and thermal Energies=              -418.001699
 Sum of electronic and thermal Enthalpies=            -418.000755
 Sum of electronic and thermal Free Energies=         -418.047956

                     E (Thermal)             CV                S
                      KCal/Mol        Cal/Mol-Kelvin    Cal/Mol-Kelvin
 Total                   90.438             33.025             99.344
 Electronic               0.000              0.000              0.000
 Translational            0.889              2.981             40.361
 Rotational               0.889              2.981             29.773
 Vibrational             88.660             27.063             29.210
 Vibration     1          0.594              1.981              5.289
 Vibration     2          0.599              1.966              4.033
 Vibration     3          0.601              1.959              3.740
 Vibration     4          0.611              1.927              3.009
 Vibration     5          0.619              1.899              2.634
 Vibration     6          0.634              1.853              2.224
 Vibration     7          0.665              1.755              1.698
 Vibration     8          0.685              1.695              1.483
 Vibration     9          0.745              1.525              1.062
 Vibration    10          0.760              1.485              0.989
 Vibration    11          0.838              1.289              0.704
 Vibration    12          0.911              1.127              0.532
 Vibration    13          0.954              1.039              0.456

                           ! Non-Optimized Parameters !
 Normal termination of Gaussian 16 at Sun Jul  3 23:08:01 2022.
