 Gaussian 16, Revision A.03,
 Gaussian 16:  ES64L-G16RevA.03 25-Dec-2016

 -----------------------------
 # opt freq b3lyp/6-31g(2df,p)
 -----------------------------

 -------------------
 Title Card Required
 -------------------
 Symbolic Z-matrix:
 Charge =  0 Multiplicity = 1

 SCF Done:  E(RB3LYP) =  -399.595590362     A.U. after   15 cycles
 SCF Done:  E(RB3LYP) =  -399.632156234     A.U. after   14 cycles
 SCF Done:  E(RB3LYP) =  -399.634813774     A.U. after   16 cycles
 SCF Done:  E(RB3LYP) =  -399.625282541     A.U. after   16 cycles
 SCF Done:  E(RB3LYP) =  -399.635503672     A.U. after   14 cycles
 SCF Done:  E(RB3LYP) =  -399.631235624     A.U. after   16 cycles
 SCF Done:  E(RB3LYP) =  -399.635013935     A.U. after   13 cycles
 SCF Done:  E(RB3LYP) =  -399.635736552     A.U. after   11 cycles
 SCF Done:  E(RB3LYP) =  -399.636059901     A.U. after   13 cycles
 SCF Done:  E(RB3LYP) =  -399.635961975     A.U. after   12 cycles
 SCF Done:  E(RB3LYP) =  -399.636135776     A.U. after   12 cycles
 SCF Done:  E(RB3LYP) =  -399.636161141     A.U. after   11 cycles
 SCF Done:  E(RB3LYP) =  -399.636176081     A.U. after   11 cycles
 SCF Done:  E(RB3LYP) =  -399.636184039     A.U. after   11 cycles
 SCF Done:  E(RB3LYP) =  -399.636186082     A.U. after   10 cycles
 SCF Done:  E(RB3LYP) =  -399.636186404     A.U. after    8 cycles
 Optimization completed.
    -- Stationary point found.
 Normal termination of Gaussian 16 at Sun Jul  3 23:47:39 2022.

 ----------------------------------------------------------------------
 #N Geom=AllCheck Guess=TCheck SCRF=Check GenChk RB3LYP/6-31G(2df,p) Fr
 eq
 ----------------------------------------------------------------------

 Structure from the checkpoint file:  "NtCCtCC1CdCOC1.chk"
 -------------------
 Title Card Required
 -------------------
 Charge =  0 Multiplicity = 1

                         Standard orientation:
 ---------------------------------------------------------------------
 Center     Atomic      Atomic             Coordinates (Angstroms)
 Number     Number       Type             X           Y           Z
 ---------------------------------------------------------------------
      1          7           0        4.373908    0.001182   -0.425622
      2          6           0        3.241915    0.006928   -0.164002
      3          6           0        1.912160    0.012329    0.144145
      4          6           0        0.734086    0.017059    0.414577
      5          6           0       -0.683310    0.024386    0.741584
      6          6           0       -1.455774    1.206572    0.166366
      7          6           0       -2.523593    0.735636   -0.470426
      8          8           0       -2.659665   -0.617212   -0.487054
      9          6           0       -1.464212   -1.171305    0.096833
     10          1           0       -0.772177   -0.000627    1.837407
     11          1           0       -1.179805    2.239585    0.302489
     12          1           0       -3.321128    1.269947   -0.968925
     13          1           0       -0.877344   -1.642322   -0.697174
     14          1           0       -1.757213   -1.926796    0.827531
 ---------------------------------------------------------------------

 SCF Done:  E(RB3LYP) =  -399.636186404     A.U. after    2 cycles

 The electronic state is 1-A.
 Alpha  occ. eigenvalues --  -19.18581 -14.34413 -10.26508 -10.25441 -10.25095
 Alpha  occ. eigenvalues --  -10.24109 -10.23548 -10.22666 -10.19745  -1.08675
 Alpha  occ. eigenvalues --   -0.91389  -0.84599  -0.78731  -0.76585  -0.67877
 Alpha  occ. eigenvalues --   -0.63111  -0.59508  -0.54394  -0.52609  -0.46987
 Alpha  occ. eigenvalues --   -0.44541  -0.42358  -0.40992  -0.39065  -0.38255
 Alpha  occ. eigenvalues --   -0.37304  -0.37216  -0.36728  -0.28855  -0.28773
 Alpha  occ. eigenvalues --   -0.23756
 Alpha virt. eigenvalues --   -0.04320  -0.03992   0.01418   0.08096   0.10284
 Alpha virt. eigenvalues --    0.11503   0.12412   0.13296   0.14444   0.15760
 Alpha virt. eigenvalues --    0.15836   0.18335   0.19952   0.23060   0.24233

 Mulliken charges:
               1
     1  N   -0.336973
     2  C    0.209770
     3  C   -0.018559
     4  C    0.160052
     5  C   -0.249733
     6  C   -0.197594
     7  C    0.080569
     8  O   -0.223103
     9  C   -0.095410
    10  H    0.131548
    11  H    0.125463
    12  H    0.144191
    13  H    0.135086
    14  H    0.134693
 Sum of Mulliken charges =  -0.00000

 Dipole moment (field-independent basis, Debye):
    X=             -4.4305    Y=              0.2124    Z=              1.2939  Tot=              4.6205
 Quadrupole moment (field-independent basis, Debye-Ang):
   XX=            -71.6129   YY=            -46.9875   ZZ=            -49.4303
   XY=             -2.3170   XZ=              2.1369   YZ=             -1.1600

  Exact polarizability: 134.026  -0.026  59.733  -3.046  -0.038  50.795
 Approx polarizability: 229.517   5.679  88.298 -13.679   3.467  82.839

                      1                      2                      3
                      A                      A                      A
 Frequencies --     38.0987                81.7234               112.1312
 Red. masses --      4.3352                 5.8669                 5.0034
 Frc consts  --      0.0037                 0.0231                 0.0371
 IR Inten    --      2.9754                 1.7745                 0.4089

                      4                      5                      6
                      A                      A                      A
 Frequencies --    222.2610               241.1041               415.5783
 Red. masses --      7.3279                 5.2474                 5.8053
 Frc consts  --      0.2133                 0.1797                 0.5907
 IR Inten    --      1.4938                 4.9415                 1.5106

                      7                      8                      9
                      A                      A                      A
 Frequencies --    441.6076               508.3591               573.3289
 Red. masses --      4.9152                 6.1274                11.2438
 Frc consts  --      0.5648                 0.9330                 2.1776
 IR Inten    --     10.1700                 5.2453                 5.8800

                     10                     11                     12
                      A                      A                      A
 Frequencies --    588.6047               665.2870               728.2655
 Red. masses --     10.3283                 3.4122                 1.2616
 Frc consts  --      2.1083                 0.8898                 0.3942
 IR Inten    --      1.8090                 1.1968                32.5025

                     13                     14                     15
                      A                      A                      A
 Frequencies --    766.7413               835.3045               917.4500
 Red. masses --      5.1112                 6.3405                 3.0116
 Frc consts  --      1.7704                 2.6065                 1.4935
 IR Inten    --     13.4104                 0.7015                16.8731

                     16                     17                     18
                      A                      A                      A
 Frequencies --    928.2207               961.6833              1006.3980
 Red. masses --      1.3466                 4.2785                 1.7979
 Frc consts  --      0.6836                 2.3313                 1.0729
 IR Inten    --      5.2745                43.1836                 6.3892

                     19                     20                     21
                      A                      A                      A
 Frequencies --   1048.8592              1091.6055              1181.9254
 Red. masses --      3.3279                 2.2478                 1.6795
 Frc consts  --      2.1570                 1.5781                 1.3823
 IR Inten    --      6.1476                40.7164                72.3652

                     22                     23                     24
                      A                      A                      A
 Frequencies --   1187.8767              1222.4197              1259.7342
 Red. masses --      3.2241                 1.2698                 1.2023
 Frc consts  --      2.6804                 1.1179                 1.1242
 IR Inten    --      1.0900                11.6356                 3.1705

                     25                     26                     27
                      A                      A                      A
 Frequencies --   1318.6336              1332.2613              1406.0032
 Red. masses --      1.2848                 1.4708                 1.5252
 Frc consts  --      1.3162                 1.5381                 1.7764
 IR Inten    --      0.3946                17.9915                 3.9779

                     28                     29                     30
                      A                      A                      A
 Frequencies --   1510.8296              1684.5319              2263.7089
 Red. masses --      1.0920                 5.9241                12.3908
 Frc consts  --      1.4686                 9.9044                37.4103
 IR Inten    --      0.9853                73.0920                 1.0096

                     31                     32                     33
                      A                      A                      A
 Frequencies --   2399.1896              2991.5967              3060.1194
 Red. masses --     12.2018                 1.0815                 1.0611
 Frc consts  --     41.3812                 5.7026                 5.8542
 IR Inten    --    142.4747                10.6997                25.0407

                     34                     35                     36
                      A                      A                      A
 Frequencies --   3123.2892              3235.1241              3274.3127
 Red. masses --      1.1073                 1.0913                 1.1036
 Frc consts  --      6.3644                 6.7292                 6.9711
 IR Inten    --     19.3244                 2.5759                 3.6557

 - Thermochemistry -
 -------------------
 Temperature   298.150 Kelvin.  Pressure   1.00000 Atm.
 Atom     1 has atomic number  7 and mass  14.00307

 Molecular mass:   119.03711 amu.
 Principal axes and moments of inertia in atomic units:
                           1         2         3
     Eigenvalues --   299.752812611.958242738.55923
           X            0.99999  -0.00307   0.00085
           Y            0.00309   0.99960  -0.02812
           Z           -0.00076   0.02812   0.99960
 This molecule is an asymmetric top.
 Rotational symmetry number  1.
 Rotational temperatures (Kelvin)      0.28895     0.03316     0.03163
 Rotational constants (GHZ):           6.02076     0.69095     0.65901
 Zero-point vibrational energy     266911.8 (Joules/Mol)
                                   63.79345 (Kcal/Mol)
 Warning -- explicit consideration of  10 degrees of freedom as
           vibrations may cause significant error
 Vibrational temperatures:     54.82   117.58   161.33   319.78   346.90
          (Kelvin)            597.92   635.37   731.42   824.89   846.87
                              957.20  1047.81  1103.17  1201.82  1320.01
                             1335.50  1383.65  1447.98  1509.07  1570.58
                             1700.53  1709.09  1758.79  1812.48  1897.22
                             1916.83  2022.93  2173.75  2423.67  3256.97
                             3451.90  4304.24  4402.83  4493.72  4654.62
                             4711.01

 Zero-point correction=                           0.101661 (Hartree/Particle)
 Thermal correction to Energy=                    0.109706
 Thermal correction to Enthalpy=                  0.110650
 Thermal correction to Gibbs Free Energy=         0.067521
 Sum of electronic and zero-point Energies=           -399.534525
 Sum of electronic and thermal Energies=              -399.526480
 Sum of electronic and thermal Enthalpies=            -399.525536
 Sum of electronic and thermal Free Energies=         -399.568666

                     E (Thermal)             CV                S
                      KCal/Mol        Cal/Mol-Kelvin    Cal/Mol-Kelvin
 Total                   68.842             28.224             90.774
 Electronic               0.000              0.000              0.000
 Translational            0.889              2.981             40.237
 Rotational               0.889              2.981             29.151
 Vibrational             67.064             22.262             21.385
 Vibration     1          0.594              1.982              5.356
 Vibration     2          0.600              1.962              3.849
 Vibration     3          0.607              1.939              3.232
 Vibration     4          0.648              1.807              1.941
 Vibration     5          0.658              1.777              1.795
 Vibration     6          0.779              1.436              0.907
 Vibration     7          0.801              1.379              0.822
 Vibration     8          0.864              1.231              0.638
 Vibration     9          0.930              1.089              0.498
 Vibration    10          0.946              1.056              0.470

 Optimization completed.
    -- Stationary point found.
 Normal termination of Gaussian 16 at Mon Jul  4 00:03:44 2022.
