 Gaussian 16, Revision A.03,
 Gaussian 16:  ES64L-G16RevA.03 25-Dec-2016

 -----------------------------
 # opt freq b3lyp/6-31g(2df,p)
 -----------------------------

 -------------------
 Title Card Required
 -------------------
 Symbolic Z-matrix:
 Charge =  0 Multiplicity = 1

 SCF Done:  E(RB3LYP) =  -398.127165112     A.U. after   15 cycles
 SCF Done:  E(RB3LYP) =  -398.167367926     A.U. after   13 cycles
 SCF Done:  E(RB3LYP) =  -398.184237112     A.U. after   12 cycles
 SCF Done:  E(RB3LYP) =  -398.188241226     A.U. after   14 cycles
 SCF Done:  E(RB3LYP) =  -398.196100717     A.U. after   14 cycles
 SCF Done:  E(RB3LYP) =  -398.195923840     A.U. after   14 cycles
 SCF Done:  E(RB3LYP) =  -398.200030620     A.U. after   12 cycles
 SCF Done:  E(RB3LYP) =  -398.195062700     A.U. after   14 cycles
 SCF Done:  E(RB3LYP) =  -398.200915370     A.U. after   12 cycles
 SCF Done:  E(RB3LYP) =  -398.201044831     A.U. after   11 cycles
 SCF Done:  E(RB3LYP) =  -398.201080027     A.U. after    9 cycles
 SCF Done:  E(RB3LYP) =  -398.201089241     A.U. after    8 cycles
 SCF Done:  E(RB3LYP) =  -398.201090582     A.U. after    8 cycles
 SCF Done:  E(RB3LYP) =  -398.201090861     A.U. after    7 cycles
 Optimization completed.
    -- Stationary point found.
 Normal termination of Gaussian 16 at Sun Jul  3 12:57:36 2022.

 ----------------------------------------------------------------------
 #N Geom=AllCheck Guess=TCheck SCRF=Check GenChk RB3LYP/6-31G(2df,p) Fr
 eq
 ----------------------------------------------------------------------

 Structure from the checkpoint file:  "NtCC1CCC2NC2N1.chk"
 -------------------
 Title Card Required
 -------------------
 Charge =  0 Multiplicity = 1

                         Standard orientation:
 ---------------------------------------------------------------------
 Center     Atomic      Atomic             Coordinates (Angstroms)
 Number     Number       Type             X           Y           Z
 ---------------------------------------------------------------------
      1          7           0        3.399788   -0.290752   -0.390494
      2          6           0        2.319719   -0.194180    0.008604
      3          6           0        0.941236   -0.046697    0.476335
      4          6           0        0.381842    1.367862   -0.014428
      5          6           0       -1.176082    1.580676    0.085241
      6          6           0       -1.616217    0.255132   -0.489797
      7          7           0       -2.542617   -0.864673   -0.137158
      8          6           0       -1.179905   -0.820319    0.405599
      9          7           0        0.170115   -1.306479    0.143015
     10          1           0        0.970779   -0.016914    1.572425
     11          1           0        0.672330    1.496671   -1.062514
     12          1           0        0.922437    2.131616    0.552787
     13          1           0       -1.458942    2.477448   -0.476795
     14          1           0       -1.501976    1.711535    1.120779
     15          1           0       -1.212318    0.133923   -1.497104
     16          1           0       -2.648407   -1.440162   -0.970220
     17          1           0       -1.251944   -0.606231    1.471237
     18          1           0        0.293477   -1.509408   -0.847468
 ---------------------------------------------------------------------

 SCF Done:  E(RB3LYP) =  -398.201090861     A.U. after    1 cycles

 The electronic state is 1-A.
 Alpha  occ. eigenvalues --  -14.35626 -14.35189 -14.33471 -10.27286 -10.24488
 Alpha  occ. eigenvalues --  -10.22493 -10.22107 -10.21785 -10.21279  -0.98942
 Alpha  occ. eigenvalues --   -0.92283  -0.89750  -0.80722  -0.74637  -0.65313
 Alpha  occ. eigenvalues --   -0.64184  -0.60258  -0.55368  -0.50438  -0.48654
 Alpha  occ. eigenvalues --   -0.46796  -0.44333  -0.42854  -0.41753  -0.39133
 Alpha  occ. eigenvalues --   -0.37042  -0.36203  -0.34418  -0.34209  -0.33426
 Alpha  occ. eigenvalues --   -0.32854  -0.28653  -0.22323
 Alpha virt. eigenvalues --    0.01484   0.02956   0.05240   0.07366   0.07952
 Alpha virt. eigenvalues --    0.09464   0.11554   0.12714   0.13495   0.13682
 Alpha virt. eigenvalues --    0.16050   0.17051   0.18166   0.19142   0.21115

 Mulliken charges:
               1
     1  N   -0.314283
     2  C    0.262361
     3  C   -0.097323
     4  C   -0.212933
     5  C   -0.279539
     6  C    0.031402
     7  N   -0.390888
     8  C    0.054053
     9  N   -0.343479
    10  H    0.146176
    11  H    0.127654
    12  H    0.125158
    13  H    0.106496
    14  H    0.119356
    15  H    0.082221
    16  H    0.242490
    17  H    0.112197
    18  H    0.228882
 Sum of Mulliken charges =  -0.00000

 Dipole moment (field-independent basis, Debye):
    X=             -2.6238    Y=              1.4862    Z=             -0.5505  Tot=              3.0653
 Quadrupole moment (field-independent basis, Debye-Ang):
   XX=            -73.9459   YY=            -52.6898   ZZ=            -49.1363
   XY=              2.2617   XZ=              5.4167   YZ=              3.5565

  Exact polarizability:  95.221   1.028  71.973  -1.549   1.415  63.324
 Approx polarizability: 138.671   1.443 107.224  -6.784   0.459 104.465

                      1                      2                      3
                      A                      A                      A
 Frequencies --     99.6126               156.6606               244.4389
 Red. masses --      5.1424                 6.9062                 2.2948
 Frc consts  --      0.0301                 0.0999                 0.0808
 IR Inten    --      6.6242                 7.5097                 1.1423

                      4                      5                      6
                      A                      A                      A
 Frequencies --    299.9449               363.5744               385.7020
 Red. masses --      4.2232                 2.9261                 4.1095
 Frc consts  --      0.2239                 0.2279                 0.3602
 IR Inten    --      2.9473                 5.9826                11.7247

                      7                      8                      9
                      A                      A                      A
 Frequencies --    433.1261               498.5533               515.2344
 Red. masses --      4.3716                 3.2669                 3.7822
 Frc consts  --      0.4832                 0.4784                 0.5916
 IR Inten    --      4.3551                 1.5279                 8.9280

                     10                     11                     12
                      A                      A                      A
 Frequencies --    543.9470               566.6394               736.3916
 Red. masses --      2.9349                 4.8283                 3.0879
 Frc consts  --      0.5116                 0.9134                 0.9866
 IR Inten    --      4.4983                 1.1137                22.4976

                     13                     14                     15
                      A                      A                      A
 Frequencies --    818.6741               826.0677               864.8816
 Red. masses --      2.0183                 3.0595                 2.4486
 Frc consts  --      0.7970                 1.2301                 1.0791
 IR Inten    --     52.8739                33.1728                25.0593

                     16                     17                     18
                      A                      A                      A
 Frequencies --    883.7455               902.1866               952.4972
 Red. masses --      2.5331                 3.6030                 2.4904
 Frc consts  --      1.1656                 1.7278                 1.3312
 IR Inten    --     27.1992                10.7669                25.0588

                     19                     20                     21
                      A                      A                      A
 Frequencies --   1008.6328              1023.0534              1030.5309
 Red. masses --      1.9615                 1.8014                 1.5675
 Frc consts  --      1.1757                 1.1109                 0.9808
 IR Inten    --     28.9905                 2.5266                16.6395

                     22                     23                     24
                      A                      A                      A
 Frequencies --   1080.7130              1089.8397              1139.8139
 Red. masses --      2.0060                 1.8779                 1.7071
 Frc consts  --      1.3804                 1.3141                 1.3067
 IR Inten    --      4.7747                 3.0938                22.5283

                     25                     26                     27
                      A                      A                      A
 Frequencies --   1169.7388              1196.7928              1233.4303
 Red. masses --      1.2156                 1.3285                 1.5222
 Frc consts  --      0.9799                 1.1211                 1.3644
 IR Inten    --      8.9336                17.7992                 0.6452

                     28                     29                     30
                      A                      A                      A
 Frequencies --   1241.2046              1291.6441              1303.1403
 Red. masses --      1.5758                 1.2990                 1.4520
 Frc consts  --      1.4303                 1.2768                 1.4528
 IR Inten    --     11.8727                 0.5719                10.9830

                     31                     32                     33
                      A                      A                      A
 Frequencies --   1321.9862              1338.0076              1360.2982
 Red. masses --      1.3562                 1.5694                 1.2907
 Frc consts  --      1.3965                 1.6554                 1.4071
 IR Inten    --      2.0227                 3.9037                 1.4465

                     34                     35                     36
                      A                      A                      A
 Frequencies --   1416.3236              1453.5431              1479.6391
 Red. masses --      1.1984                 1.1550                 1.1727
 Frc consts  --      1.4164                 1.4378                 1.5127
 IR Inten    --      8.2434                 3.6382                 9.9857

                     37                     38                     39
                      A                      A                      A
 Frequencies --   1494.2973              1501.4654              2362.0450
 Red. masses --      1.4429                 1.1041                12.6663
 Frc consts  --      1.8983                 1.4666                41.6365
 IR Inten    --     22.1684                 1.6668                 6.0189

                     40                     41                     42
                      A                      A                      A
 Frequencies --   3034.8264              3040.1687              3050.4638
 Red. masses --      1.0816                 1.0633                 1.0624
 Frc consts  --      5.8693                 5.7901                 5.8246
 IR Inten    --      5.1959                37.7914                18.6834

                     43                     44                     45
                      A                      A                      A
 Frequencies --   3063.9206              3091.3380              3103.3534
 Red. masses --      1.0838                 1.1023                 1.0990
 Frc consts  --      5.9944                 6.2066                 6.2362
 IR Inten    --     13.8916                10.5007                 7.0892

                     46                     47                     48
                      A                      A                      A
 Frequencies --   3113.6354              3481.9870              3498.0927
 Red. masses --      1.0894                 1.0740                 1.0762
 Frc consts  --      6.2228                 7.6721                 7.7588
 IR Inten    --     40.5958                 0.4943                 2.1197

 - Thermochemistry -
 -------------------
 Temperature   298.150 Kelvin.  Pressure   1.00000 Atm.
 Atom     1 has atomic number  7 and mass  14.00307

 Molecular mass:   123.07965 amu.
 Principal axes and moments of inertia in atomic units:
                           1         2         3
     Eigenvalues --   499.232251546.038761889.26610
           X            0.99998   0.00169   0.00675
           Y           -0.00182   0.99981   0.01942
           Z           -0.00671  -0.01944   0.99979
 This molecule is an asymmetric top.
 Rotational symmetry number  1.
 Warning -- assumption of classical behavior for rotation
           may cause significant error
 Rotational temperatures (Kelvin)      0.17349     0.05602     0.04585
 Rotational constants (GHZ):           3.61503     1.16733     0.95526
 Zero-point vibrational energy     395400.5 (Joules/Mol)
                                   94.50299 (Kcal/Mol)
 Warning -- explicit consideration of  11 degrees of freedom as
           vibrations may cause significant error
 Vibrational temperatures:    143.32   225.40   351.69   431.55   523.10
          (Kelvin)            554.94   623.17   717.31   741.31   782.62
                              815.27  1059.50  1177.89  1188.53  1244.37
                             1271.51  1298.05  1370.43  1451.20  1471.95
                             1482.70  1554.90  1568.04  1639.94  1682.99
                             1721.92  1774.63  1785.82  1858.39  1874.93
                             1902.04  1925.09  1957.17  2037.77  2091.32
                             2128.87  2149.96  2160.27  3398.46  4366.44
                             4374.12  4388.94  4408.30  4447.75  4465.03
                             4479.83  5009.80  5032.98

 Zero-point correction=                           0.150600 (Hartree/Particle)
 Thermal correction to Energy=                    0.158255
 Thermal correction to Enthalpy=                  0.159199
 Thermal correction to Gibbs Free Energy=         0.118494
 Sum of electronic and zero-point Energies=           -398.050491
 Sum of electronic and thermal Energies=              -398.042836
 Sum of electronic and thermal Enthalpies=            -398.041892
 Sum of electronic and thermal Free Energies=         -398.082596

                     E (Thermal)             CV                S
                      KCal/Mol        Cal/Mol-Kelvin    Cal/Mol-Kelvin
 Total                   99.306             30.222             85.670
 Electronic               0.000              0.000              0.000
 Translational            0.889              2.981             40.337
 Rotational               0.889              2.981             28.768
 Vibrational             97.529             24.260             16.564
 Vibration     1          0.604              1.949              3.462
 Vibration     2          0.620              1.895              2.590
 Vibration     3          0.660              1.772              1.770
 Vibration     4          0.692              1.674              1.417
 Vibration     5          0.737              1.547              1.107
 Vibration     6          0.754              1.501              1.017
 Vibration     7          0.794              1.398              0.848
 Vibration     8          0.854              1.253              0.662
 Vibration     9          0.870              1.216              0.621
 Vibration    10          0.899              1.153              0.557
 Vibration    11          0.923              1.103              0.511

 Optimization completed.
    -- Stationary point found.
 Normal termination of Gaussian 16 at Sun Jul  3 13:27:32 2022.
