 Gaussian 16, Revision A.03,
 Gaussian 16:  ES64L-G16RevA.03 25-Dec-2016

 -----------------------------
 # opt freq b3lyp/6-31g(2df,p)
 -----------------------------

 -------------------
 Title Card Required
 -------------------
 Symbolic Z-matrix:
 Charge =  0 Multiplicity = 1

 SCF Done:  E(RB3LYP) =  -319.526885383     A.U. after   14 cycles
 SCF Done:  E(RB3LYP) =  -319.555961556     A.U. after   13 cycles
 SCF Done:  E(RB3LYP) =  -319.563153815     A.U. after   13 cycles
 SCF Done:  E(RB3LYP) =  -319.564926221     A.U. after   12 cycles
 SCF Done:  E(RB3LYP) =  -319.565037145     A.U. after   11 cycles
 SCF Done:  E(RB3LYP) =  -319.565154307     A.U. after   12 cycles
 SCF Done:  E(RB3LYP) =  -319.565282654     A.U. after   11 cycles
 SCF Done:  E(RB3LYP) =  -319.565286144     A.U. after    8 cycles
 Optimization completed.
    -- Stationary point found.
 Normal termination of Gaussian 16 at Sun Jul  3 12:05:59 2022.

 ----------------------------------------------------------------------
 #N Geom=AllCheck Guess=TCheck SCRF=Check GenChk RB3LYP/6-31G(2df,p) Fr
 eq
 ----------------------------------------------------------------------

 Structure from the checkpoint file:  "NtCC12CCpN1pN2.chk"
 -------------------
 Title Card Required
 -------------------
 Charge =  0 Multiplicity = 1

                         Standard orientation:
 ---------------------------------------------------------------------
 Center     Atomic      Atomic             Coordinates (Angstroms)
 Number     Number       Type             X           Y           Z
 ---------------------------------------------------------------------
      1          7           0       -2.757358    0.015307    0.002077
      2          6           0       -1.602282    0.006910   -0.012652
      3          6           0       -0.156422    0.022816   -0.021222
      4          6           0        0.814388    1.192985   -0.339509
      5          6           0        1.609396   -0.088136    0.008387
      6          7           0        0.683571   -0.401997    1.173001
      7          7           0        0.689974   -0.845467   -0.916776
      8          1           0        0.842883    2.004650    0.388301
      9          1           0        0.842381    1.533074   -1.375054
     10          1           0        2.683089   -0.261215    0.049614
     11          1           0        0.710631    0.345233    1.877384
     12          1           0        0.617224   -1.804093   -0.558380
 ---------------------------------------------------------------------

 SCF Done:  E(RB3LYP) =  -319.565286144     A.U. after    1 cycles

 The electronic state is 1-A.
 Alpha  occ. eigenvalues --  -14.35436 -14.35086 -14.34739 -10.30874 -10.28119
 Alpha  occ. eigenvalues --  -10.23331 -10.22510  -1.04992  -0.91601  -0.83927
 Alpha  occ. eigenvalues --   -0.74883  -0.72431  -0.59805  -0.58629  -0.50920
 Alpha  occ. eigenvalues --   -0.46500  -0.43191  -0.41219  -0.39200  -0.38764
 Alpha  occ. eigenvalues --   -0.35637  -0.34389  -0.33589  -0.28209  -0.27498
 Alpha virt. eigenvalues --   -0.00486   0.00442   0.07670   0.09243   0.10285
 Alpha virt. eigenvalues --    0.12051   0.12710   0.14056   0.14670   0.16519
 Alpha virt. eigenvalues --    0.21058   0.22468   0.24085   0.24780   0.34114

 Mulliken charges:
               1
     1  N   -0.337189
     2  C    0.168790
     3  C    0.249910
     4  C   -0.234859
     5  C   -0.013384
     6  N   -0.336421
     7  N   -0.310608
     8  H    0.115944
     9  H    0.134235
    10  H    0.116007
    11  H    0.218453
    12  H    0.229123
 Sum of Mulliken charges =  -0.00000

 Dipole moment (field-independent basis, Debye):
    X=              3.8180    Y=              1.3639    Z=              0.7996  Tot=              4.1324
 Quadrupole moment (field-independent basis, Debye-Ang):
   XX=            -47.4682   YY=            -37.7469   ZZ=            -41.9567
   XY=              0.9387   XZ=              0.8587   YZ=              1.4687

  Exact polarizability:  71.142   0.306  49.074   0.087   0.961  46.804
 Approx polarizability: 113.941  -0.473  73.406  -0.173   2.177  74.409

                      1                      2                      3
                      A                      A                      A
 Frequencies --    177.8381               182.7389               505.5149
 Red. masses --      5.2321                 6.4739                 4.5655
 Frc consts  --      0.0975                 0.1274                 0.6874
 IR Inten    --      3.8366                 3.1489                 2.9302

                      4                      5                      6
                      A                      A                      A
 Frequencies --    515.9191               543.8667               580.6057
 Red. masses --      6.4820                 7.9825                 2.5049
 Frc consts  --      1.0165                 1.3911                 0.4975
 IR Inten    --      4.8272                 0.0723                 1.9762

                      7                      8                      9
                      A                      A                      A
 Frequencies --    656.5369               747.6309               800.8270
 Red. masses --      2.7322                 4.5919                 4.0456
 Frc consts  --      0.6939                 1.5122                 1.5287
 IR Inten    --     25.8739                 5.4965                 4.5192

                     10                     11                     12
                      A                      A                      A
 Frequencies --    916.2096               927.8397               961.5621
 Red. masses --      3.8589                 3.2241                 2.8751
 Frc consts  --      1.9086                 1.6353                 1.5662
 IR Inten    --     38.3428                14.3617                 3.6829

                     13                     14                     15
                      A                      A                      A
 Frequencies --    987.7345              1028.6212              1069.4320
 Red. masses --      5.3218                 1.3072                 1.2376
 Frc consts  --      3.0591                 0.8149                 0.8339
 IR Inten    --     17.9891                 4.9067                 7.5563

                     16                     17                     18
                      A                      A                      A
 Frequencies --   1152.5667              1172.2146              1198.8293
 Red. masses --      1.3545                 1.2841                 1.3741
 Frc consts  --      1.0601                 1.0396                 1.1636
 IR Inten    --     29.8537                19.5236                 7.0050

                     19                     20                     21
                      A                      A                      A
 Frequencies --   1238.6758              1258.7149              1287.7996
 Red. masses --      1.4144                 1.3095                 3.2985
 Frc consts  --      1.2786                 1.2224                 3.2231
 IR Inten    --     20.7203                47.0625                24.9294

                     22                     23                     24
                      A                      A                      A
 Frequencies --   1310.2073              1323.1130              1496.7549
 Red. masses --      1.8260                 1.3866                 1.1756
 Frc consts  --      1.8468                 1.4302                 1.5517
 IR Inten    --     37.9937                16.1912                 0.8412

                     25                     26                     27
                      A                      A                      A
 Frequencies --   2363.5571              3082.2060              3143.3777
 Red. masses --     12.6920                 1.0543                 1.0946
 Frc consts  --     41.7747                 5.9012                 6.3723
 IR Inten    --      0.1081                21.5256                31.3923

                     28                     29                     30
                      A                      A                      A
 Frequencies --   3164.1142              3364.2010              3395.5421
 Red. masses --      1.1141                 1.0738                 1.0726
 Frc consts  --      6.5719                 7.1606                 7.2864
 IR Inten    --     14.9169                 9.3631                 1.4598

 - Thermochemistry -
 -------------------
 Temperature   298.150 Kelvin.  Pressure   1.00000 Atm.
 Atom     1 has atomic number  7 and mass  14.00307

 Molecular mass:    95.04835 amu.
 Principal axes and moments of inertia in atomic units:
                           1         2         3
     Eigenvalues --   277.27851 847.51678 851.58029
           X            0.99995   0.00847   0.00461
           Y           -0.00946   0.95581   0.29384
           Z           -0.00192  -0.29387   0.95584
 This molecule is an asymmetric top.
 Rotational symmetry number  1.
 Rotational temperatures (Kelvin)      0.31237     0.10220     0.10171
 Rotational constants (GHZ):           6.50877     2.12945     2.11928
 Zero-point vibrational energy     242571.3 (Joules/Mol)
                                   57.97593 (Kcal/Mol)
 Warning -- explicit consideration of   6 degrees of freedom as
           vibrations may cause significant error
 Vibrational temperatures:    255.87   262.92   727.32   742.29   782.50
          (Kelvin)            835.36   944.61  1075.67  1152.21  1318.22
                             1334.95  1383.47  1421.13  1479.96  1538.67
                             1658.29  1686.56  1724.85  1782.18  1811.01
                             1852.86  1885.10  1903.66  2153.50  3400.63
                             4434.61  4522.62  4552.45  4840.33  4885.43

 Zero-point correction=                           0.092391 (Hartree/Particle)
 Thermal correction to Energy=                    0.097872
 Thermal correction to Enthalpy=                  0.098817
 Thermal correction to Gibbs Free Energy=         0.063155
 Sum of electronic and zero-point Energies=           -319.472896
 Sum of electronic and thermal Energies=              -319.467414
 Sum of electronic and thermal Enthalpies=            -319.466470
 Sum of electronic and thermal Free Energies=         -319.502131

                     E (Thermal)             CV                S
                      KCal/Mol        Cal/Mol-Kelvin    Cal/Mol-Kelvin
 Total                   61.416             20.617             75.056
 Electronic               0.000              0.000              0.000
 Translational            0.889              2.981             39.567
 Rotational               0.889              2.981             26.795
 Vibrational             59.638             14.656              8.695
 Vibration     1          0.628              1.870              2.351
 Vibration     2          0.630              1.863              2.300
 Vibration     3          0.861              1.238              0.644
 Vibration     4          0.871              1.215              0.619
 Vibration     5          0.899              1.153              0.557
 Vibration     6          0.937              1.073              0.484

 Optimization completed.
    -- Stationary point found.
 Normal termination of Gaussian 16 at Sun Jul  3 12:18:08 2022.
