 Gaussian 16, Revision A.03,
 Gaussian 16:  ES64L-G16RevA.03 25-Dec-2016

 -----------------------------
 # opt freq b3lyp/6-31g(2df,p)
 -----------------------------

 -------------------
 Title Card Required
 -------------------
 Symbolic Z-matrix:
 Charge =  0 Multiplicity = 1

 SCF Done:  E(RB3LYP) =  -399.495275041     A.U. after   15 cycles
 SCF Done:  E(RB3LYP) =  -399.517706424     A.U. after   12 cycles
 SCF Done:  E(RB3LYP) =  -399.517645742     A.U. after   12 cycles
 SCF Done:  E(RB3LYP) =  -399.517026204     A.U. after   12 cycles
 SCF Done:  E(RB3LYP) =  -399.515959331     A.U. after   12 cycles
 SCF Done:  E(RB3LYP) =  -399.518138860     A.U. after   10 cycles
 SCF Done:  E(RB3LYP) =  -399.519104482     A.U. after   12 cycles
 SCF Done:  E(RB3LYP) =  -399.517674978     A.U. after   14 cycles
 SCF Done:  E(RB3LYP) =  -399.519201705     A.U. after   10 cycles
 SCF Done:  E(RB3LYP) =  -399.519221421     A.U. after    9 cycles
 SCF Done:  E(RB3LYP) =  -399.519227438     A.U. after    9 cycles
 SCF Done:  E(RB3LYP) =  -399.519228516     A.U. after    7 cycles
 SCF Done:  E(RB3LYP) =  -399.519228687     A.U. after    6 cycles
 Optimization completed.
    -- Stationary point found.
 Normal termination of Gaussian 16 at Thu Aug  4 01:54:21 2022.

 ----------------------------------------------------------------------
 #N Geom=AllCheck Guess=TCheck SCRF=Check GenChk RB3LYP/6-31G(2df,p) Fr
 eq
 ----------------------------------------------------------------------

 Structure from the checkpoint file:  "NtCC1CCCpNpCN1.chk"
 -------------------
 Title Card Required
 -------------------
 Charge =  0 Multiplicity = 1

                         Standard orientation:
 ---------------------------------------------------------------------
 Center     Atomic      Atomic             Coordinates (Angstroms)
 Number     Number       Type             X           Y           Z
 ---------------------------------------------------------------------
      1          7           0        3.017831   -0.115876   -0.793169
      2          6           0        2.133547   -0.015252   -0.054442
      3          6           0        0.987238    0.056599    0.888240
      4          6           0        0.155313    1.334302    0.649693
      5          6           0       -0.646811    1.242850   -0.655199
      6          6           0       -1.484824   -0.048213   -0.714352
      7          7           0       -2.592194    0.018307    0.249356
      8          6           0       -0.550853   -1.254917   -0.498953
      9          7           0        0.113076   -1.113779    0.804199
     10          1           0        1.412567    0.089089    1.897342
     11          1           0        0.815232    2.206580    0.643349
     12          1           0       -0.523047    1.442703    1.501835
     13          1           0        0.043704    1.260389   -1.507261
     14          1           0       -1.308659    2.107955   -0.745705
     15          1           0       -1.924626   -0.126141   -1.714520
     16          1           0       -2.233714   -0.232009    1.168001
     17          1           0       -3.278988   -0.695186    0.022093
     18          1           0        0.167442   -1.329572   -1.333605
     19          1           0       -1.132827   -2.181965   -0.478295
     20          1           0        0.630265   -1.954617    1.034142
 ---------------------------------------------------------------------

 SCF Done:  E(RB3LYP) =  -399.519228687     A.U. after    1 cycles

 The electronic state is 1-A.
 Alpha  occ. eigenvalues --  -14.34094 -14.32708 -14.30729 -10.26072 -10.21521
 Alpha  occ. eigenvalues --  -10.21513 -10.21356 -10.19963 -10.18468  -0.94301
 Alpha  occ. eigenvalues --   -0.89623  -0.87775  -0.79353  -0.75413  -0.66433
 Alpha  occ. eigenvalues --   -0.64216  -0.57298  -0.54161  -0.50217  -0.49271
 Alpha  occ. eigenvalues --   -0.45759  -0.45041  -0.42344  -0.41599  -0.40795
 Alpha  occ. eigenvalues --   -0.39609  -0.36006  -0.35330  -0.34124  -0.33174
 Alpha  occ. eigenvalues --   -0.32331  -0.31512  -0.25649  -0.23746
 Alpha virt. eigenvalues --    0.02974   0.03524   0.06301   0.09812   0.10672
 Alpha virt. eigenvalues --    0.12445   0.13132   0.14036   0.15413   0.15468
 Alpha virt. eigenvalues --    0.17200   0.17441   0.18971   0.19600   0.21231

 Mulliken charges:
               1
     1  N   -0.334820
     2  C    0.265472
     3  C   -0.129513
     4  C   -0.203182
     5  C   -0.194783
     6  C    0.040653
     7  N   -0.514983
     8  C   -0.184826
     9  N   -0.286340
    10  H    0.123528
    11  H    0.115920
    12  H    0.118669
    13  H    0.111135
    14  H    0.110282
    15  H    0.075613
    16  H    0.229711
    17  H    0.223444
    18  H    0.105116
    19  H    0.095241
    20  H    0.233663
 Sum of Mulliken charges =  -0.00000

 Dipole moment (field-independent basis, Debye):
    X=             -2.1964    Y=             -1.1491    Z=              1.6415  Tot=              2.9731
 Quadrupole moment (field-independent basis, Debye-Ang):
   XX=            -67.5241   YY=            -50.7408   ZZ=            -53.4099
   XY=              3.8764   XZ=              7.3703   YZ=             -0.2984

  Exact polarizability:  90.394   1.766  72.172  -3.700   1.091  71.790
 Approx polarizability: 127.020   1.820 103.358 -14.437   1.490 116.014

                      1                      2                      3
                      A                      A                      A
 Frequencies --     94.7296               131.1098               168.6746
 Red. masses --      5.6080                 4.7340                 4.1462
 Frc consts  --      0.0297                 0.0479                 0.0695
 IR Inten    --      6.8802                 6.4339                 1.0543

                      4                      5                      6
                      A                      A                      A
 Frequencies --    251.0672               267.4886               322.2518
 Red. masses --      2.7542                 1.1356                 3.9886
 Frc consts  --      0.1023                 0.0479                 0.2440
 IR Inten    --      9.0547                37.9824                 0.5509

                      7                      8                      9
                      A                      A                      A
 Frequencies --    390.8682               408.2383               437.2174
 Red. masses --      2.4193                 1.9921                 2.8620
 Frc consts  --      0.2178                 0.1956                 0.3223
 IR Inten    --      3.1583                 2.7551                 6.1466

                     10                     11                     12
                      A                      A                      A
 Frequencies --    484.4052               599.3865               637.2348
 Red. masses --      2.8463                 5.6204                 4.2221
 Frc consts  --      0.3935                 1.1897                 1.0101
 IR Inten    --     11.2525                 1.7553                 3.6970

                     13                     14                     15
                      A                      A                      A
 Frequencies --    685.1776               766.2603               783.8800
 Red. masses --      2.1501                 1.6916                 3.7736
 Frc consts  --      0.5947                 0.5852                 1.3662
 IR Inten    --     28.4268                49.4810                 1.2456

                     16                     17                     18
                      A                      A                      A
 Frequencies --    837.6258               876.1636               897.2336
 Red. masses --      2.5983                 2.3941                 2.4332
 Frc consts  --      1.0741                 1.0828                 1.1541
 IR Inten    --     17.1861                20.0820                13.8435

                     19                     20                     21
                      A                      A                      A
 Frequencies --    913.1251               950.1407              1012.5401
 Red. masses --      1.5914                 2.0460                 1.8063
 Frc consts  --      0.7818                 1.0882                 1.0911
 IR Inten    --     79.3901                64.4911                 4.9421

                     22                     23                     24
                      A                      A                      A
 Frequencies --   1025.1801              1064.4211              1069.4315
 Red. masses --      1.8832                 1.6958                 2.0715
 Frc consts  --      1.1661                 1.1320                 1.3958
 IR Inten    --      6.9316                 1.5428                16.7603

                     25                     26                     27
                      A                      A                      A
 Frequencies --   1124.7199              1159.4591              1176.6497
 Red. masses --      1.8865                 2.3542                 1.1753
 Frc consts  --      1.4061                 1.8647                 0.9588
 IR Inten    --     13.1458                20.8650                 4.0059

                     28                     29                     30
                      A                      A                      A
 Frequencies --   1189.3864              1250.4164              1294.2716
 Red. masses --      1.4314                 1.2887                 1.3298
 Frc consts  --      1.1930                 1.1872                 1.3125
 IR Inten    --      7.1989                 1.2791                 1.7313

                     31                     32                     33
                      A                      A                      A
 Frequencies --   1306.0034              1334.5510              1345.0517
 Red. masses --      1.3302                 1.5242                 1.2951
 Frc consts  --      1.3368                 1.5995                 1.3805
 IR Inten    --      1.8344                 2.3687                16.8039

                     34                     35                     36
                      A                      A                      A
 Frequencies --   1365.7511              1384.9124              1401.5273
 Red. masses --      1.3858                 1.4499                 1.4173
 Frc consts  --      1.5230                 1.6384                 1.6403
 IR Inten    --      2.5453                 2.4225                 6.3472

                     37                     38                     39
                      A                      A                      A
 Frequencies --   1423.1910              1476.9333              1485.1086
 Red. masses --      1.3402                 1.0895                 1.1987
 Frc consts  --      1.5994                 1.4002                 1.5576
 IR Inten    --      9.8158                 5.4629                11.0557

                     40                     41                     42
                      A                      A                      A
 Frequencies --   1487.8818              1501.0062              1666.5278
 Red. masses --      1.1782                 1.0893                 1.0884
 Frc consts  --      1.5368                 1.4460                 1.7810
 IR Inten    --      1.4873                 1.5997                28.6493

                     43                     44                     45
                      A                      A                      A
 Frequencies --   2339.3605              2957.5219              3035.0088
 Red. masses --     12.6593                 1.0705                 1.0674
 Frc consts  --     40.8183                 5.5167                 5.7931
 IR Inten    --      2.7996                40.8587                 8.2853

                     46                     47                     48
                      A                      A                      A
 Frequencies --   3046.7906              3052.1463              3057.8287
 Red. masses --      1.0762                 1.0835                 1.0676
 Frc consts  --      5.8861                 5.9472                 5.8813
 IR Inten    --      4.6400                42.8601                28.0926

                     49                     50                     51
                      A                      A                      A
 Frequencies --   3069.0695              3096.2026              3102.1893
 Red. masses --      1.0912                 1.0988                 1.1042
 Frc consts  --      6.0557                 6.2063                 6.2607
 IR Inten    --     34.6376                18.2067                24.7969

                     52                     53                     54
                      A                      A                      A
 Frequencies --   3480.7212              3539.1499              3555.7668
 Red. masses --      1.0493                 1.0749                 1.0912
 Frc consts  --      7.4901                 7.9327                 8.1291
 IR Inten    --      1.2729                 1.9068                 1.3953

 - Thermochemistry -
 -------------------
 Temperature   298.150 Kelvin.  Pressure   1.00000 Atm.
 Atom     1 has atomic number  7 and mass  14.00307

 Molecular mass:   125.09530 amu.
 Principal axes and moments of inertia in atomic units:
                           1         2         3
     Eigenvalues --   587.702601475.840541606.02022
           X            0.99981   0.00937   0.01729
           Y           -0.00987   0.99954   0.02875
           Z           -0.01701  -0.02892   0.99944
 This molecule is an asymmetric top.
 Rotational symmetry number  1.
 Warning -- assumption of classical behavior for rotation
           may cause significant error
 Rotational temperatures (Kelvin)      0.14738     0.05869     0.05393
 Rotational constants (GHZ):           3.07084     1.22286     1.12374
 Zero-point vibrational energy     459240.1 (Joules/Mol)
                                  109.76103 (Kcal/Mol)
 Warning -- explicit consideration of  11 degrees of freedom as
           vibrations may cause significant error
 Vibrational temperatures:    136.29   188.64   242.69   361.23   384.86
          (Kelvin)            463.65   562.37   587.36   629.06   696.95
                              862.38   916.84   985.82  1102.48  1127.83
                             1205.16  1260.60  1290.92  1313.78  1367.04
                             1456.82  1475.01  1531.46  1538.67  1618.22
                             1668.20  1692.94  1711.26  1799.07  1862.17
                             1879.05  1920.12  1935.23  1965.01  1992.58
                             2016.49  2047.65  2124.98  2136.74  2140.73
                             2159.61  2397.76  3365.82  4255.21  4366.70
                             4383.65  4391.36  4399.53  4415.71  4454.74
                             4463.36  5007.98  5092.05  5115.96

 Zero-point correction=                           0.174915 (Hartree/Particle)
 Thermal correction to Energy=                    0.183434
 Thermal correction to Enthalpy=                  0.184378
 Thermal correction to Gibbs Free Energy=         0.141967
 Sum of electronic and zero-point Energies=           -399.344313
 Sum of electronic and thermal Energies=              -399.335795
 Sum of electronic and thermal Enthalpies=            -399.334851
 Sum of electronic and thermal Free Energies=         -399.377262

                     E (Thermal)             CV                S
                      KCal/Mol        Cal/Mol-Kelvin    Cal/Mol-Kelvin
 Total                  115.106             33.014             89.262
 Electronic               0.000              0.000              0.000
 Translational            0.889              2.981             40.385
 Rotational               0.889              2.981             28.723
 Vibrational            113.329             27.052             20.154
 Vibration     1          0.603              1.953              3.560
 Vibration     2          0.612              1.922              2.930
 Vibration     3          0.625              1.881              2.450
 Vibration     4          0.663              1.761              1.723
 Vibration     5          0.673              1.733              1.612
 Vibration     6          0.707              1.631              1.299
 Vibration     7          0.759              1.490              0.997
 Vibration     8          0.773              1.452              0.933
 Vibration     9          0.798              1.389              0.835
 Vibration    10          0.841              1.285              0.698
 Vibration    11          0.957              1.033              0.451

 Optimization completed.
    -- Stationary point found.
 Normal termination of Gaussian 16 at Thu Aug  4 02:31:01 2022.
