 Gaussian 16, Revision A.03,
 Gaussian 16:  ES64L-G16RevA.03 25-Dec-2016

 -----------------------------
 # opt freq b3lyp/6-31g(2df,p)
 -----------------------------

 -------------------
 Title Card Required
 -------------------
 Symbolic Z-matrix:
 Charge =  0 Multiplicity = 1

 SCF Done:  E(RB3LYP) =  -413.086392564     A.U. after   15 cycles
 SCF Done:  E(RB3LYP) =  -413.099567271     A.U. after   13 cycles
 SCF Done:  E(RB3LYP) =  -413.100258704     A.U. after   13 cycles
 SCF Done:  E(RB3LYP) =  -413.096968506     A.U. after   15 cycles
 SCF Done:  E(RB3LYP) =  -413.101950192     A.U. after   13 cycles
 SCF Done:  E(RB3LYP) =  -413.101887172     A.U. after   14 cycles
 SCF Done:  E(RB3LYP) =  -413.102800812     A.U. after   12 cycles
 SCF Done:  E(RB3LYP) =  -413.103340597     A.U. after   15 cycles
 SCF Done:  E(RB3LYP) =  -413.103677610     A.U. after   15 cycles
 SCF Done:  E(RB3LYP) =  -413.103898103     A.U. after   13 cycles
 SCF Done:  E(RB3LYP) =  -413.104095390     A.U. after   12 cycles
 SCF Done:  E(RB3LYP) =  -413.104202320     A.U. after   12 cycles
 SCF Done:  E(RB3LYP) =  -413.104233520     A.U. after   11 cycles
 SCF Done:  E(RB3LYP) =  -413.104245207     A.U. after   11 cycles
 SCF Done:  E(RB3LYP) =  -413.104248186     A.U. after    8 cycles
 SCF Done:  E(RB3LYP) =  -413.104256554     A.U. after   11 cycles
 SCF Done:  E(RB3LYP) =  -413.104258485     A.U. after   10 cycles
 SCF Done:  E(RB3LYP) =  -413.104259565     A.U. after    9 cycles
 SCF Done:  E(RB3LYP) =  -413.104259712     A.U. after    7 cycles
 Optimization completed.
    -- Stationary point found.
 Normal termination of Gaussian 16 at Thu Aug  4 14:18:34 2022.

 ----------------------------------------------------------------------
 #N Geom=AllCheck Guess=TCheck SCRF=Check GenChk RB3LYP/6-31G(2df,p) Fr
 eq
 ----------------------------------------------------------------------

 Structure from the checkpoint file:  "NtCN1CdNCpCdNpC1.chk"
 -------------------
 Title Card Required
 -------------------
 Charge =  0 Multiplicity = 1

                         Standard orientation:
 ---------------------------------------------------------------------
 Center     Atomic      Atomic             Coordinates (Angstroms)
 Number     Number       Type             X           Y           Z
 ---------------------------------------------------------------------
      1          7           0       -3.428557   -0.817899   -0.277459
      2          6           0       -2.358804   -0.395999   -0.112376
      3          7           0       -1.134277    0.080823    0.090296
      4          6           0       -0.668133    1.351966   -0.265375
      5          7           0        0.556969    1.583701   -0.037613
      6          6           0        1.141352    0.361584    0.553543
      7          6           0        2.389029   -0.036668   -0.222731
      8          7           0        2.817923   -1.192558   -0.508318
      9          6           0        0.003696   -0.701151    0.611551
     10          1           0       -1.369246    2.053227   -0.703819
     11          1           0        1.479806    0.617064    1.567279
     12          1           0        2.981570    0.826529   -0.538357
     13          1           0        2.195597   -1.932261   -0.168147
     14          1           0       -0.207448   -1.056801    1.621805
     15          1           0        0.192478   -1.564611   -0.034784
 ---------------------------------------------------------------------

 SCF Done:  E(RB3LYP) =  -413.104259712     A.U. after    1 cycles

 The electronic state is 1-A.
 Alpha  occ. eigenvalues --  -14.42515 -14.34755 -14.33796 -14.33760 -10.28973
 Alpha  occ. eigenvalues --  -10.26767 -10.26093 -10.25737 -10.24941  -1.04354
 Alpha  occ. eigenvalues --   -0.94389  -0.91915  -0.89377  -0.79787  -0.71137
 Alpha  occ. eigenvalues --   -0.66244  -0.60551  -0.59902  -0.53692  -0.49010
 Alpha  occ. eigenvalues --   -0.48250  -0.46215  -0.44412  -0.41947  -0.41049
 Alpha  occ. eigenvalues --   -0.37284  -0.35306  -0.35174  -0.33248  -0.30470
 Alpha  occ. eigenvalues --   -0.28225  -0.25608
 Alpha virt. eigenvalues --   -0.03012  -0.01130   0.00771   0.05953   0.06621
 Alpha virt. eigenvalues --    0.07554   0.10254   0.11039   0.13272   0.14712
 Alpha virt. eigenvalues --    0.16569   0.16989   0.18978   0.24370   0.26240

 Mulliken charges:
               1
     1  N   -0.338698
     2  C    0.361927
     3  N   -0.181826
     4  C    0.070876
     5  N   -0.255106
     6  C   -0.032154
     7  C    0.055419
     8  N   -0.384518
     9  C   -0.237373
    10  H    0.169068
    11  H    0.128664
    12  H    0.135482
    13  H    0.222325
    14  H    0.148533
    15  H    0.137381
 Sum of Mulliken charges =  -0.00000

 Dipole moment (field-independent basis, Debye):
    X=              1.2135    Y=              0.6186    Z=              1.8900  Tot=              2.3297
 Quadrupole moment (field-independent basis, Debye-Ang):
   XX=            -73.4073   YY=            -52.2935   ZZ=            -50.2269
   XY=             -4.0977   XZ=              2.7831   YZ=             -2.8794

  Exact polarizability: 103.376   5.552  71.966   2.961  -1.318  48.630
 Approx polarizability: 157.210  18.349 119.371   7.083   1.511  76.370

                      1                      2                      3
                      A                      A                      A
 Frequencies --     47.3440                85.1529                94.6715
 Red. masses --      4.3643                 3.9737                 2.7749
 Frc consts  --      0.0058                 0.0170                 0.0147
 IR Inten    --      4.3729                 1.5132                 0.9655

                      4                      5                      6
                      A                      A                      A
 Frequencies --    154.7737               262.2747               332.6632
 Red. masses --      6.8744                 4.3852                 2.5264
 Frc consts  --      0.0970                 0.1777                 0.1647
 IR Inten    --     10.9117                 3.3875                 0.4864

                      7                      8                      9
                      A                      A                      A
 Frequencies --    507.4304               521.8519               540.6810
 Red. masses --      4.6348                11.6234                 5.1145
 Frc consts  --      0.7031                 1.8650                 0.8809
 IR Inten    --     13.8071                 8.6375                 7.6056

                     10                     11                     12
                      A                      A                      A
 Frequencies --    578.3656               591.6511               730.4689
 Red. masses --      3.0108                 5.9717                 3.6634
 Frc consts  --      0.5934                 1.2316                 1.1517
 IR Inten    --     18.4752                 9.0119                10.7322

                     13                     14                     15
                      A                      A                      A
 Frequencies --    792.4303               867.2039               915.8223
 Red. masses --      4.1550                 2.1486                 5.4451
 Frc consts  --      1.5373                 0.9520                 2.6908
 IR Inten    --      3.8724                 2.1495                28.1731

                     16                     17                     18
                      A                      A                      A
 Frequencies --    945.1911               999.2850              1046.1606
 Red. masses --      1.3784                 3.6164                 1.8748
 Frc consts  --      0.7255                 2.1277                 1.2090
 IR Inten    --      6.0018                37.5992                 0.7048

                     19                     20                     21
                      A                      A                      A
 Frequencies --   1062.4915              1142.2842              1199.4407
 Red. masses --      2.5568                 1.1009                 4.4414
 Frc consts  --      1.7006                 0.8464                 3.7647
 IR Inten    --     11.0980                46.5524                89.1547

                     22                     23                     24
                      A                      A                      A
 Frequencies --   1215.3150              1223.0822              1272.2113
 Red. masses --      1.1825                 1.1856                 1.3747
 Frc consts  --      1.0290                 1.0449                 1.3109
 IR Inten    --     28.3869                82.1339                11.0846

                     25                     26                     27
                      A                      A                      A
 Frequencies --   1282.0160              1317.3539              1352.6456
 Red. masses --      1.8040                 1.4296                 1.5962
 Frc consts  --      1.7469                 1.4617                 1.7207
 IR Inten    --     63.8615                 8.6217                 9.7117

                     28                     29                     30
                      A                      A                      A
 Frequencies --   1401.8867              1408.0873              1517.0891
 Red. masses --      2.0751                 1.3052                 1.0886
 Frc consts  --      2.4027                 1.5247                 1.4762
 IR Inten    --     49.8326                10.5124                 8.9924

                     31                     32                     33
                      A                      A                      A
 Frequencies --   1702.8604              1732.7815              2346.9563
 Red. masses --      8.0826                 8.7001                12.6084
 Frc consts  --     13.8089                15.3909                40.9186
 IR Inten    --    168.1916                73.6832               205.5098

                     34                     35                     36
                      A                      A                      A
 Frequencies --   3011.0357              3048.2961              3102.8103
 Red. masses --      1.0830                 1.0622                 1.0887
 Frc consts  --      5.7853                 5.8155                 6.1753
 IR Inten    --     12.9682                15.6319                17.8425

                     37                     38                     39
                      A                      A                      A
 Frequencies --   3108.7878              3214.8056              3412.8208
 Red. masses --      1.1037                 1.0977                 1.0736
 Frc consts  --      6.2849                 6.6839                 7.3675
 IR Inten    --     11.4953                 1.0754                 4.4526

 - Thermochemistry -
 -------------------
 Temperature   298.150 Kelvin.  Pressure   1.00000 Atm.
 Atom     1 has atomic number  7 and mass  14.00307

 Molecular mass:   122.05925 amu.
 Principal axes and moments of inertia in atomic units:
                           1         2         3
     Eigenvalues --   460.421581759.347362073.71854
           X            0.99994  -0.01030   0.00250
           Y            0.01036   0.99961  -0.02574
           Z           -0.00224   0.02577   0.99967
 This molecule is an asymmetric top.
 Rotational symmetry number  1.
 Warning -- assumption of classical behavior for rotation
           may cause significant error
 Rotational temperatures (Kelvin)      0.18812     0.04923     0.04177
 Rotational constants (GHZ):           3.91976     1.02580     0.87029
 Zero-point vibrational energy     299595.6 (Joules/Mol)
                                   71.60508 (Kcal/Mol)
 Warning -- explicit consideration of  11 degrees of freedom as
           vibrations may cause significant error
 Vibrational temperatures:     68.12   122.52   136.21   222.68   377.35
          (Kelvin)            478.63   730.08   750.83   777.92   832.14
                              851.25  1050.98  1140.13  1247.71  1317.66
                             1359.92  1437.75  1505.19  1528.69  1643.49
                             1725.73  1748.57  1759.74  1830.43  1844.54
                             1895.38  1946.16  2017.00  2025.92  2182.75
                             2450.04  2493.09  3376.75  4332.21  4385.82
                             4464.25  4472.85  4625.39  4910.29

 Zero-point correction=                           0.114110 (Hartree/Particle)
 Thermal correction to Energy=                    0.122308
 Thermal correction to Enthalpy=                  0.123252
 Thermal correction to Gibbs Free Energy=         0.079914
 Sum of electronic and zero-point Energies=           -412.990150
 Sum of electronic and thermal Energies=              -412.981951
 Sum of electronic and thermal Enthalpies=            -412.981007
 Sum of electronic and thermal Free Energies=         -413.024346

                     E (Thermal)             CV                S
                      KCal/Mol        Cal/Mol-Kelvin    Cal/Mol-Kelvin
 Total                   76.750             28.519             91.214
 Electronic               0.000              0.000              0.000
 Translational            0.889              2.981             40.312
 Rotational               0.889              2.981             28.909
 Vibrational             74.972             22.557             21.993
 Vibration     1          0.595              1.979              4.925
 Vibration     2          0.601              1.959              3.768
 Vibration     3          0.603              1.953              3.561
 Vibration     4          0.620              1.897              2.613
 Vibration     5          0.670              1.742              1.647
 Vibration     6          0.715              1.610              1.247
 Vibration     7          0.863              1.234              0.640
 Vibration     8          0.877              1.202              0.606
 Vibration     9          0.896              1.160              0.564
 Vibration    10          0.935              1.078              0.488
 Vibration    11          0.949              1.050              0.464

 Optimization completed.
    -- Stationary point found.
 Normal termination of Gaussian 16 at Thu Aug  4 14:46:29 2022.
