 Gaussian 16, Revision A.03,
 Gaussian 16:  ES64L-G16RevA.03 25-Dec-2016

 -----------------------------
 # opt freq b3lyp/6-31g(2df,p)
 -----------------------------

 -------------------
 Title Card Required
 -------------------
 Symbolic Z-matrix:
 Charge =  0 Multiplicity = 1

 SCF Done:  E(RB3LYP) =  -388.530795953     A.U. after   12 cycles
 SCF Done:  E(RB3LYP) =  -388.533287894     A.U. after   10 cycles
 SCF Done:  E(RB3LYP) =  -388.533446981     A.U. after    8 cycles
 SCF Done:  E(RB3LYP) =  -388.533464033     A.U. after    7 cycles
 SCF Done:  E(RB3LYP) =  -388.533470876     A.U. after    7 cycles
 SCF Done:  E(RB3LYP) =  -388.533472068     A.U. after    7 cycles
 SCF Done:  E(RB3LYP) =  -388.533475993     A.U. after    7 cycles
 SCF Done:  E(RB3LYP) =  -388.533492394     A.U. after   10 cycles
 SCF Done:  E(RB3LYP) =  -388.533497991     A.U. after    8 cycles
 SCF Done:  E(RB3LYP) =  -388.533504374     A.U. after    8 cycles
 SCF Done:  E(RB3LYP) =  -388.533504759     A.U. after    7 cycles
 SCF Done:  E(RB3LYP) =  -388.533504807     A.U. after    7 cycles
 SCF Done:  E(RB3LYP) =  -388.533505490     A.U. after    7 cycles
 SCF Done:  E(RB3LYP) =  -388.533505506     A.U. after    6 cycles
 Optimization completed.
    -- Stationary point found.
 Normal termination of Gaussian 16 at Thu Aug  4 16:20:11 2022.

 ----------------------------------------------------------------------
 #N Geom=AllCheck Guess=TCheck SCRF=Check GenChk RB3LYP/6-31G(2df,p) Fr
 eq
 ----------------------------------------------------------------------

 Structure from the checkpoint file:  "OC1CC2CCC1CC2.chk"
 -------------------
 Title Card Required
 -------------------
 Charge =  0 Multiplicity = 1

                         Standard orientation:
 ---------------------------------------------------------------------
 Center     Atomic      Atomic             Coordinates (Angstroms)
 Number     Number       Type             X           Y           Z
 ---------------------------------------------------------------------
      1          8           0        2.440229   -0.011324    0.032964
      2          6           0        1.187169   -0.072497   -0.642939
      3          6           0        0.433550    1.290010   -0.638376
      4          6           0       -0.984420    1.110707   -0.062846
      5          6           0       -1.724532    0.030483   -0.874114
      6          6           0       -0.968678   -1.324991   -0.743478
      7          6           0        0.325386   -1.125359    0.067143
      8          6           0       -0.015970   -0.637654    1.487617
      9          6           0       -0.877638    0.656033    1.405018
     10          1           0        2.957472    0.695655   -0.365086
     11          1           0        1.350533   -0.401790   -1.681448
     12          1           0        0.384981    1.712521   -1.648394
     13          1           0        0.997240    1.995680   -0.016311
     14          1           0       -1.529768    2.058759   -0.121862
     15          1           0       -1.790886    0.338065   -1.923806
     16          1           0       -2.754121   -0.063082   -0.512573
     17          1           0       -0.732763   -1.734248   -1.732122
     18          1           0       -1.593821   -2.070709   -0.241233
     19          1           0        0.891007   -2.061053    0.117501
     20          1           0        0.914405   -0.450218    2.028683
     21          1           0       -0.548393   -1.426945    2.028466
     22          1           0       -0.434202    1.454168    2.010237
     23          1           0       -1.882727    0.483393    1.806084
 ---------------------------------------------------------------------

 SCF Done:  E(RB3LYP) =  -388.533505506     A.U. after    1 cycles

 The electronic state is 1-A.
 Alpha  occ. eigenvalues --  -19.12778 -10.22113 -10.17869 -10.17322 -10.17296
 Alpha  occ. eigenvalues --  -10.17273 -10.17266 -10.16969 -10.16557  -1.00951
 Alpha  occ. eigenvalues --   -0.84464  -0.74688  -0.72944  -0.72139  -0.60793
 Alpha  occ. eigenvalues --   -0.60172  -0.57999  -0.50478  -0.49441  -0.48390
 Alpha  occ. eigenvalues --   -0.46787  -0.43390  -0.40209  -0.38888  -0.38040
 Alpha  occ. eigenvalues --   -0.36979  -0.36638  -0.36513  -0.35087  -0.32975
 Alpha  occ. eigenvalues --   -0.32031  -0.29385  -0.28368  -0.27650  -0.25540
 Alpha virt. eigenvalues --    0.07081   0.08793   0.11271   0.11772   0.13724
 Alpha virt. eigenvalues --    0.14231   0.15460   0.16759   0.17174   0.17889
 Alpha virt. eigenvalues --    0.18343   0.18784   0.19826   0.20730   0.21525

 Mulliken charges:
               1
     1  O   -0.448553
     2  C    0.149803
     3  C   -0.249038
     4  C    0.013280
     5  C   -0.201763
     6  C   -0.219977
     7  C    0.004350
     8  C   -0.208243
     9  C   -0.203189
    10  H    0.277592
    11  H    0.053918
    12  H    0.086713
    13  H    0.089048
    14  H    0.053287
    15  H    0.088056
    16  H    0.091505
    17  H    0.091319
    18  H    0.093510
    19  H    0.062669
    20  H    0.112593
    21  H    0.085226
    22  H    0.090684
    23  H    0.087211
 Sum of Mulliken charges =   0.00000

 Dipole moment (field-independent basis, Debye):
    X=             -0.3510    Y=              0.8983    Z=             -0.9261  Tot=              1.3371
 Quadrupole moment (field-independent basis, Debye-Ang):
   XX=            -56.1924   YY=            -55.2615   ZZ=            -55.9094
   XY=              3.4478   XZ=             -2.5929   YZ=             -0.5207

  Exact polarizability:  86.090   1.380  81.625  -0.219  -0.377  81.224
 Approx polarizability: 120.789   2.434 117.261   0.271  -0.908 118.350

                      1                      2                      3
                      A                      A                      A
 Frequencies --     45.0548               208.1826               259.8388
 Red. masses --      2.3757                 2.2840                 1.7947
 Frc consts  --      0.0028                 0.0583                 0.0714
 IR Inten    --      0.6682                 0.9471                 0.9677

                      4                      5                      6
                      A                      A                      A
 Frequencies --    282.0159               311.6209               359.9320
 Red. masses --      1.0689                 2.6209                 2.3231
 Frc consts  --      0.0501                 0.1500                 0.1773
 IR Inten    --     96.5908                 3.9972                 0.3362

                      7                      8                      9
                      A                      A                      A
 Frequencies --    403.8819               443.7372               504.8761
 Red. masses --      2.4421                 3.7039                 4.2099
 Frc consts  --      0.2347                 0.4297                 0.6323
 IR Inten    --      5.7419                 2.3913                 0.8843

                     10                     11                     12
                      A                      A                      A
 Frequencies --    581.2434               636.6537               777.6258
 Red. masses --      3.3137                 5.3831                 2.2896
 Frc consts  --      0.6596                 1.2856                 0.8157
 IR Inten    --      2.7275                 1.1382                 0.4192

                     13                     14                     15
                      A                      A                      A
 Frequencies --    802.6231               815.6266               819.4187
 Red. masses --      1.8118                 2.1483                 1.7002
 Frc consts  --      0.6877                 0.8420                 0.6726
 IR Inten    --      0.4384                 3.1365                 0.5463

                     16                     17                     18
                      A                      A                      A
 Frequencies --    856.3047               874.8976               918.6941
 Red. masses --      1.8763                 2.5945                 1.8420
 Frc consts  --      0.8106                 1.1701                 0.9160
 IR Inten    --      5.2301                 0.6003                 1.8982

                     19                     20                     21
                      A                      A                      A
 Frequencies --    945.8263               963.3690               988.1121
 Red. masses --      2.2724                 2.0098                 3.1838
 Frc consts  --      1.1977                 1.0990                 1.8315
 IR Inten    --      1.8582                 4.2476                 2.9064

                     22                     23                     24
                      A                      A                      A
 Frequencies --   1028.1332              1054.5174              1056.1245
 Red. masses --      2.2346                 2.4152                 2.4046
 Frc consts  --      1.3917                 1.5823                 1.5802
 IR Inten    --     22.6817                32.2335                 4.6784

                     25                     26                     27
                      A                      A                      A
 Frequencies --   1077.0372              1114.6776              1125.2149
 Red. masses --      2.3161                 1.6787                 1.7468
 Frc consts  --      1.5830                 1.2289                 1.3031
 IR Inten    --      3.6479                10.6455                 6.0514

                     28                     29                     30
                      A                      A                      A
 Frequencies --   1150.7510              1167.0884              1174.7297
 Red. masses --      1.1455                 1.1212                 1.1260
 Frc consts  --      0.8937                 0.8998                 0.9155
 IR Inten    --     12.6546                 7.5450                 9.3750

                     31                     32                     33
                      A                      A                      A
 Frequencies --   1231.3873              1258.7859              1263.5829
 Red. masses --      1.1021                 1.2118                 1.1648
 Frc consts  --      0.9846                 1.1313                 1.0957
 IR Inten    --     14.4234                 1.4150                 0.3644

                     34                     35                     36
                      A                      A                      A
 Frequencies --   1287.8044              1302.9125              1336.8963
 Red. masses --      1.5004                 1.5611                 1.6504
 Frc consts  --      1.4660                 1.5614                 1.7380
 IR Inten    --      8.9898                 9.2463                 4.5590

                     37                     38                     39
                      A                      A                      A
 Frequencies --   1339.5865              1348.0210              1355.0475
 Red. masses --      1.3127                 1.4194                 1.4224
 Frc consts  --      1.3879                 1.5196                 1.5388
 IR Inten    --      2.4744                 0.8592                 0.5293

                     40                     41                     42
                      A                      A                      A
 Frequencies --   1360.9846              1370.7595              1384.7419
 Red. masses --      1.4990                 1.4732                 1.4042
 Frc consts  --      1.6359                 1.6310                 1.5864
 IR Inten    --      6.4678                 1.4182                 4.5074

                     43                     44                     45
                      A                      A                      A
 Frequencies --   1398.3819              1431.6449              1479.9069
 Red. masses --      1.4268                 1.5144                 1.0931
 Frc consts  --      1.6438                 1.8288                 1.4106
 IR Inten    --      7.3792                 5.1028                 1.5658

                     46                     47                     48
                      A                      A                      A
 Frequencies --   1482.2127              1492.8645              1499.4337
 Red. masses --      1.0750                 1.0825                 1.0966
 Frc consts  --      1.3914                 1.4214                 1.4526
 IR Inten    --      0.2097                 1.9031                 5.6418

                     49                     50                     51
                      A                      A                      A
 Frequencies --   1516.3832              2959.2275              3021.6411
 Red. masses --      1.0966                 1.0839                 1.0626
 Frc consts  --      1.4856                 5.5925                 5.7160
 IR Inten    --      1.9514                54.1589                23.3627

                     52                     53                     54
                      A                      A                      A
 Frequencies --   3024.5365              3026.8141              3035.9741
 Red. masses --      1.0617                 1.0608                 1.0654
 Frc consts  --      5.7221                 5.7262                 5.7855
 IR Inten    --     15.0520                14.2771                54.5191

                     55                     56                     57
                      A                      A                      A
 Frequencies --   3044.5332              3048.5147              3056.8649
 Red. masses --      1.0696                 1.0787                 1.1034
 Frc consts  --      5.8412                 5.9063                 6.0746
 IR Inten    --     54.3127                93.3393                 5.9775

                     58                     59                     60
                      A                      A                      A
 Frequencies --   3060.6714              3063.3292              3067.7611
 Red. masses --      1.0869                 1.0985                 1.1024
 Frc consts  --      5.9989                 6.0736                 6.1125
 IR Inten    --     14.1123                27.5185                35.3364

                     61                     62                     63
                      A                      A                      A
 Frequencies --   3080.9802              3101.9789              3817.9821
 Red. masses --      1.1040                 1.0999                 1.0663
 Frc consts  --      6.1742                 6.2357                 9.1579
 IR Inten    --     68.8820                32.2728                15.4176

 - Thermochemistry -
 -------------------
 Temperature   298.150 Kelvin.  Pressure   1.00000 Atm.
 Atom     1 has atomic number  8 and mass  15.99491

 Molecular mass:   126.10447 amu.
 Principal axes and moments of inertia in atomic units:
                           1         2         3
     Eigenvalues --   763.767921149.120451166.57948
           X            0.99979   0.01951  -0.00661
           Y           -0.01960   0.99971  -0.01373
           Z            0.00634   0.01386   0.99988
 This molecule is an asymmetric top.
 Rotational symmetry number  1.
 Warning -- assumption of classical behavior for rotation
           may cause significant error
 Rotational temperatures (Kelvin)      0.11340     0.07537     0.07425
 Rotational constants (GHZ):           2.36294     1.57054     1.54704
 Zero-point vibrational energy     552076.3 (Joules/Mol)
                                  131.94941 (Kcal/Mol)
 Warning -- explicit consideration of  10 degrees of freedom as
           vibrations may cause significant error
 Vibrational temperatures:     64.82   299.53   373.85   405.76   448.35
          (Kelvin)            517.86   581.10   638.44   726.40   836.28
                              916.00  1118.83  1154.80  1173.50  1178.96
                             1232.03  1258.78  1321.80  1360.83  1386.07
                             1421.67  1479.25  1517.22  1519.53  1549.62
                             1603.77  1618.93  1655.67  1679.18  1690.17
                             1771.69  1811.11  1818.01  1852.86  1874.60
                             1923.50  1927.37  1939.50  1949.61  1958.15
                             1972.22  1992.33  2011.96  2059.82  2129.26
                             2132.57  2147.90  2157.35  2181.74  4257.67
                             4347.47  4351.63  4354.91  4368.09  4380.40
                             4386.13  4398.15  4403.62  4407.45  4413.82
                             4432.84  4463.06  5493.22

 Zero-point correction=                           0.210275 (Hartree/Particle)
 Thermal correction to Energy=                    0.218278
 Thermal correction to Enthalpy=                  0.219222
 Thermal correction to Gibbs Free Energy=         0.177693
 Sum of electronic and zero-point Energies=           -388.323231
 Sum of electronic and thermal Energies=              -388.315227
 Sum of electronic and thermal Enthalpies=            -388.314283
 Sum of electronic and thermal Free Energies=         -388.355813

                     E (Thermal)             CV                S
                      KCal/Mol        Cal/Mol-Kelvin    Cal/Mol-Kelvin
 Total                  136.972             32.705             87.406
 Electronic               0.000              0.000              0.000
 Translational            0.889              2.981             40.409
 Rotational               0.889              2.981             28.417
 Vibrational            135.194             26.743             18.580
 Vibration     1          0.595              1.979              5.023
 Vibration     2          0.641              1.828              2.060
 Vibration     3          0.668              1.746              1.663
 Vibration     4          0.681              1.707              1.521
 Vibration     5          0.700              1.652              1.354
 Vibration     6          0.734              1.555              1.122
 Vibration     7          0.769              1.462              0.948
 Vibration     8          0.803              1.375              0.815
 Vibration     9          0.860              1.239              0.646
 Vibration    10          0.938              1.072              0.483

 Optimization completed.
    -- Stationary point found.
 Normal termination of Gaussian 16 at Thu Aug  4 17:10:20 2022.
