 Gaussian 16, Revision A.03,
 Gaussian 16:  ES64L-G16RevA.03 25-Dec-2016

 -----------------------------
 # opt freq b3lyp/6-31g(2df,p)
 -----------------------------

 -------------------
 Title Card Required
 -------------------
 Symbolic Z-matrix:
 Charge =  0 Multiplicity = 1

 SCF Done:  E(RB3LYP) =  -365.171574649     A.U. after   13 cycles
 SCF Done:  E(RB3LYP) =  -365.186619666     A.U. after   10 cycles
 SCF Done:  E(RB3LYP) =  -365.188132229     A.U. after   10 cycles
 SCF Done:  E(RB3LYP) =  -365.188440198     A.U. after   10 cycles
 SCF Done:  E(RB3LYP) =  -365.188562752     A.U. after   10 cycles
 SCF Done:  E(RB3LYP) =  -365.188591113     A.U. after   10 cycles
 SCF Done:  E(RB3LYP) =  -365.188608959     A.U. after    9 cycles
 SCF Done:  E(RB3LYP) =  -365.188612759     A.U. after    8 cycles
 SCF Done:  E(RB3LYP) =  -365.188613495     A.U. after    7 cycles
 SCF Done:  E(RB3LYP) =  -365.188613641     A.U. after    7 cycles
 SCF Done:  E(RB3LYP) =  -365.188613679     A.U. after    6 cycles
 Optimization completed.
    -- Stationary point found.
 Normal termination of Gaussian 16 at Sun Jul  3 12:12:20 2022.

 ----------------------------------------------------------------------
 #N Geom=AllCheck Guess=TCheck SCRF=Check GenChk RB3LYP/6-31G(2df,p) Fr
 eq
 ----------------------------------------------------------------------

 Structure from the checkpoint file:  "OC1CNC12CCC2.chk"
 -------------------
 Title Card Required
 -------------------
 Charge =  0 Multiplicity = 1

                         Standard orientation:
 ---------------------------------------------------------------------
 Center     Atomic      Atomic             Coordinates (Angstroms)
 Number     Number       Type             X           Y           Z
 ---------------------------------------------------------------------
      1          8           0       -1.270911    1.652898    0.034828
      2          6           0       -0.981181    0.415438   -0.575369
      3          6           0       -1.856089   -0.785675   -0.125183
      4          7           0       -0.754007   -1.237034    0.753703
      5          6           0        0.201330   -0.307198    0.128946
      6          6           0        1.211796    0.515527    0.958219
      7          6           0        2.213065    0.405438   -0.224408
      8          6           0        1.374277   -0.780951   -0.773261
      9          1           0       -2.089893    1.990106   -0.341546
     10          1           0       -0.867575    0.527216   -1.661976
     11          1           0       -2.112532   -1.466873   -0.947583
     12          1           0       -2.772751   -0.517516    0.413492
     13          1           0       -0.509828   -2.218892    0.684303
     14          1           0        1.539641   -0.056832    1.831316
     15          1           0        0.888536    1.506989    1.277528
     16          1           0        3.260149    0.208305    0.014007
     17          1           0        2.164894    1.277592   -0.881834
     18          1           0        1.766563   -1.742701   -0.424175
     19          1           0        1.198944   -0.846813   -1.851749
 ---------------------------------------------------------------------

 SCF Done:  E(RB3LYP) =  -365.188613679     A.U. after    1 cycles

 The electronic state is 1-A.
 Alpha  occ. eigenvalues --  -19.13718 -14.30369 -10.22848 -10.20644 -10.20028
 Alpha  occ. eigenvalues --  -10.17575 -10.17442 -10.16328  -1.02179  -0.91718
 Alpha  occ. eigenvalues --   -0.81749  -0.69881  -0.65346  -0.64903  -0.58203
 Alpha  occ. eigenvalues --   -0.53322  -0.51174  -0.49121  -0.46875  -0.43064
 Alpha  occ. eigenvalues --   -0.41405  -0.39194  -0.37603  -0.36840  -0.35096
 Alpha  occ. eigenvalues --   -0.33807  -0.31537  -0.30316  -0.28532  -0.26099
 Alpha  occ. eigenvalues --   -0.21339
 Alpha virt. eigenvalues --    0.07244   0.08722   0.09863   0.11080   0.12798
 Alpha virt. eigenvalues --    0.13800   0.15409   0.16490   0.18194   0.18465
 Alpha virt. eigenvalues --    0.18889   0.19865   0.21010   0.22575   0.23320

 Mulliken charges:
               1
     1  O   -0.427580
     2  C    0.051643
     3  C   -0.198077
     4  N   -0.368581
     5  C    0.376469
     6  C   -0.268012
     7  C   -0.210083
     8  C   -0.294959
     9  H    0.284774
    10  H    0.062852
    11  H    0.087779
    12  H    0.094164
    13  H    0.209427
    14  H    0.097629
    15  H    0.117193
    16  H    0.094863
    17  H    0.105599
    18  H    0.094642
    19  H    0.090259
 Sum of Mulliken charges =  -0.00000

 Dipole moment (field-independent basis, Debye):
    X=             -0.7083    Y=             -0.6609    Z=             -1.8890  Tot=              2.1229
 Quadrupole moment (field-independent basis, Debye-Ang):
   XX=            -44.9626   YY=            -46.6960   ZZ=            -50.5992
   XY=             -2.5665   XZ=              3.2830   YZ=             -1.0108

  Exact polarizability:  81.264   0.553  69.473   1.396   0.749  63.340
 Approx polarizability: 103.827  -0.874 100.583   1.921   0.280  95.029

                      1                      2                      3
                      A                      A                      A
 Frequencies --     78.0879               119.1340               220.6539
 Red. masses --      2.8114                 2.2122                 2.0107
 Frc consts  --      0.0101                 0.0185                 0.0577
 IR Inten    --      1.6725                 0.4391                14.6037

                      4                      5                      6
                      A                      A                      A
 Frequencies --    236.0178               295.9529               344.6589
 Red. masses --      1.2423                 2.7017                 2.7925
 Frc consts  --      0.0408                 0.1394                 0.1954
 IR Inten    --     91.1501                 5.0828                 0.0205

                      7                      8                      9
                      A                      A                      A
 Frequencies --    415.8802               505.3190               509.6517
 Red. masses --      2.3016                 3.5565                 3.3588
 Frc consts  --      0.2345                 0.5351                 0.5140
 IR Inten    --      4.5490                 9.1581                 7.8391

                     10                     11                     12
                      A                      A                      A
 Frequencies --    647.0612               707.9956               787.4348
 Red. masses --      2.0287                 1.4112                 1.2493
 Frc consts  --      0.5005                 0.4168                 0.4564
 IR Inten    --     55.0141                32.1471                 2.1492

                     13                     14                     15
                      A                      A                      A
 Frequencies --    834.3663               858.3273               891.6155
 Red. masses --      2.1293                 1.8939                 2.1803
 Frc consts  --      0.8734                 0.8221                 1.0212
 IR Inten    --      1.4761                 5.1252                 4.4695

                     16                     17                     18
                      A                      A                      A
 Frequencies --    922.2316               927.9034               975.7131
 Red. masses --      1.9751                 2.5317                 2.6685
 Frc consts  --      0.9897                 1.2843                 1.4968
 IR Inten    --      6.0070                 0.3941                 3.7877

                     19                     20                     21
                      A                      A                      A
 Frequencies --    994.0774              1027.2271              1039.9296
 Red. masses --      2.3071                 1.2320                 3.3890
 Frc consts  --      1.3433                 0.7659                 2.1594
 IR Inten    --     15.7887                13.0627                24.5885

                     22                     23                     24
                      A                      A                      A
 Frequencies --   1073.0501              1142.5417              1176.5152
 Red. masses --      2.3550                 1.8264                 2.1208
 Frc consts  --      1.5977                 1.4047                 1.7296
 IR Inten    --     33.5932                24.9882                23.6752

                     25                     26                     27
                      A                      A                      A
 Frequencies --   1182.4359              1187.6644              1200.6756
 Red. masses --      2.0616                 1.5068                 1.7278
 Frc consts  --      1.6983                 1.2522                 1.4675
 IR Inten    --     31.1304                 8.0956                16.2277

                     28                     29                     30
                      A                      A                      A
 Frequencies --   1213.5842              1244.5937              1256.7593
 Red. masses --      1.3125                 1.2483                 1.3102
 Frc consts  --      1.1389                 1.1393                 1.2192
 IR Inten    --      0.5593                 2.5887                 2.5704

                     31                     32                     33
                      A                      A                      A
 Frequencies --   1269.6239              1290.1310              1308.0664
 Red. masses --      1.4395                 1.7480                 1.6112
 Frc consts  --      1.3671                 1.7141                 1.6243
 IR Inten    --      0.8833                38.6873                21.8692

                     34                     35                     36
                      A                      A                      A
 Frequencies --   1330.9457              1384.3991              1422.6807
 Red. masses --      1.4766                 1.4424                 1.4733
 Frc consts  --      1.5411                 1.6287                 1.7569
 IR Inten    --      6.1977                18.9584                 4.1769

                     37                     38                     39
                      A                      A                      A
 Frequencies --   1467.4037              1482.4137              1502.9986
 Red. masses --      1.0892                 1.0887                 1.1281
 Frc consts  --      1.3819                 1.4096                 1.5014
 IR Inten    --      2.8874                 3.2516                 2.1443

                     40                     41                     42
                      A                      A                      A
 Frequencies --   1505.4775              2995.8349              3009.4963
 Red. masses --      1.1149                 1.0709                 1.0728
 Frc consts  --      1.4888                 5.6626                 5.7248
 IR Inten    --      2.4240                45.0927                75.4436

                     43                     44                     45
                      A                      A                      A
 Frequencies --   3034.0010              3051.4758              3061.4963
 Red. masses --      1.0576                 1.1068                 1.0607
 Frc consts  --      5.7359                 6.0721                 5.8574
 IR Inten    --     41.5140                51.2742                22.9146

                     46                     47                     48
                      A                      A                      A
 Frequencies --   3063.3438              3083.9638              3114.1358
 Red. masses --      1.0634                 1.1051                 1.1063
 Frc consts  --      5.8797                 6.1928                 6.3211
 IR Inten    --     29.6153                26.9183                32.3881

                     49                     50                     51
                      A                      A                      A
 Frequencies --   3133.3490              3526.8337              3818.2098
 Red. masses --      1.1042                 1.0758                 1.0662
 Frc consts  --      6.3874                 7.8839                 9.1579
 IR Inten    --     23.2005                 1.1796                21.4357

 - Thermochemistry -
 -------------------
 Temperature   298.150 Kelvin.  Pressure   1.00000 Atm.
 Atom     1 has atomic number  8 and mass  15.99491

 Molecular mass:   113.08406 amu.
 Principal axes and moments of inertia in atomic units:
                           1         2         3
     Eigenvalues --   544.94332 971.544191195.37627
           X            0.99987   0.01310   0.00966
           Y           -0.01327   0.99975   0.01815
           Z           -0.00942  -0.01828   0.99979
 This molecule is an asymmetric top.
 Rotational symmetry number  1.
 Warning -- assumption of classical behavior for rotation
           may cause significant error
 Rotational temperatures (Kelvin)      0.15894     0.08915     0.07246
 Rotational constants (GHZ):           3.31180     1.85760     1.50977
 Zero-point vibrational energy     435879.4 (Joules/Mol)
                                  104.17767 (Kcal/Mol)
 Warning -- explicit consideration of   9 degrees of freedom as
           vibrations may cause significant error
 Vibrational temperatures:    112.35   171.41   317.47   339.58   425.81
          (Kelvin)            495.89   598.36   727.04   733.28   930.98
                             1018.65  1132.94  1200.47  1234.94  1282.84
                             1326.89  1335.05  1403.83  1430.26  1477.95
                             1496.23  1543.88  1643.86  1692.74  1701.26
                             1708.78  1727.50  1746.08  1790.69  1808.20
                             1826.71  1856.21  1882.02  1914.93  1991.84
                             2046.92  2111.27  2132.86  2162.48  2166.05
                             4310.34  4329.99  4365.25  4390.39  4404.81
                             4407.47  4437.14  4480.55  4508.19  5074.33
                             5493.55

 Zero-point correction=                           0.166018 (Hartree/Particle)
 Thermal correction to Energy=                    0.173885
 Thermal correction to Enthalpy=                  0.174829
 Thermal correction to Gibbs Free Energy=         0.133839
 Sum of electronic and zero-point Energies=           -365.022596
 Sum of electronic and thermal Energies=              -365.014728
 Sum of electronic and thermal Enthalpies=            -365.013784
 Sum of electronic and thermal Free Energies=         -365.054775

                     E (Thermal)             CV                S
                      KCal/Mol        Cal/Mol-Kelvin    Cal/Mol-Kelvin
 Total                  109.115             30.181             86.271
 Electronic               0.000              0.000              0.000
 Translational            0.889              2.981             40.085
 Rotational               0.889              2.981             27.939
 Vibrational            107.337             24.219             18.248
 Vibration     1          0.599              1.964              3.938
 Vibration     2          0.609              1.933              3.114
 Vibration     3          0.647              1.810              1.954
 Vibration     4          0.655              1.786              1.833
 Vibration     5          0.690              1.681              1.440
 Vibration     6          0.723              1.586              1.190
 Vibration     7          0.779              1.436              0.906
 Vibration     8          0.861              1.238              0.645
 Vibration     9          0.865              1.229              0.634

                           ! Non-Optimized Parameters !
 Normal termination of Gaussian 16 at Sun Jul  3 12:36:22 2022.
