 Gaussian 16, Revision A.03,
 Gaussian 16:  ES64L-G16RevA.03 25-Dec-2016

 -----------------------------
 # opt freq b3lyp/6-31g(2df,p)
 -----------------------------

 -------------------
 Title Card Required
 -------------------
 Symbolic Z-matrix:
 Charge =  0 Multiplicity = 1

 SCF Done:  E(RB3LYP) =  -401.604610093     A.U. after   18 cycles
 SCF Done:  E(RB3LYP) =  -401.648268302     A.U. after   18 cycles
 SCF Done:  E(RB3LYP) =  -401.726948628     A.U. after   16 cycles
 SCF Done:  E(RB3LYP) =  -401.731185614     A.U. after   16 cycles
 SCF Done:  E(RB3LYP) =  -401.791626490     A.U. after   15 cycles
 SCF Done:  E(RB3LYP) =  -401.838436626     A.U. after   14 cycles
 SCF Done:  E(RB3LYP) =  -401.883398801     A.U. after   15 cycles
 SCF Done:  E(RB3LYP) =  -401.907015546     A.U. after   15 cycles
 SCF Done:  E(RB3LYP) =  -401.934281464     A.U. after   14 cycles
 SCF Done:  E(RB3LYP) =  -401.953369744     A.U. after   14 cycles
 SCF Done:  E(RB3LYP) =  -402.056698649     A.U. after    7 cycles
 SCF Done:  E(RB3LYP) =  -402.056699387     A.U. after    7 cycles
 SCF Done:  E(RB3LYP) =  -402.056700036     A.U. after    7 cycles
 SCF Done:  E(RB3LYP) =  -402.056700702     A.U. after    7 cycles
 SCF Done:  E(RB3LYP) =  -402.056701853     A.U. after    7 cycles
 SCF Done:  E(RB3LYP) =  -402.056703352     A.U. after    7 cycles
 SCF Done:  E(RB3LYP) =  -402.056705211     A.U. after    8 cycles
 SCF Done:  E(RB3LYP) =  -402.056706763     A.U. after    8 cycles
 SCF Done:  E(RB3LYP) =  -402.056707339     A.U. after    7 cycles
 Optimization completed.
    -- Stationary point found.
 Normal termination of Gaussian 16 at Thu Aug  4 18:57:41 2022.

 ----------------------------------------------------------------------
 #N Geom=AllCheck Guess=TCheck SCRF=Check GenChk RB3LYP/6-31G(2df,p) Fr
 eq
 ----------------------------------------------------------------------

 Structure from the checkpoint file:  "OC1dCCdNCdCCC1.chk"
 -------------------
 Title Card Required
 -------------------
 Charge =  0 Multiplicity = 1

                         Standard orientation:
 ---------------------------------------------------------------------
 Center     Atomic      Atomic             Coordinates (Angstroms)
 Number     Number       Type             X           Y           Z
 ---------------------------------------------------------------------
      1          8           0       -2.793052   -0.572238   -0.225939
      2          6           0       -1.467302   -0.312663   -0.017326
      3          6           0       -0.517685   -1.254096    0.110331
      4          6           0        0.832096   -0.700570    0.436976
      5          7           0        2.235685   -1.131666    0.030696
      6          6           0        2.491591    0.082046   -0.319285
      7          6           0        1.068536    0.619051   -0.309433
      8          6           0        0.203593    1.727898    0.256631
      9          6           0       -1.259058    1.201852    0.045982
     10          1           0       -2.917651   -1.526857   -0.277377
     11          1           0       -0.745500   -2.316151    0.097560
     12          1           0        0.914685   -0.548324    1.520802
     13          1           0        3.457522    0.469747   -0.642080
     14          1           0        0.732162    0.464500   -1.343376
     15          1           0        0.317010    2.692632   -0.247246
     16          1           0        0.406213    1.887863    1.320460
     17          1           0       -1.663866    1.604878   -0.891413
     18          1           0       -1.916574    1.590166    0.832054
 ---------------------------------------------------------------------

 SCF Done:  E(RB3LYP) =  -402.056707339     A.U. after    1 cycles

 The electronic state is 1-A.
 Alpha  occ. eigenvalues --  -19.16766 -14.32046 -10.24247 -10.22499 -10.20946
 Alpha  occ. eigenvalues --  -10.19796 -10.19588 -10.19240 -10.16992  -1.05554
 Alpha  occ. eigenvalues --   -0.95203  -0.81870  -0.74805  -0.71207  -0.63987
 Alpha  occ. eigenvalues --   -0.62205  -0.56860  -0.53546  -0.50521  -0.48854
 Alpha  occ. eigenvalues --   -0.45195  -0.43594  -0.41978  -0.40295  -0.39872
 Alpha  occ. eigenvalues --   -0.37073  -0.35827  -0.35350  -0.34077  -0.30684
 Alpha  occ. eigenvalues --   -0.28591  -0.24879  -0.21288
 Alpha virt. eigenvalues --   -0.00436   0.03172   0.07358   0.09040   0.11468
 Alpha virt. eigenvalues --    0.12499   0.13466   0.15305   0.15566   0.15938
 Alpha virt. eigenvalues --    0.16304   0.19153   0.19900   0.22023   0.24097

 Mulliken charges:
               1
     1  O   -0.435024
     2  C    0.416436
     3  C   -0.345052
     4  C    0.066409
     5  N   -0.221987
     6  C   -0.094174
     7  C    0.010767
     8  C   -0.294779
     9  C   -0.268632
    10  H    0.295929
    11  H    0.081794
    12  H    0.100602
    13  H    0.111706
    14  H    0.113205
    15  H    0.101927
    16  H    0.109316
    17  H    0.125795
    18  H    0.125763
 Sum of Mulliken charges =   0.00000

 Dipole moment (field-independent basis, Debye):
    X=             -1.2110    Y=              1.3474    Z=             -0.1270  Tot=              1.8160
 Quadrupole moment (field-independent basis, Debye-Ang):
   XX=            -56.0038   YY=            -50.9392   ZZ=            -52.2564
   XY=              9.0403   XZ=             -0.8847   YZ=              0.0568

  Exact polarizability:  97.050  -1.725  81.554  -0.816  -2.769  55.282
 Approx polarizability: 137.576  -9.333 131.230   0.520  -8.535  90.589

                      1                      2                      3
                      A                      A                      A
 Frequencies --    127.4349               166.5948               307.2047
 Red. masses --      2.2187                 4.0961                 3.3275
 Frc consts  --      0.0212                 0.0670                 0.1850
 IR Inten    --      1.0896                 0.0472                 7.4608

                      4                      5                      6
                      A                      A                      A
 Frequencies --    326.2174               369.6160               421.8721
 Red. masses --      3.7899                 3.6025                 1.7215
 Frc consts  --      0.2376                 0.2900                 0.1805
 IR Inten    --      3.5950                 8.8472                46.4086

                      7                      8                      9
                      A                      A                      A
 Frequencies --    428.8211               465.2041               485.3808
 Red. masses --      1.9880                 3.7798                 1.8217
 Frc consts  --      0.2154                 0.4820                 0.2529
 IR Inten    --     45.1683                 4.7948                 5.3468

                     10                     11                     12
                      A                      A                      A
 Frequencies --    528.8642               651.0105               767.9983
 Red. masses --      4.7789                 3.6944                 1.9818
 Frc consts  --      0.7875                 0.9225                 0.6887
 IR Inten    --      2.1995                 3.5714                 7.7059

                     13                     14                     15
                      A                      A                      A
 Frequencies --    795.2799               803.4195               870.3556
 Red. masses --      1.7768                 2.1660                 2.3887
 Frc consts  --      0.6621                 0.8238                 1.0661
 IR Inten    --      5.8980                19.4463                 7.2314

                     16                     17                     18
                      A                      A                      A
 Frequencies --    888.1426               911.6217               946.8027
 Red. masses --      2.4284                 1.7244                 3.5593
 Frc consts  --      1.1286                 0.8443                 1.8799
 IR Inten    --      5.8500                15.2382                31.4061

                     19                     20                     21
                      A                      A                      A
 Frequencies --    978.9221              1014.4186              1058.6341
 Red. masses --      3.0161                 2.9790                 1.9855
 Frc consts  --      1.7029                 1.8062                 1.3110
 IR Inten    --      1.0112                 3.0218                 6.9253

                     22                     23                     24
                      A                      A                      A
 Frequencies --   1117.5698              1152.5583              1163.3316
 Red. masses --      1.5022                 1.5650                 1.8011
 Frc consts  --      1.1054                 1.2249                 1.4361
 IR Inten    --     52.0559                 9.6312                83.0675

                     25                     26                     27
                      A                      A                      A
 Frequencies --   1181.8722              1213.8548              1231.1508
 Red. masses --      1.9796                 1.2169                 1.3155
 Frc consts  --      1.6292                 1.0564                 1.1748
 IR Inten    --     71.0693                 1.6005                 3.1812

                     28                     29                     30
                      A                      A                      A
 Frequencies --   1252.3272              1260.3030              1307.5797
 Red. masses --      1.8688                 1.5541                 1.5095
 Frc consts  --      1.7268                 1.4544                 1.5206
 IR Inten    --     22.9548                 7.0870                11.3544

                     31                     32                     33
                      A                      A                      A
 Frequencies --   1317.1415              1343.6918              1372.8223
 Red. masses --      1.3214                 1.4197                 1.4158
 Frc consts  --      1.3506                 1.5102                 1.5722
 IR Inten    --      1.1117                14.0641                19.8382

                     34                     35                     36
                      A                      A                      A
 Frequencies --   1409.1994              1420.0951              1470.1708
 Red. masses --      1.6603                 1.6697                 1.0894
 Frc consts  --      1.9425                 1.9839                 1.3873
 IR Inten    --      2.9127                 1.2628                 5.6279

                     37                     38                     39
                      A                      A                      A
 Frequencies --   1507.5205              1611.3569              1691.6930
 Red. masses --      1.0997                 7.5476                 7.0452
 Frc consts  --      1.4724                11.5463                11.8791
 IR Inten    --      1.0623                11.8099               135.4487

                     40                     41                     42
                      A                      A                      A
 Frequencies --   3002.4293              3013.0400              3027.2370
 Red. masses --      1.0823                 1.0811                 1.0642
 Frc consts  --      5.7485                 5.7827                 5.7460
 IR Inten    --     10.5907                17.8613                21.9219

                     43                     44                     45
                      A                      A                      A
 Frequencies --   3045.8312              3063.0795              3090.3394
 Red. masses --      1.0626                 1.0939                 1.1057
 Frc consts  --      5.8083                 6.0469                 6.2218
 IR Inten    --     37.8423                17.2226                34.9163

                     46                     47                     48
                      A                      A                      A
 Frequencies --   3134.4373              3161.6044              3802.3241
 Red. masses --      1.0957                 1.0911                 1.0654
 Frc consts  --      6.3423                 6.4258                 9.0750
 IR Inten    --     54.9991                23.0235                31.6135

 - Thermochemistry -
 -------------------
 Temperature   298.150 Kelvin.  Pressure   1.00000 Atm.
 Atom     1 has atomic number  8 and mass  15.99491

 Molecular mass:   123.06841 amu.
 Principal axes and moments of inertia in atomic units:
                           1         2         3
     Eigenvalues --   520.357081370.004071787.33067
           X            0.99989   0.01465  -0.00203
           Y           -0.01465   0.99989   0.00139
           Z            0.00205  -0.00136   1.00000
 This molecule is an asymmetric top.
 Rotational symmetry number  1.
 Warning -- assumption of classical behavior for rotation
           may cause significant error
 Rotational temperatures (Kelvin)      0.16645     0.06322     0.04846
 Rotational constants (GHZ):           3.46827     1.31733     1.00974
 Zero-point vibrational energy     392843.9 (Joules/Mol)
                                   93.89195 (Kcal/Mol)
 Warning -- explicit consideration of  10 degrees of freedom as
           vibrations may cause significant error
 Vibrational temperatures:    183.35   239.69   442.00   469.35   531.79
          (Kelvin)            606.98   616.98   669.32   698.35   760.92
                              936.66  1104.98  1144.23  1155.94  1252.25
                             1277.84  1311.62  1362.24  1408.45  1459.52
                             1523.14  1607.93  1658.27  1673.77  1700.45
                             1746.47  1771.35  1801.82  1813.29  1881.32
                             1895.07  1933.27  1975.19  2027.52  2043.20
                             2115.25  2168.99  2318.38  2433.97  4319.83
                             4335.09  4355.52  4382.27  4407.09  4446.31
                             4509.76  4548.84  5470.70

 Zero-point correction=                           0.149626 (Hartree/Particle)
 Thermal correction to Energy=                    0.157062
 Thermal correction to Enthalpy=                  0.158006
 Thermal correction to Gibbs Free Energy=         0.117955
 Sum of electronic and zero-point Energies=           -401.907081
 Sum of electronic and thermal Energies=              -401.899645
 Sum of electronic and thermal Enthalpies=            -401.898701
 Sum of electronic and thermal Free Energies=         -401.938753

                     E (Thermal)             CV                S
                      KCal/Mol        Cal/Mol-Kelvin    Cal/Mol-Kelvin
 Total                   98.558             29.859             84.296
 Electronic               0.000              0.000              0.000
 Translational            0.889              2.981             40.337
 Rotational               0.889              2.981             28.634
 Vibrational             96.780             23.898             15.325
 Vibration     1          0.611              1.926              2.984
 Vibration     2          0.624              1.884              2.474
 Vibration     3          0.697              1.660              1.377
 Vibration     4          0.710              1.623              1.279
 Vibration     5          0.742              1.535              1.081
 Vibration     6          0.784              1.423              0.886
 Vibration     7          0.790              1.407              0.863
 Vibration     8          0.823              1.327              0.751
 Vibration     9          0.841              1.282              0.696
 Vibration    10          0.884              1.186              0.590

                           ! Non-Optimized Parameters !
 Normal termination of Gaussian 16 at Thu Aug  4 19:27:22 2022.
