 Gaussian 16, Revision A.03,
 Gaussian 16:  ES64L-G16RevA.03 25-Dec-2016

 -----------------------------
 # opt freq b3lyp/6-31g(2df,p)
 -----------------------------

 -------------------
 Title Card Required
 -------------------
 Symbolic Z-matrix:
 Charge =  0 Multiplicity = 1

 SCF Done:  E(RB3LYP) =  -454.061376271     A.U. after   14 cycles
 SCF Done:  E(RB3LYP) =  -454.064538211     A.U. after   12 cycles
 SCF Done:  E(RB3LYP) =  -454.064850383     A.U. after   12 cycles
 SCF Done:  E(RB3LYP) =  -454.064944796     A.U. after   10 cycles
 SCF Done:  E(RB3LYP) =  -454.065012780     A.U. after   11 cycles
 SCF Done:  E(RB3LYP) =  -454.065048667     A.U. after   11 cycles
 SCF Done:  E(RB3LYP) =  -454.065119422     A.U. after   11 cycles
 SCF Done:  E(RB3LYP) =  -454.065162096     A.U. after   12 cycles
 SCF Done:  E(RB3LYP) =  -454.065171700     A.U. after   11 cycles
 SCF Done:  E(RB3LYP) =  -454.065171288     A.U. after    8 cycles
 SCF Done:  E(RB3LYP) =  -454.065194876     A.U. after   11 cycles
 SCF Done:  E(RB3LYP) =  -454.065198150     A.U. after    8 cycles
 SCF Done:  E(RB3LYP) =  -454.065201623     A.U. after    9 cycles
 SCF Done:  E(RB3LYP) =  -454.065202158     A.U. after    8 cycles
 SCF Done:  E(RB3LYP) =  -454.065202290     A.U. after    7 cycles
 Optimization completed.
    -- Stationary point found.
 Normal termination of Gaussian 16 at Thu Aug  4 16:13:14 2022.

 ----------------------------------------------------------------------
 #N Geom=AllCheck Guess=TCheck SCRF=Check GenChk RB3LYP/6-31G(2df,p) Fr
 eq
 ----------------------------------------------------------------------

 Structure from the checkpoint file:  "OCc1cnncc1O.chk"
 -------------------
 Title Card Required
 -------------------
 Charge =  0 Multiplicity = 1

                         Standard orientation:
 ---------------------------------------------------------------------
 Center     Atomic      Atomic             Coordinates (Angstroms)
 Number     Number       Type             X           Y           Z
 ---------------------------------------------------------------------
      1          8           0       -2.508743   -0.385315    0.743621
      2          6           0       -1.819202   -0.622628   -0.477517
      3          6           0       -0.352741   -0.388899   -0.242299
      4          6           0        0.567566   -1.431214   -0.143352
      5          7           0        1.876383   -1.294152    0.073729
      6          7           0        2.369543   -0.066813    0.217426
      7          6           0        1.558087    0.981180    0.138276
      8          6           0        0.180118    0.886694   -0.091068
      9          8           0       -0.627287    1.964165   -0.185237
     10          1           0       -3.447983   -0.320083    0.544984
     11          1           0       -2.170628    0.055637   -1.268168
     12          1           0       -1.967903   -1.654911   -0.828956
     13          1           0        0.226639   -2.458243   -0.250257
     14          1           0        2.031782    1.954274    0.262450
     15          1           0       -0.108111    2.768483   -0.069445
 ---------------------------------------------------------------------

 SCF Done:  E(RB3LYP) =  -454.065202290     A.U. after    1 cycles

 The electronic state is 1-A.
 Alpha  occ. eigenvalues --  -19.20119 -19.14644 -14.35922 -14.34912 -10.27357
 Alpha  occ. eigenvalues --  -10.24823 -10.22690 -10.22501 -10.21282  -1.09301
 Alpha  occ. eigenvalues --   -1.02748  -1.00837  -0.83014  -0.81698  -0.71463
 Alpha  occ. eigenvalues --   -0.66811  -0.62471  -0.57993  -0.53050  -0.52623
 Alpha  occ. eigenvalues --   -0.48787  -0.44990  -0.44322  -0.43387  -0.42259
 Alpha  occ. eigenvalues --   -0.40647  -0.39287  -0.34981  -0.30465  -0.29219
 Alpha  occ. eigenvalues --   -0.28021  -0.26291  -0.22975
 Alpha virt. eigenvalues --   -0.04178  -0.01736   0.04900   0.07258   0.11460
 Alpha virt. eigenvalues --    0.11722   0.13759   0.14397   0.17274   0.21167
 Alpha virt. eigenvalues --    0.21544   0.22100   0.26590   0.26942   0.33216

 Mulliken charges:
               1
     1  O   -0.413998
     2  C   -0.187665
     3  C    0.202422
     4  C   -0.030373
     5  N   -0.220479
     6  N   -0.190484
     7  C   -0.081928
     8  C    0.311559
     9  O   -0.421034
    10  H    0.291994
    11  H    0.108396
    12  H    0.098536
    13  H    0.119176
    14  H    0.105841
    15  H    0.308038
 Sum of Mulliken charges =  -0.00000

 Dipole moment (field-independent basis, Debye):
    X=             -3.7634    Y=              2.6081    Z=             -1.5342  Tot=              4.8290
 Quadrupole moment (field-independent basis, Debye-Ang):
   XX=            -54.8328   YY=            -43.0731   ZZ=            -52.6199
   XY=              7.6305   XZ=              1.6258   YZ=              1.6764

  Exact polarizability:  87.495   0.983  83.160   5.120   2.581  40.844
 Approx polarizability: 141.290  -6.486 144.679  10.577   3.754  65.753

                      1                      2                      3
                      A                      A                      A
 Frequencies --     60.2862               128.9733               200.1299
 Red. masses --      4.0798                 5.5293                 1.2503
 Frc consts  --      0.0087                 0.0542                 0.0295
 IR Inten    --      0.7613                 1.4483                86.2888

                      4                      5                      6
                      A                      A                      A
 Frequencies --    212.5063               271.8618               347.7413
 Red. masses --      4.1031                 2.8171                 5.2460
 Frc consts  --      0.1092                 0.1227                 0.3738
 IR Inten    --     15.4870                 1.1635                10.5920

                      7                      8                      9
                      A                      A                      A
 Frequencies --    412.7551               419.6939               493.2825
 Red. masses --      1.4072                 2.3013                 3.5101
 Frc consts  --      0.1412                 0.2388                 0.5032
 IR Inten    --     92.1497                26.6175                 4.4837

                     10                     11                     12
                      A                      A                      A
 Frequencies --    558.7226               604.4516               656.2526
 Red. masses --      5.9006                 8.7669                 7.4905
 Frc consts  --      1.0853                 1.8872                 1.9006
 IR Inten    --      7.1560                 0.7435                16.0109

                     13                     14                     15
                      A                      A                      A
 Frequencies --    788.2231               812.0797               898.2557
 Red. masses --      4.7454                 4.4154                 5.5520
 Frc consts  --      1.7371                 1.7156                 2.6393
 IR Inten    --      1.2879                 2.2638                27.0714

                     16                     17                     18
                      A                      A                      A
 Frequencies --    908.7506               970.7496              1003.2229
 Red. masses --      1.4799                 1.4191                 1.8449
 Frc consts  --      0.7201                 0.7879                 1.0940
 IR Inten    --     12.3119                 7.0303                 1.5518

                     19                     20                     21
                      A                      A                      A
 Frequencies --   1058.7218              1072.2941              1163.8203
 Red. masses --      6.1563                 3.7398                 2.1884
 Frc consts  --      4.0657                 2.5336                 1.7464
 IR Inten    --     59.1804                13.7814                66.4613

                     22                     23                     24
                      A                      A                      A
 Frequencies --   1219.7129              1226.1516              1265.5349
 Red. masses --      2.8204                 1.4054                 1.4775
 Frc consts  --      2.4722                 1.2449                 1.3942
 IR Inten    --     27.7432                15.4293                57.5017

                     25                     26                     27
                      A                      A                      A
 Frequencies --   1280.6487              1311.6432              1341.5696
 Red. masses --      1.3095                 1.6390                 2.1727
 Frc consts  --      1.2654                 1.6614                 2.3040
 IR Inten    --     34.2030                17.5949                12.1157

                     28                     29                     30
                      A                      A                      A
 Frequencies --   1384.6164              1461.8076              1496.3946
 Red. masses --      2.6980                 1.4746                 2.6154
 Frc consts  --      3.0475                 1.8565                 3.4505
 IR Inten    --    126.5699                18.7085                20.5748

                     31                     32                     33
                      A                      A                      A
 Frequencies --   1514.5608              1601.4451              1641.0764
 Red. masses --      1.1494                 6.4851                 5.6522
 Frc consts  --      1.5535                 9.7992                 8.9686
 IR Inten    --      1.7587                93.0054                 3.2555

                     34                     35                     36
                      A                      A                      A
 Frequencies --   2982.6247              3019.4803              3134.6727
 Red. masses --      1.0568                 1.1048                 1.0898
 Frc consts  --      5.5389                 5.9345                 6.3092
 IR Inten    --     53.1742                31.0360                21.8980

                     37                     38                     39
                      A                      A                      A
 Frequencies --   3162.5037              3802.7664              3823.0610
 Red. masses --      1.0902                 1.0659                 1.0663
 Frc consts  --      6.4243                 9.0814                 9.1827
 IR Inten    --     10.9377                65.7860                23.4744

 - Thermochemistry -
 -------------------
 Temperature   298.150 Kelvin.  Pressure   1.00000 Atm.
 Atom     1 has atomic number  8 and mass  15.99491

 Molecular mass:   126.04293 amu.
 Principal axes and moments of inertia in atomic units:
                           1         2         3
     Eigenvalues --   631.033711254.356351765.27318
           X            0.99909   0.04153   0.00987
           Y           -0.04167   0.99902   0.01472
           Z           -0.00924  -0.01512   0.99984
 This molecule is an asymmetric top.
 Rotational symmetry number  1.
 Warning -- assumption of classical behavior for rotation
           may cause significant error
 Rotational temperatures (Kelvin)      0.13726     0.06905     0.04907
 Rotational constants (GHZ):           2.85998     1.43878     1.02236
 Zero-point vibrational energy     297350.0 (Joules/Mol)
                                   71.06837 (Kcal/Mol)
 Warning -- explicit consideration of  11 degrees of freedom as
           vibrations may cause significant error
 Vibrational temperatures:     86.74   185.56   287.94   305.75   391.15
          (Kelvin)            500.32   593.86   603.85   709.72   803.88
                              869.67   944.20  1134.08  1168.40  1292.39
                             1307.49  1396.69  1443.41  1523.26  1542.79
                             1674.48  1754.89  1764.16  1820.82  1842.57
                             1887.16  1930.22  1992.15  2103.22  2152.98
                             2179.12  2304.12  2361.14  4291.33  4344.36
                             4510.09  4550.14  5471.33  5500.53

 Zero-point correction=                           0.113255 (Hartree/Particle)
 Thermal correction to Energy=                    0.121316
 Thermal correction to Enthalpy=                  0.122260
 Thermal correction to Gibbs Free Energy=         0.080160
 Sum of electronic and zero-point Energies=           -453.951948
 Sum of electronic and thermal Energies=              -453.943886
 Sum of electronic and thermal Enthalpies=            -453.942942
 Sum of electronic and thermal Free Energies=         -453.985043

                     E (Thermal)             CV                S
                      KCal/Mol        Cal/Mol-Kelvin    Cal/Mol-Kelvin
 Total                   76.127             29.365             88.608
 Electronic               0.000              0.000              0.000
 Translational            0.889              2.981             40.408
 Rotational               0.889              2.981             28.726
 Vibrational             74.350             23.403             19.475
 Vibration     1          0.597              1.973              4.448
 Vibration     2          0.611              1.924              2.961
 Vibration     3          0.638              1.840              2.132
 Vibration     4          0.644              1.822              2.022
 Vibration     5          0.675              1.725              1.584
 Vibration     6          0.725              1.580              1.176
 Vibration     7          0.777              1.443              0.917
 Vibration     8          0.782              1.427              0.893
 Vibration     9          0.849              1.265              0.675
 Vibration    10          0.914              1.121              0.526
 Vibration    11          0.963              1.022              0.442

 Optimization completed.
    -- Stationary point found.
 Normal termination of Gaussian 16 at Thu Aug  4 16:35:15 2022.
