 Gaussian 16, Revision A.03,
 Gaussian 16:  ES64L-G16RevA.03 25-Dec-2016

 -----------------------------
 # opt freq b3lyp/6-31g(2df,p)
 -----------------------------

 -------------------
 Title Card Required
 -------------------
 Symbolic Z-matrix:
 Charge =  0 Multiplicity = 1

 SCF Done:  E(RB3LYP) =  -404.488244339     A.U. after   12 cycles
 SCF Done:  E(RB3LYP) =  -404.511911615     A.U. after   10 cycles
 SCF Done:  E(RB3LYP) =  -404.523013394     A.U. after   10 cycles
 SCF Done:  E(RB3LYP) =  -404.527009212     A.U. after   10 cycles
 SCF Done:  E(RB3LYP) =  -404.528366798     A.U. after   10 cycles
 SCF Done:  E(RB3LYP) =  -404.528547401     A.U. after    9 cycles
 SCF Done:  E(RB3LYP) =  -404.528573476     A.U. after    9 cycles
 SCF Done:  E(RB3LYP) =  -404.528583499     A.U. after    8 cycles
 SCF Done:  E(RB3LYP) =  -404.528585603     A.U. after    7 cycles
 SCF Done:  E(RB3LYP) =  -404.528586240     A.U. after    6 cycles
 SCF Done:  E(RB3LYP) =  -404.528586552     A.U. after    6 cycles
 SCF Done:  E(RB3LYP) =  -404.528586701     A.U. after    6 cycles
 SCF Done:  E(RB3LYP) =  -404.528586722     A.U. after    6 cycles
 Optimization completed.
    -- Stationary point found.
 Normal termination of Gaussian 16 at Thu Aug  4 13:26:46 2022.

 ----------------------------------------------------------------------
 #N Geom=AllCheck Guess=TCheck SCRF=Check GenChk RB3LYP/6-31G(2df,p) Fr
 eq
 ----------------------------------------------------------------------

 Structure from the checkpoint file:  "OCC1NCCC2CC21.chk"
 -------------------
 Title Card Required
 -------------------
 Charge =  0 Multiplicity = 1

                         Standard orientation:
 ---------------------------------------------------------------------
 Center     Atomic      Atomic             Coordinates (Angstroms)
 Number     Number       Type             X           Y           Z
 ---------------------------------------------------------------------
      1          8           0       -2.404190    0.037661   -0.955341
      2          6           0       -2.178336    0.181770    0.443870
      3          6           0       -0.683427    0.024030    0.696522
      4          7           0       -0.299410   -1.349888    0.353255
      5          6           0        1.148971   -1.538466    0.360451
      6          6           0        1.886775   -0.685085   -0.688336
      7          6           0        1.432136    0.763679   -0.686729
      8          6           0        1.430354    1.594907    0.570368
      9          6           0        0.121130    1.124058   -0.020353
     10          1           0       -3.352506    0.009566   -1.108129
     11          1           0       -2.715338   -0.591121    1.011217
     12          1           0       -2.509089    1.169998    0.798640
     13          1           0       -0.538549    0.132104    1.781543
     14          1           0       -0.659815   -1.542958   -0.578380
     15          1           0        1.368823   -2.598600    0.193513
     16          1           0        1.511325   -1.303511    1.370488
     17          1           0        1.681719   -1.111403   -1.679705
     18          1           0        2.972267   -0.754165   -0.538510
     19          1           0        1.661628    1.302910   -1.601605
     20          1           0        1.691719    2.645037    0.492823
     21          1           0        1.754821    1.129542    1.497377
     22          1           0       -0.483234    1.871176   -0.524094
 ---------------------------------------------------------------------

 SCF Done:  E(RB3LYP) =  -404.528586722     A.U. after    1 cycles

 The electronic state is 1-A.
 Alpha  occ. eigenvalues --  -19.13771 -14.29764 -10.22330 -10.20264 -10.19472
 Alpha  occ. eigenvalues --  -10.18022 -10.17582 -10.17298 -10.17246  -1.01778
 Alpha  occ. eigenvalues --   -0.90202  -0.83758  -0.75939  -0.69897  -0.62424
 Alpha  occ. eigenvalues --   -0.61306  -0.57350  -0.53903  -0.50788  -0.48876
 Alpha  occ. eigenvalues --   -0.46639  -0.44332  -0.42748  -0.41924  -0.40555
 Alpha  occ. eigenvalues --   -0.38300  -0.36761  -0.35378  -0.33921  -0.33608
 Alpha  occ. eigenvalues --   -0.32166  -0.27084  -0.26937  -0.26283  -0.20957
 Alpha virt. eigenvalues --    0.07066   0.09159   0.10825   0.12224   0.12755
 Alpha virt. eigenvalues --    0.13646   0.15728   0.16156   0.17417   0.17743
 Alpha virt. eigenvalues --    0.18251   0.19050   0.19674   0.20264   0.21700

 Mulliken charges:
               1
     1  O   -0.423778
     2  C   -0.115583
     3  C    0.038614
     4  N   -0.292535
     5  C   -0.172389
     6  C   -0.219429
     7  C   -0.002107
     8  C   -0.313135
     9  C   -0.017148
    10  H    0.290561
    11  H    0.096378
    12  H    0.086527
    13  H    0.075183
    14  H    0.218690
    15  H    0.095811
    16  H    0.098926
    17  H    0.092550
    18  H    0.091011
    19  H    0.077845
    20  H    0.103610
    21  H    0.103741
    22  H    0.086657
 Sum of Mulliken charges =  -0.00000

 Dipole moment (field-independent basis, Debye):
    X=             -1.0089    Y=              0.5728    Z=             -0.1452  Tot=              1.1693
 Quadrupole moment (field-independent basis, Debye-Ang):
   XX=            -47.6280   YY=            -56.3643   ZZ=            -55.5870
   XY=             -1.4583   XZ=              0.7034   YZ=              1.5878

  Exact polarizability:  90.463  -1.249  80.692  -0.666   2.262  73.561
 Approx polarizability: 119.292  -1.151 112.713   1.500   4.476 114.384

                      1                      2                      3
                      A                      A                      A
 Frequencies --     82.2396               121.9788               218.8833
 Red. masses --      3.2626                 3.8597                 3.3013
 Frc consts  --      0.0130                 0.0338                 0.0932
 IR Inten    --      1.6166                 0.6419                 4.6317

                      4                      5                      6
                      A                      A                      A
 Frequencies --    244.9561               271.8558               328.8010
 Red. masses --      1.1330                 2.3845                 1.9777
 Frc consts  --      0.0401                 0.1038                 0.1260
 IR Inten    --     87.5464                 5.8776                 1.7428

                      7                      8                      9
                      A                      A                      A
 Frequencies --    334.3356               370.9129               462.2234
 Red. masses --      2.3127                 2.5220                 3.9706
 Frc consts  --      0.1523                 0.2044                 0.4998
 IR Inten    --      1.5556                 1.2972                 1.1879

                     10                     11                     12
                      A                      A                      A
 Frequencies --    492.2312               626.9277               658.4612
 Red. masses --      3.4436                 2.3983                 2.1723
 Frc consts  --      0.4916                 0.5554                 0.5549
 IR Inten    --      4.3203                 4.6810                 5.3767

                     13                     14                     15
                      A                      A                      A
 Frequencies --    756.8432               780.3570               828.9732
 Red. masses --      2.2577                 2.3470                 1.9926
 Frc consts  --      0.7620                 0.8421                 0.8068
 IR Inten    --      5.2296                48.3711                13.9908

                     16                     17                     18
                      A                      A                      A
 Frequencies --    843.2571               886.1906               922.3937
 Red. masses --      1.2883                 2.6788                 2.4429
 Frc consts  --      0.5398                 1.2395                 1.2246
 IR Inten    --     45.9463                 6.2071                10.0705

                     19                     20                     21
                      A                      A                      A
 Frequencies --    931.9719               952.7417              1002.3089
 Red. masses --      1.7615                 1.9279                 1.7970
 Frc consts  --      0.9014                 1.0311                 1.0637
 IR Inten    --     12.8945                 4.0452                 4.8966

                     22                     23                     24
                      A                      A                      A
 Frequencies --   1019.7244              1047.5777              1066.3599
 Red. masses --      2.1321                 1.7593                 1.6485
 Frc consts  --      1.3063                 1.1375                 1.1045
 IR Inten    --     20.5286                 1.2733                 5.7110

                     25                     26                     27
                      A                      A                      A
 Frequencies --   1094.7142              1111.4008              1120.8722
 Red. masses --      2.3822                 1.7072                 1.7715
 Frc consts  --      1.6820                 1.2425                 1.3113
 IR Inten    --     49.0320                11.9873                 2.4469

                     28                     29                     30
                      A                      A                      A
 Frequencies --   1130.5517              1152.8997              1176.0285
 Red. masses --      1.2928                 2.2621                 1.8097
 Frc consts  --      0.9735                 1.7715                 1.4747
 IR Inten    --     11.5016                17.5161                 1.4387

                     31                     32                     33
                      A                      A                      A
 Frequencies --   1211.7388              1229.4249              1249.8965
 Red. masses --      1.2435                 1.4014                 1.2173
 Frc consts  --      1.0758                 1.2480                 1.1204
 IR Inten    --     30.4002                 2.3396                14.7988

                     34                     35                     36
                      A                      A                      A
 Frequencies --   1265.7416              1303.0721              1327.8447
 Red. masses --      1.3065                 1.3575                 1.3832
 Frc consts  --      1.2333                 1.3581                 1.4369
 IR Inten    --      2.0455                 5.1316                10.9263

                     37                     38                     39
                      A                      A                      A
 Frequencies --   1340.3777              1376.8813              1378.7143
 Red. masses --      1.3594                 1.3378                 1.3776
 Frc consts  --      1.4390                 1.4943                 1.5428
 IR Inten    --      0.6810                 5.9057                 7.1895

                     40                     41                     42
                      A                      A                      A
 Frequencies --   1397.8770              1418.4703              1451.3394
 Red. masses --      1.4629                 1.6874                 1.4959
 Frc consts  --      1.6842                 2.0003                 1.8564
 IR Inten    --      2.9093                 4.1047                 5.7787

                     43                     44                     45
                      A                      A                      A
 Frequencies --   1479.7234              1486.5312              1499.5030
 Red. masses --      1.0949                 1.2028                 1.1411
 Frc consts  --      1.4125                 1.5660                 1.5117
 IR Inten    --      8.0060                 0.8971                10.2120

                     46                     47                     48
                      A                      A                      A
 Frequencies --   1503.2443              1510.3996              2977.4810
 Red. masses --      1.2415                 1.0916                 1.0625
 Frc consts  --      1.6529                 1.4672                 5.5496
 IR Inten    --      9.8323                15.5471                23.0967

                     49                     50                     51
                      A                      A                      A
 Frequencies --   2994.8571              3006.8132              3015.1875
 Red. masses --      1.0793                 1.0597                 1.0668
 Frc consts  --      5.7034                 5.6449                 5.7141
 IR Inten    --     73.6175                38.7580                29.1195

                     52                     53                     54
                      A                      A                      A
 Frequencies --   3026.5864              3042.3383              3064.9447
 Red. masses --      1.1038                 1.0972                 1.1019
 Frc consts  --      5.9575                 5.9834                 6.0989
 IR Inten    --     49.2653                55.7720                47.3549

                     55                     56                     57
                      A                      A                      A
 Frequencies --   3116.5927              3135.5974              3156.7753
 Red. masses --      1.0545                 1.0882                 1.0902
 Frc consts  --      6.0346                 6.3037                 6.4011
 IR Inten    --     20.3299                20.4346                12.4746

                     58                     59                     60
                      A                      A                      A
 Frequencies --   3200.1089              3494.0146              3840.1793
 Red. masses --      1.1146                 1.0726                 1.0665
 Frc consts  --      6.7251                 7.7153                 9.2668
 IR Inten    --     19.1595                 2.7226                28.4461

 - Thermochemistry -
 -------------------
 Temperature   298.150 Kelvin.  Pressure   1.00000 Atm.
 Atom     1 has atomic number  8 and mass  15.99491

 Molecular mass:   127.09971 amu.
 Principal axes and moments of inertia in atomic units:
                           1         2         3
     Eigenvalues --   710.215421332.422651627.21508
           X            0.99986  -0.01302  -0.01026
           Y            0.01319   0.99977   0.01674
           Z            0.01004  -0.01687   0.99981
 This molecule is an asymmetric top.
 Rotational symmetry number  1.
 Warning -- assumption of classical behavior for rotation
           may cause significant error
 Rotational temperatures (Kelvin)      0.12195     0.06500     0.05323
 Rotational constants (GHZ):           2.54112     1.35448     1.10910
 Zero-point vibrational energy     517631.5 (Joules/Mol)
                                  123.71690 (Kcal/Mol)
 Warning -- explicit consideration of  10 degrees of freedom as
           vibrations may cause significant error
 Vibrational temperatures:    118.32   175.50   314.92   352.44   391.14
          (Kelvin)            473.07   481.03   533.66   665.04   708.21
                              902.01   947.38  1088.93  1122.76  1192.71
                             1213.26  1275.03  1327.12  1340.90  1370.78
                             1442.10  1467.16  1507.23  1534.25  1575.05
                             1599.06  1612.69  1626.61  1658.77  1692.04
                             1743.42  1768.87  1798.32  1821.12  1874.83
                             1910.47  1928.50  1981.03  1983.66  2011.23
                             2040.86  2088.15  2128.99  2138.79  2157.45
                             2162.83  2173.13  4283.93  4308.93  4326.13
                             4338.18  4354.58  4377.25  4409.77  4484.08
                             4511.43  4541.90  4604.24  5027.11  5525.16

 Zero-point correction=                           0.197155 (Hartree/Particle)
 Thermal correction to Energy=                    0.205720
 Thermal correction to Enthalpy=                  0.206664
 Thermal correction to Gibbs Free Energy=         0.164079
 Sum of electronic and zero-point Energies=           -404.331431
 Sum of electronic and thermal Energies=              -404.322867
 Sum of electronic and thermal Enthalpies=            -404.321923
 Sum of electronic and thermal Free Energies=         -404.364508

                     E (Thermal)             CV                S
                      KCal/Mol        Cal/Mol-Kelvin    Cal/Mol-Kelvin
 Total                  129.091             33.819             89.627
 Electronic               0.000              0.000              0.000
 Translational            0.889              2.981             40.433
 Rotational               0.889              2.981             28.822
 Vibrational            127.314             27.858             20.372
 Vibration     1          0.600              1.961              3.837
 Vibration     2          0.609              1.931              3.069
 Vibration     3          0.647              1.812              1.968
 Vibration     4          0.660              1.771              1.767
 Vibration     5          0.675              1.725              1.584
 Vibration     6          0.712              1.618              1.266
 Vibration     7          0.716              1.607              1.239
 Vibration     8          0.743              1.532              1.076
 Vibration     9          0.820              1.334              0.760
 Vibration    10          0.848              1.267              0.678

 Optimization completed.
    -- Stationary point found.
 Normal termination of Gaussian 16 at Thu Aug  4 14:06:44 2022.
