 Gaussian 16, Revision A.03,
 Gaussian 16:  ES64L-G16RevA.03 25-Dec-2016

 -----------------------------
 # opt freq b3lyp/6-31g(2df,p)
 -----------------------------

 -------------------
 Title Card Required
 -------------------
 Symbolic Z-matrix:
 Charge =  0 Multiplicity = 1

 SCF Done:  E(RB3LYP) =  -454.025640018     A.U. after   14 cycles
 SCF Done:  E(RB3LYP) =  -454.036892282     A.U. after   12 cycles
 SCF Done:  E(RB3LYP) =  -454.037938753     A.U. after   12 cycles
 SCF Done:  E(RB3LYP) =  -454.038125311     A.U. after   11 cycles
 SCF Done:  E(RB3LYP) =  -454.038943572     A.U. after   13 cycles
 SCF Done:  E(RB3LYP) =  -454.039027307     A.U. after   14 cycles
 SCF Done:  E(RB3LYP) =  -454.040399253     A.U. after   12 cycles
 SCF Done:  E(RB3LYP) =  -454.042626733     A.U. after   13 cycles
 SCF Done:  E(RB3LYP) =  -454.046573156     A.U. after   14 cycles
 SCF Done:  E(RB3LYP) =  -454.048702736     A.U. after   13 cycles
 SCF Done:  E(RB3LYP) =  -454.053273761     A.U. after    8 cycles
 SCF Done:  E(RB3LYP) =  -454.053274754     A.U. after    8 cycles
 SCF Done:  E(RB3LYP) =  -454.053275043     A.U. after    7 cycles
 SCF Done:  E(RB3LYP) =  -454.053275324     A.U. after    7 cycles
 SCF Done:  E(RB3LYP) =  -454.053275722     A.U. after    7 cycles
 SCF Done:  E(RB3LYP) =  -454.053276103     A.U. after    8 cycles
 SCF Done:  E(RB3LYP) =  -454.053276317     A.U. after    8 cycles
 SCF Done:  E(RB3LYP) =  -454.053276451     A.U. after    7 cycles
 SCF Done:  E(RB3LYP) =  -454.053276503     A.U. after    7 cycles
 Optimization completed.
    -- Stationary point found.
 Normal termination of Gaussian 16 at Thu Aug  4 05:13:15 2022.

 ----------------------------------------------------------------------
 #N Geom=AllCheck Guess=TCheck SCRF=Check GenChk RB3LYP/6-31G(2df,p) Fr
 eq
 ----------------------------------------------------------------------

 Structure from the checkpoint file:  "OCC1dNCdCNdCO1.chk"
 -------------------
 Title Card Required
 -------------------
 Charge =  0 Multiplicity = 1

                         Standard orientation:
 ---------------------------------------------------------------------
 Center     Atomic      Atomic             Coordinates (Angstroms)
 Number     Number       Type             X           Y           Z
 ---------------------------------------------------------------------
      1          8           0       -2.493035   -0.526592    0.591478
      2          6           0       -2.052455    0.642295   -0.081695
      3          6           0       -0.563771    0.539194   -0.258794
      4          7           0        0.252804    1.413394    0.157732
      5          6           0        1.622414    1.223794    0.065805
      6          6           0        2.263212    0.036172    0.172013
      7          7           0        1.655799   -1.192274    0.387844
      8          6           0        0.509020   -1.438822   -0.081901
      9          8           0       -0.173301   -0.602423   -0.965748
     10          1           0       -3.434407   -0.631164    0.427946
     11          1           0       -2.272621    1.558719    0.478203
     12          1           0       -2.507953    0.721925   -1.081164
     13          1           0        2.205870    2.139119    0.054883
     14          1           0        3.346412    0.024817    0.240705
     15          1           0       -0.037361   -2.344929    0.161988
 ---------------------------------------------------------------------

 SCF Done:  E(RB3LYP) =  -454.053276503     A.U. after    1 cycles

 The electronic state is 1-A.
 Alpha  occ. eigenvalues --  -19.18088 -19.15501 -14.33831 -14.33702 -10.28930
 Alpha  occ. eigenvalues --  -10.28366 -10.25082 -10.21787 -10.21710  -1.09371
 Alpha  occ. eigenvalues --   -1.03466  -0.93596  -0.93124  -0.76393  -0.73279
 Alpha  occ. eigenvalues --   -0.66485  -0.59727  -0.56937  -0.53767  -0.51910
 Alpha  occ. eigenvalues --   -0.48827  -0.47165  -0.45304  -0.44369  -0.40495
 Alpha  occ. eigenvalues --   -0.39480  -0.36394  -0.33138  -0.31770  -0.29731
 Alpha  occ. eigenvalues --   -0.29082  -0.27109  -0.22755
 Alpha virt. eigenvalues --   -0.04669  -0.00348   0.06849   0.08518   0.12319
 Alpha virt. eigenvalues --    0.12585   0.13717   0.14678   0.16537   0.18222
 Alpha virt. eigenvalues --    0.20052   0.20624   0.24758   0.27268   0.29956

 Mulliken charges:
               1
     1  O   -0.414747
     2  C   -0.158838
     3  C    0.385591
     4  N   -0.268561
     5  C   -0.038747
     6  C   -0.024412
     7  N   -0.213759
     8  C    0.070545
     9  O   -0.243612
    10  H    0.297969
    11  H    0.124322
    12  H    0.114361
    13  H    0.111714
    14  H    0.113497
    15  H    0.144677
 Sum of Mulliken charges =  -0.00000

 Dipole moment (field-independent basis, Debye):
    X=             -2.1806    Y=              0.3767    Z=             -0.9026  Tot=              2.3899
 Quadrupole moment (field-independent basis, Debye-Ang):
   XX=            -38.9121   YY=            -51.1768   ZZ=            -54.1433
   XY=              2.6300   XZ=              0.4950   YZ=             -0.1306

  Exact polarizability:  95.205   2.360  76.913   5.805  -0.693  42.252
 Approx polarizability: 143.661   2.992 135.312  16.006   1.105  71.774

                      1                      2                      3
                      A                      A                      A
 Frequencies --     78.2058               104.7887               126.1448
 Red. masses --      4.5311                 5.1491                 1.0690
 Frc consts  --      0.0163                 0.0333                 0.0100
 IR Inten    --      2.2595                 7.1545                98.7213

                      4                      5                      6
                      A                      A                      A
 Frequencies --    231.2248               280.3756               337.1960
 Red. masses --      2.9910                 7.4888                 3.3799
 Frc consts  --      0.0942                 0.3469                 0.2264
 IR Inten    --      1.6914                 2.9798                 9.2736

                      7                      8                      9
                      A                      A                      A
 Frequencies --    409.0138               411.1743               472.3080
 Red. masses --      3.8500                 5.3607                 5.2158
 Frc consts  --      0.3795                 0.5340                 0.6855
 IR Inten    --      7.5714                14.1135                 8.1477

                     10                     11                     12
                      A                      A                      A
 Frequencies --    587.7875               722.0926               749.0257
 Red. masses --      3.7580                 6.2690                 5.5645
 Frc consts  --      0.7650                 1.9259                 1.8394
 IR Inten    --      7.1795                16.2875                21.6863

                     13                     14                     15
                      A                      A                      A
 Frequencies --    828.1365               850.7144               900.1033
 Red. masses --      4.4580                 1.4936                 5.9409
 Frc consts  --      1.8013                 0.6369                 2.8359
 IR Inten    --     22.9504                13.2686                31.4311

                     16                     17                     18
                      A                      A                      A
 Frequencies --    914.5595               958.3267               964.3596
 Red. masses --      1.9744                 1.3763                 3.8307
 Frc consts  --      0.9730                 0.7447                 2.0990
 IR Inten    --      5.0845                 6.6996                64.6285

                     19                     20                     21
                      A                      A                      A
 Frequencies --    990.7324              1022.4860              1078.2890
 Red. masses --      2.5997                 3.7845                 6.3474
 Frc consts  --      1.5035                 2.3311                 4.3483
 IR Inten    --     29.1070                51.2925               102.0903

                     22                     23                     24
                      A                      A                      A
 Frequencies --   1147.3242              1183.6286              1227.8600
 Red. masses --      2.6729                 2.7823                 1.0885
 Frc consts  --      2.0731                 2.2966                 0.9668
 IR Inten    --     48.7654                24.7570                22.3482

                     25                     26                     27
                      A                      A                      A
 Frequencies --   1275.7375              1286.5468              1371.6299
 Red. masses --      1.1675                 1.2268                 1.2017
 Frc consts  --      1.1195                 1.1964                 1.3321
 IR Inten    --     22.4000                 8.8720                 4.6749

                     28                     29                     30
                      A                      A                      A
 Frequencies --   1441.1097              1451.1910              1499.6558
 Red. masses --      1.5390                 1.5346                 1.0782
 Frc consts  --      1.8831                 1.9042                 1.4287
 IR Inten    --      3.5338                15.9734                 2.8245

                     31                     32                     33
                      A                      A                      A
 Frequencies --   1605.4842              1673.9937              1727.0976
 Red. masses --      5.8951                 9.3146                 9.6189
 Frc consts  --      8.9527                15.3788                16.9047
 IR Inten    --      0.6189                20.6519               107.8472

                     34                     35                     36
                      A                      A                      A
 Frequencies --   2984.9412              3058.4215              3169.2360
 Red. masses --      1.0641                 1.0970                 1.0838
 Frc consts  --      5.5860                 6.0459                 6.4139
 IR Inten    --     36.0016                25.8554                 0.3219

                     37                     38                     39
                      A                      A                      A
 Frequencies --   3188.1618              3192.2520              3840.6060
 Red. masses --      1.0938                 1.0952                 1.0667
 Frc consts  --      6.5504                 6.5757                 9.2706
 IR Inten    --     33.3833                 4.8706                33.7273

 - Thermochemistry -
 -------------------
 Temperature   298.150 Kelvin.  Pressure   1.00000 Atm.
 Atom     1 has atomic number  8 and mass  15.99491

 Molecular mass:   126.04293 amu.
 Principal axes and moments of inertia in atomic units:
                           1         2         3
     Eigenvalues --   531.747881268.804931614.76140
           X            0.99996   0.00813   0.00344
           Y           -0.00811   0.99995  -0.00564
           Z           -0.00348   0.00561   0.99998
 This molecule is an asymmetric top.
 Rotational symmetry number  1.
 Warning -- assumption of classical behavior for rotation
           may cause significant error
 Rotational temperatures (Kelvin)      0.16289     0.06826     0.05364
 Rotational constants (GHZ):           3.39398     1.42239     1.11765
 Zero-point vibrational energy     295130.2 (Joules/Mol)
                                   70.53782 (Kcal/Mol)
 Warning -- explicit consideration of  10 degrees of freedom as
           vibrations may cause significant error
 Vibrational temperatures:    112.52   150.77   181.49   332.68   403.40
          (Kelvin)            485.15   588.48   591.59   679.55   845.70
                             1038.93  1077.68  1191.50  1223.99  1295.05
                             1315.85  1378.82  1387.50  1425.44  1471.13
                             1551.42  1650.74  1702.98  1766.62  1835.50
                             1851.05  1973.47  2073.44  2087.94  2157.67
                             2309.93  2408.50  2484.91  4294.66  4400.39
                             4559.82  4587.05  4592.94  5525.78

 Zero-point correction=                           0.112409 (Hartree/Particle)
 Thermal correction to Energy=                    0.120511
 Thermal correction to Enthalpy=                  0.121455
 Thermal correction to Gibbs Free Energy=         0.079277
 Sum of electronic and zero-point Energies=           -453.940867
 Sum of electronic and thermal Energies=              -453.932766
 Sum of electronic and thermal Enthalpies=            -453.931822
 Sum of electronic and thermal Free Energies=         -453.974000

                     E (Thermal)             CV                S
                      KCal/Mol        Cal/Mol-Kelvin    Cal/Mol-Kelvin
 Total                   75.622             29.191             88.771
 Electronic               0.000              0.000              0.000
 Translational            0.889              2.981             40.408
 Rotational               0.889              2.981             28.479
 Vibrational             73.844             23.230             19.884
 Vibration     1          0.600              1.964              3.935
 Vibration     2          0.605              1.945              3.363
 Vibration     3          0.611              1.927              3.004
 Vibration     4          0.653              1.793              1.869
 Vibration     5          0.680              1.710              1.531
 Vibration     6          0.718              1.601              1.225
 Vibration     7          0.773              1.451              0.930
 Vibration     8          0.775              1.446              0.922
 Vibration     9          0.829              1.311              0.731
 Vibration    10          0.945              1.058              0.471

 Optimization completed.
    -- Stationary point found.
 Normal termination of Gaussian 16 at Thu Aug  4 05:33:08 2022.
