 Gaussian 16, Revision A.03,
 Gaussian 16:  ES64L-G16RevA.03 25-Dec-2016

 -----------------------------
 # opt freq b3lyp/6-31g(2df,p)
 -----------------------------

 -------------------
 Title Card Required
 -------------------
 Symbolic Z-matrix:
 Charge =  0 Multiplicity = 1

 SCF Done:  E(RB3LYP) =  -422.974754106     A.U. after   17 cycles
 SCF Done:  E(RB3LYP) =  -423.019294675     A.U. after   14 cycles
 SCF Done:  E(RB3LYP) =  -423.054084249     A.U. after   14 cycles
 SCF Done:  E(RB3LYP) =  -423.078599138     A.U. after   14 cycles
 SCF Done:  E(RB3LYP) =  -423.092804673     A.U. after   14 cycles
 SCF Done:  E(RB3LYP) =  -423.097514755     A.U. after   13 cycles
 SCF Done:  E(RB3LYP) =  -423.101887543     A.U. after   14 cycles
 SCF Done:  E(RB3LYP) =  -423.104058205     A.U. after   12 cycles
 SCF Done:  E(RB3LYP) =  -423.106899189     A.U. after   14 cycles
 SCF Done:  E(RB3LYP) =  -423.108554090     A.U. after   13 cycles
 SCF Done:  E(RB3LYP) =  -423.109569353     A.U. after   12 cycles
 SCF Done:  E(RB3LYP) =  -423.109679490     A.U. after   13 cycles
 SCF Done:  E(RB3LYP) =  -423.109834119     A.U. after   12 cycles
 SCF Done:  E(RB3LYP) =  -423.109852040     A.U. after   12 cycles
 SCF Done:  E(RB3LYP) =  -423.109870938     A.U. after   11 cycles
 SCF Done:  E(RB3LYP) =  -423.109877153     A.U. after   11 cycles
 SCF Done:  E(RB3LYP) =  -423.109878498     A.U. after    8 cycles
 SCF Done:  E(RB3LYP) =  -423.109879205     A.U. after    8 cycles
 SCF Done:  E(RB3LYP) =  -423.109879333     A.U. after    8 cycles
 Optimization completed.
    -- Stationary point found.
 Normal termination of Gaussian 16 at Thu Aug  4 08:11:55 2022.

 ----------------------------------------------------------------------
 #N Geom=AllCheck Guess=TCheck SCRF=Check GenChk RB3LYP/6-31G(2df,p) Fr
 eq
 ----------------------------------------------------------------------

 Structure from the checkpoint file:  "OCC1dC2CCCC12O.chk"
 -------------------
 Title Card Required
 -------------------
 Charge =  0 Multiplicity = 1

                         Standard orientation:
 ---------------------------------------------------------------------
 Center     Atomic      Atomic             Coordinates (Angstroms)
 Number     Number       Type             X           Y           Z
 ---------------------------------------------------------------------
      1          8           0        2.554272   -0.315166    0.882523
      2          6           0        1.926936   -0.798002   -0.305325
      3          6           0        0.446109   -0.512877   -0.209883
      4          6           0       -0.502704   -1.486041   -0.541439
      5          6           0       -1.936585   -1.216657   -0.197370
      6          6           0       -2.203960    0.001468    0.700787
      7          6           0       -1.422711    1.181976    0.131771
      8          6           0       -0.001804    0.797769   -0.151467
      9          8           0        0.838583    1.791394   -0.482123
     10          1           0        3.504362   -0.411506    0.769484
     11          1           0        2.047606   -1.882469   -0.425426
     12          1           0        2.357997   -0.308057   -1.193675
     13          1           0       -2.352543   -2.133313    0.242320
     14          1           0       -2.477214   -1.123326   -1.154416
     15          1           0       -1.840150   -0.209418    1.712897
     16          1           0       -3.268684    0.244407    0.779508
     17          1           0       -1.421152    2.036590    0.822678
     18          1           0       -1.888714    1.539940   -0.801327
     19          1           0        0.363959    2.631503   -0.517703
 ---------------------------------------------------------------------

 SCF Done:  E(RB3LYP) =  -423.109879333     A.U. after    1 cycles

 The electronic state is 1-A.
 Alpha  occ. eigenvalues --  -19.20071 -19.11934 -10.27228 -10.20991 -10.20951
 Alpha  occ. eigenvalues --  -10.18534 -10.17708 -10.17236 -10.15988  -1.09170
 Alpha  occ. eigenvalues --   -0.99848  -0.83964  -0.76482  -0.73043  -0.66187
 Alpha  occ. eigenvalues --   -0.63062  -0.59643  -0.51912  -0.50089  -0.49386
 Alpha  occ. eigenvalues --   -0.46695  -0.46296  -0.42598  -0.41465  -0.40116
 Alpha  occ. eigenvalues --   -0.39064  -0.36807  -0.36086  -0.34546  -0.33409
 Alpha  occ. eigenvalues --   -0.31124  -0.25936  -0.24271  -0.16433
 Alpha virt. eigenvalues --   -0.05123   0.04428   0.05364   0.08936   0.10573
 Alpha virt. eigenvalues --    0.13185   0.14471   0.16160   0.16806   0.17564
 Alpha virt. eigenvalues --    0.18132   0.19751   0.21199   0.21482   0.22082

 Mulliken charges:
               1
     1  O   -0.430293
     2  C   -0.164369
     3  C    0.163974
     4  C   -0.221377
     5  C   -0.230083
     6  C   -0.227255
     7  C   -0.328685
     8  C    0.363740
     9  O   -0.380514
    10  H    0.283381
    11  H    0.097902
    12  H    0.085384
    13  H    0.122047
    14  H    0.117003
    15  H    0.112759
    16  H    0.092787
    17  H    0.117223
    18  H    0.122903
    19  H    0.303472
 Sum of Mulliken charges =  -0.00000

 Dipole moment (field-independent basis, Debye):
    X=             -1.0021    Y=              3.8001    Z=             -0.0648  Tot=              3.9306
 Quadrupole moment (field-independent basis, Debye-Ang):
   XX=            -45.7229   YY=            -51.3142   ZZ=            -55.9449
   XY=             -3.1493   XZ=             -1.5025   YZ=             -3.5591

  Exact polarizability:  96.642   4.081  99.989  -1.154   2.789  59.835
 Approx polarizability: 130.050  17.420 194.337   2.480   7.612  94.857

                      1                      2                      3
                      A                      A                      A
 Frequencies --     72.9175                97.7878               151.5925
 Red. masses --      3.7909                 3.4306                 4.5180
 Frc consts  --      0.0119                 0.0193                 0.0612
 IR Inten    --      0.7805                 4.0387                 9.5070

                      4                      5                      6
                      A                      A                      A
 Frequencies --    210.7008               230.9364               263.0441
 Red. masses --      1.3836                 1.8350                 1.6229
 Frc consts  --      0.0362                 0.0577                 0.0662
 IR Inten    --     93.4685                 8.3993                20.9018

                      7                      8                      9
                      A                      A                      A
 Frequencies --    288.7107               390.1924               429.7875
 Red. masses --      2.7136                 3.2864                 3.5057
 Frc consts  --      0.1333                 0.2948                 0.3815
 IR Inten    --      9.8423                 9.2431                 8.3023

                     10                     11                     12
                      A                      A                      A
 Frequencies --    466.1717               492.3849               503.0271
 Red. masses --      1.3533                 3.3975                 3.6352
 Frc consts  --      0.1733                 0.4853                 0.5419
 IR Inten    --     61.8599                15.3745                 8.2946

                     13                     14                     15
                      A                      A                      A
 Frequencies --    643.3466               644.1212               749.0023
 Red. masses --      3.4498                 2.4836                 4.8338
 Frc consts  --      0.8413                 0.6071                 1.5977
 IR Inten    --      9.1176                17.6048                 7.5211

                     16                     17                     18
                      A                      A                      A
 Frequencies --    795.3341               877.7761               889.5416
 Red. masses --      1.7648                 2.9936                 2.0946
 Frc consts  --      0.6577                 1.3590                 0.9765
 IR Inten    --     10.8176                 6.5754                 6.4602

                     19                     20                     21
                      A                      A                      A
 Frequencies --    932.6538              1021.7818              1030.5551
 Red. masses --      2.4884                 1.8720                 1.9325
 Frc consts  --      1.2753                 1.1515                 1.2092
 IR Inten    --     36.0994                14.5328                13.2493

                     22                     23                     24
                      A                      A                      A
 Frequencies --   1040.3326              1075.6974              1095.3521
 Red. masses --      3.0732                 3.4392                 2.2292
 Frc consts  --      1.9597                 2.3447                 1.5758
 IR Inten    --     24.1430                23.4204                66.1242

                     25                     26                     27
                      A                      A                      A
 Frequencies --   1140.7311              1195.5591              1219.2869
 Red. masses --      1.1727                 1.4783                 1.3391
 Frc consts  --      0.8991                 1.2449                 1.1730
 IR Inten    --      5.1607                 7.4122                45.4996

                     28                     29                     30
                      A                      A                      A
 Frequencies --   1229.2789              1256.4910              1270.4860
 Red. masses --      1.1175                 1.2325                 1.4473
 Frc consts  --      0.9949                 1.1465                 1.3764
 IR Inten    --     30.2422                 1.8546                14.3738

                     31                     32                     33
                      A                      A                      A
 Frequencies --   1300.7649              1315.9644              1360.0958
 Red. masses --      2.0536                 1.4799                 1.4445
 Frc consts  --      2.0472                 1.5100                 1.5744
 IR Inten    --    204.9618                26.7913                 4.9777

                     34                     35                     36
                      A                      A                      A
 Frequencies --   1371.7323              1392.8838              1433.9788
 Red. masses --      2.1723                 1.7850                 1.3291
 Frc consts  --      2.4083                 2.0404                 1.6102
 IR Inten    --     19.7255               126.4406                17.3555

                     37                     38                     39
                      A                      A                      A
 Frequencies --   1458.4780              1462.7431              1487.8558
 Red. masses --      1.1353                 1.9600                 1.1002
 Frc consts  --      1.4229                 2.4709                 1.4350
 IR Inten    --      8.3587                43.4243                 4.8796

                     40                     41                     42
                      A                      A                      A
 Frequencies --   1512.1800              1581.5396              2964.1089
 Red. masses --      1.0854                 4.1715                 1.0654
 Frc consts  --      1.4624                 6.1475                 5.5150
 IR Inten    --      2.9974                49.1154                58.5007

                     43                     44                     45
                      A                      A                      A
 Frequencies --   2976.4252              2982.7197              3025.3528
 Red. masses --      1.0666                 1.0710                 1.0793
 Frc consts  --      5.5673                 5.6140                 5.8202
 IR Inten    --     29.3255                17.1229                 2.7617

                     46                     47                     48
                      A                      A                      A
 Frequencies --   3029.5431              3032.3729              3043.3777
 Red. masses --      1.0885                 1.0957                 1.0689
 Frc consts  --      5.8860                 5.9359                 5.8330
 IR Inten    --     16.8199                29.1369                43.7165

                     49                     50                     51
                      A                      A                      A
 Frequencies --   3081.1302              3772.4826              3827.1468
 Red. masses --      1.1050                 1.0659                 1.0662
 Frc consts  --      6.1809                 8.9380                 9.2014
 IR Inten    --     33.0871                65.2397                15.4620

 - Thermochemistry -
 -------------------
 Temperature   298.150 Kelvin.  Pressure   1.00000 Atm.
 Atom     1 has atomic number  8 and mass  15.99491

 Molecular mass:   126.06808 amu.
 Principal axes and moments of inertia in atomic units:
                           1         2         3
     Eigenvalues --   687.717601370.987661795.08424
           X            0.99974  -0.01800  -0.01364
           Y            0.01807   0.99982   0.00489
           Z            0.01355  -0.00513   0.99990
 This molecule is an asymmetric top.
 Rotational symmetry number  1.
 Warning -- assumption of classical behavior for rotation
           may cause significant error
 Rotational temperatures (Kelvin)      0.12594     0.06318     0.04825
 Rotational constants (GHZ):           2.62425     1.31638     1.00538
 Zero-point vibrational energy     413414.2 (Joules/Mol)
                                   98.80837 (Kcal/Mol)
 Warning -- explicit consideration of  12 degrees of freedom as
           vibrations may cause significant error
 Vibrational temperatures:    104.91   140.69   218.11   303.15   332.27
          (Kelvin)            378.46   415.39   561.40   618.37   670.72
                              708.43   723.74   925.63   926.75  1077.65
                             1144.31  1262.92  1279.85  1341.88  1470.12
                             1482.74  1496.81  1547.69  1575.97  1641.26
                             1720.14  1754.28  1768.66  1807.81  1827.95
                             1871.51  1893.38  1956.87  1973.62  2004.05
                             2063.18  2098.42  2104.56  2140.69  2175.69
                             2275.48  4264.69  4282.41  4291.47  4352.81
                             4358.84  4362.91  4378.74  4433.06  5427.76
                             5506.41

 Zero-point correction=                           0.157461 (Hartree/Particle)
 Thermal correction to Energy=                    0.166659
 Thermal correction to Enthalpy=                  0.167604
 Thermal correction to Gibbs Free Energy=         0.123434
 Sum of electronic and zero-point Energies=           -422.952418
 Sum of electronic and thermal Energies=              -422.943220
 Sum of electronic and thermal Enthalpies=            -422.942276
 Sum of electronic and thermal Free Energies=         -422.986445

                     E (Thermal)             CV                S
                      KCal/Mol        Cal/Mol-Kelvin    Cal/Mol-Kelvin
 Total                  104.580             34.241             92.962
 Electronic               0.000              0.000              0.000
 Translational            0.889              2.981             40.409
 Rotational               0.889              2.981             28.916
 Vibrational            102.803             28.279             23.637
 Vibration     1          0.599              1.967              4.073
 Vibration     2          0.603              1.951              3.498
 Vibration     3          0.619              1.901              2.652
 Vibration     4          0.643              1.825              2.038
 Vibration     5          0.653              1.794              1.872
 Vibration     6          0.670              1.741              1.641
 Vibration     7          0.685              1.695              1.482
 Vibration     8          0.758              1.491              0.999
 Vibration     9          0.791              1.405              0.859
 Vibration    10          0.824              1.325              0.748
 Vibration    11          0.848              1.267              0.677
 Vibration    12          0.858              1.243              0.651

                           ! Non-Optimized Parameters !
 Normal termination of Gaussian 16 at Thu Aug  4 08:41:15 2022.
