 Gaussian 16, Revision A.03,
 Gaussian 16:  ES64L-G16RevA.03 25-Dec-2016

 -----------------------------
 # opt freq b3lyp/6-31g(2df,p)
 -----------------------------

 -------------------
 Title Card Required
 -------------------
 Symbolic Z-matrix:
 Charge =  0 Multiplicity = 1

 SCF Done:  E(RB3LYP) =  -515.064269123     A.U. after   15 cycles
 SCF Done:  E(RB3LYP) =  -515.074164473     A.U. after   13 cycles
 SCF Done:  E(RB3LYP) =  -515.081756967     A.U. after   13 cycles
 SCF Done:  E(RB3LYP) =  -515.080280102     A.U. after   13 cycles
 SCF Done:  E(RB3LYP) =  -515.089037556     A.U. after   12 cycles
 SCF Done:  E(RB3LYP) =  -515.092537054     A.U. after   12 cycles
 SCF Done:  E(RB3LYP) =  -515.097110749     A.U. after   12 cycles
 SCF Done:  E(RB3LYP) =  -515.097936907     A.U. after   11 cycles
 SCF Done:  E(RB3LYP) =  -515.098071117     A.U. after   11 cycles
 SCF Done:  E(RB3LYP) =  -515.098124635     A.U. after    9 cycles
 SCF Done:  E(RB3LYP) =  -515.098142348     A.U. after    9 cycles
 SCF Done:  E(RB3LYP) =  -515.098147473     A.U. after    9 cycles
 SCF Done:  E(RB3LYP) =  -515.098149674     A.U. after    9 cycles
 SCF Done:  E(RB3LYP) =  -515.098152311     A.U. after    9 cycles
 SCF Done:  E(RB3LYP) =  -515.098154963     A.U. after    9 cycles
 SCF Done:  E(RB3LYP) =  -515.098156257     A.U. after    9 cycles
 SCF Done:  E(RB3LYP) =  -515.098156516     A.U. after    8 cycles
 Optimization completed.
    -- Stationary point found.
 Normal termination of Gaussian 16 at Thu Aug  4 17:17:44 2022.

 ----------------------------------------------------------------------
 #N Geom=AllCheck Guess=TCheck SCRF=Check GenChk RB3LYP/6-31G(2df,p) Fr
 eq
 ----------------------------------------------------------------------

 Structure from the checkpoint file:  "OCC1dCNpFpNdCO1.chk"
 -------------------
 Title Card Required
 -------------------
 Charge =  0 Multiplicity = 1

                         Standard orientation:
 ---------------------------------------------------------------------
 Center     Atomic      Atomic             Coordinates (Angstroms)
 Number     Number       Type             X           Y           Z
 ---------------------------------------------------------------------
      1          8           0       -2.974824   -0.199794    0.551933
      2          6           0       -2.100458   -0.597355   -0.492806
      3          6           0       -0.717118   -0.157295   -0.157145
      4          6           0        0.322842   -0.945712    0.094279
      5          7           0        1.564719   -0.398811    0.521107
      6          9           0        2.562357   -1.127744   -0.217461
      7          7           0        1.756895    0.936634    0.133659
      8          6           0        0.721531    1.627642   -0.114962
      9          8           0       -0.575964    1.224147   -0.111027
     10          1           0       -3.873008   -0.204135    0.207922
     11          1           0       -2.389367   -0.136881   -1.449828
     12          1           0       -2.092712   -1.688400   -0.631319
     13          1           0        0.264545   -2.023841    0.095866
     14          1           0        0.823552    2.679683   -0.352305
 ---------------------------------------------------------------------

 SCF Done:  E(RB3LYP) =  -515.098156516     A.U. after    1 cycles

 The electronic state is 1-A.
 Alpha  occ. eigenvalues --  -24.68282 -19.21517 -19.15410 -14.44809 -14.36932
 Alpha  occ. eigenvalues --  -10.29588 -10.26577 -10.25944 -10.23308  -1.19491
 Alpha  occ. eigenvalues --   -1.12211  -1.03613  -0.98561  -0.85766  -0.77181
 Alpha  occ. eigenvalues --   -0.71117  -0.66894  -0.58363  -0.54699  -0.53713
 Alpha  occ. eigenvalues --   -0.51069  -0.49484  -0.47906  -0.45364  -0.44784
 Alpha  occ. eigenvalues --   -0.43427  -0.39591  -0.37899  -0.36082  -0.33657
 Alpha  occ. eigenvalues --   -0.31958  -0.29753  -0.28818  -0.22129
 Alpha virt. eigenvalues --   -0.02727   0.00004   0.05915   0.08958   0.10227
 Alpha virt. eigenvalues --    0.10495   0.12284   0.13903   0.15903   0.19934
 Alpha virt. eigenvalues --    0.21043   0.22230   0.24528   0.28463   0.35513

 Mulliken charges:
               1
     1  O   -0.407717
     2  C   -0.183456
     3  C    0.378142
     4  C   -0.110741
     5  N    0.002061
     6  F   -0.202096
     7  N   -0.196368
     8  C    0.140264
     9  O   -0.242297
    10  H    0.295495
    11  H    0.112423
    12  H    0.109736
    13  H    0.146626
    14  H    0.157928
 Sum of Mulliken charges =  -0.00000

 Dipole moment (field-independent basis, Debye):
    X=             -3.9529    Y=             -0.0324    Z=             -2.0060  Tot=              4.4329
 Quadrupole moment (field-independent basis, Debye-Ang):
   XX=            -50.3183   YY=            -44.7113   ZZ=            -51.4251
   XY=              3.3510   XZ=              3.5033   YZ=             -0.2862

  Exact polarizability:  84.253  -5.015  66.700   4.248  -1.799  39.701
 Approx polarizability: 132.710 -25.768 106.715   9.491  -5.403  64.488

                      1                      2                      3
                      A                      A                      A
 Frequencies --     68.4179                86.0943               136.7139
 Red. masses --      5.4680                 7.5326                 5.1697
 Frc consts  --      0.0151                 0.0329                 0.0569
 IR Inten    --      3.0383                 2.9831                 0.7671

                      4                      5                      6
                      A                      A                      A
 Frequencies --    170.9553               279.6053               298.8925
 Red. masses --      1.1330                 6.3764                 3.0477
 Frc consts  --      0.0195                 0.2937                 0.1604
 IR Inten    --    103.0399                 2.6985                 1.9704

                      7                      8                      9
                      A                      A                      A
 Frequencies --    414.7208               450.5771               514.5521
 Red. masses --      4.0558                 7.5599                 4.3961
 Frc consts  --      0.4110                 0.9043                 0.6858
 IR Inten    --      3.9796                 3.3440                10.0083

                     10                     11                     12
                      A                      A                      A
 Frequencies --    560.5475               656.4532               684.3566
 Red. masses --      5.8984                 8.8913                 5.1783
 Frc consts  --      1.0920                 2.2575                 1.4289
 IR Inten    --     25.4048                 4.9506                 2.8353

                     13                     14                     15
                      A                      A                      A
 Frequencies --    786.4456               838.5135               854.6031
 Red. masses --      5.7122                 2.3002                 3.3700
 Frc consts  --      2.0816                 0.9529                 1.4501
 IR Inten    --     52.5749               115.9267                21.9842

                     16                     17                     18
                      A                      A                      A
 Frequencies --    874.2755               931.5690               966.6851
 Red. masses --      3.4473                 1.4299                 3.5233
 Frc consts  --      1.5525                 0.7311                 1.9399
 IR Inten    --     35.1277                 8.1223                 0.4807

                     19                     20                     21
                      A                      A                      A
 Frequencies --   1021.8073              1062.2036              1128.3398
 Red. masses --      2.3403                 8.2027                 5.0221
 Frc consts  --      1.4397                 5.4528                 3.7672
 IR Inten    --      2.1885                74.7577                17.9260

                     22                     23                     24
                      A                      A                      A
 Frequencies --   1143.4936              1216.7974              1245.4407
 Red. masses --      8.2004                 1.7577                 1.4253
 Frc consts  --      6.3176                 1.5333                 1.3026
 IR Inten    --    151.6116                70.5963                12.7512

                     25                     26                     27
                      A                      A                      A
 Frequencies --   1265.7642              1317.6165              1385.7331
 Red. masses --      1.1780                 1.3284                 1.2834
 Frc consts  --      1.1120                 1.3588                 1.4520
 IR Inten    --     27.0203                 3.6220                 6.8007

                     28                     29                     30
                      A                      A                      A
 Frequencies --   1461.5755              1497.4855              1684.2002
 Red. masses --      1.4889                 1.0978                 9.5392
 Frc consts  --      1.8740                 1.4505                15.9423
 IR Inten    --     20.8711                 1.9006                76.2432

                     31                     32                     33
                      A                      A                      A
 Frequencies --   1765.3723              2984.0816              3021.5003
 Red. masses --      8.4655                 1.0560                 1.1052
 Frc consts  --     15.5444                 5.5404                 5.9448
 IR Inten    --     23.0710                39.2657                35.1692

                     34                     35                     36
                      A                      A                      A
 Frequencies --   3222.7317              3251.8740              3830.8670
 Red. masses --      1.0934                 1.0943                 1.0665
 Frc consts  --      6.6909                 6.8182                 9.2219
 IR Inten    --      3.1937                 1.6807                27.3720

 - Thermochemistry -
 -------------------
 Temperature   298.150 Kelvin.  Pressure   1.00000 Atm.
 Atom     1 has atomic number  8 and mass  15.99491

 Molecular mass:   132.03351 amu.
 Principal axes and moments of inertia in atomic units:
                           1         2         3
     Eigenvalues --   501.873031633.607022020.33078
           X            0.99953   0.02896   0.01028
           Y           -0.02896   0.99958  -0.00060
           Z           -0.01029   0.00030   0.99995
 This molecule is an asymmetric top.
 Rotational symmetry number  1.
 Warning -- assumption of classical behavior for rotation
           may cause significant error
 Rotational temperatures (Kelvin)      0.17258     0.05302     0.04287
 Rotational constants (GHZ):           3.59601     1.10476     0.89329
 Zero-point vibrational energy     257680.8 (Joules/Mol)
                                   61.58718 (Kcal/Mol)
 Warning -- explicit consideration of  10 degrees of freedom as
           vibrations may cause significant error
 Vibrational temperatures:     98.44   123.87   196.70   245.97   402.29
          (Kelvin)            430.04   596.69   648.28   740.33   806.50
                              944.49   984.64  1131.52  1206.43  1229.58
                             1257.89  1340.32  1390.84  1470.15  1528.27
                             1623.43  1645.23  1750.70  1791.91  1821.15
                             1895.76  1993.76  2102.88  2154.55  2423.19
                             2539.98  4293.43  4347.27  4636.79  4678.72
                             5511.76

 Zero-point correction=                           0.098145 (Hartree/Particle)
 Thermal correction to Energy=                    0.106430
 Thermal correction to Enthalpy=                  0.107374
 Thermal correction to Gibbs Free Energy=         0.064348
 Sum of electronic and zero-point Energies=           -515.000011
 Sum of electronic and thermal Energies=              -514.991727
 Sum of electronic and thermal Enthalpies=            -514.990783
 Sum of electronic and thermal Free Energies=         -515.033809

                     E (Thermal)             CV                S
                      KCal/Mol        Cal/Mol-Kelvin    Cal/Mol-Kelvin
 Total                   66.786             29.402             90.555
 Electronic               0.000              0.000              0.000
 Translational            0.889              2.981             40.546
 Rotational               0.889              2.981             28.895
 Vibrational             65.008             23.440             21.114
 Vibration     1          0.598              1.969              4.198
 Vibration     2          0.601              1.959              3.747
 Vibration     3          0.614              1.917              2.849
 Vibration     4          0.626              1.878              2.425
 Vibration     5          0.680              1.711              1.536
 Vibration     6          0.692              1.676              1.423
 Vibration     7          0.778              1.438              0.910
 Vibration     8          0.809              1.360              0.794
 Vibration     9          0.870              1.218              0.623
 Vibration    10          0.916              1.117              0.523

                           ! Non-Optimized Parameters !
 Normal termination of Gaussian 16 at Thu Aug  4 17:38:56 2022.
