 Gaussian 16, Revision A.03,
 Gaussian 16:  ES64L-G16RevA.03 25-Dec-2016

 -----------------------------
 # opt freq b3lyp/6-31g(2df,p)
 -----------------------------

 -------------------
 Title Card Required
 -------------------
 Symbolic Z-matrix:
 Charge =  0 Multiplicity = 1

 SCF Done:  E(RB3LYP) =  -347.823327791     A.U. after   14 cycles
 SCF Done:  E(RB3LYP) =  -347.844752572     A.U. after   13 cycles
 SCF Done:  E(RB3LYP) =  -347.854408278     A.U. after   13 cycles
 SCF Done:  E(RB3LYP) =  -347.860855559     A.U. after   14 cycles
 SCF Done:  E(RB3LYP) =  -347.862546400     A.U. after   13 cycles
 SCF Done:  E(RB3LYP) =  -347.863110778     A.U. after   13 cycles
 SCF Done:  E(RB3LYP) =  -347.863188263     A.U. after   12 cycles
 SCF Done:  E(RB3LYP) =  -347.863225817     A.U. after   12 cycles
 SCF Done:  E(RB3LYP) =  -347.863242185     A.U. after   11 cycles
 SCF Done:  E(RB3LYP) =  -347.863248384     A.U. after   10 cycles
 SCF Done:  E(RB3LYP) =  -347.863251736     A.U. after   10 cycles
 SCF Done:  E(RB3LYP) =  -347.863252407     A.U. after    8 cycles
 SCF Done:  E(RB3LYP) =  -347.863252428     A.U. after    7 cycles
 Optimization completed.
    -- Stationary point found.
 Normal termination of Gaussian 16 at Thu Aug  4 04:09:14 2022.

 ----------------------------------------------------------------------
 #N Geom=AllCheck Guess=TCheck SCRF=Check GenChk RB3LYP/6-31G(2df,p) Fr
 eq
 ----------------------------------------------------------------------

 Structure from the checkpoint file:  "OCCC1dCdCCC1.chk"
 -------------------
 Title Card Required
 -------------------
 Charge =  0 Multiplicity = 1

                         Standard orientation:
 ---------------------------------------------------------------------
 Center     Atomic      Atomic             Coordinates (Angstroms)
 Number     Number       Type             X           Y           Z
 ---------------------------------------------------------------------
      1          8           0        3.383261    0.059428    0.124875
      2          6           0        2.109936   -0.035096   -0.489696
      3          6           0        1.061843   -0.077263    0.635192
      4          6           0       -0.328381   -0.128698    0.103394
      5          6           0       -1.091754   -1.267123   -0.036372
      6          6           0       -2.395391   -0.876443   -0.135491
      7          6           0       -2.584123    0.600823    0.134542
      8          6           0       -1.136491    1.118254   -0.208867
      9          1           0        4.053532   -0.012739   -0.560930
     10          1           0        2.014261   -0.946085   -1.097979
     11          1           0        1.917069    0.828289   -1.147111
     12          1           0        1.210807    0.815694    1.254765
     13          1           0        1.257545   -0.969946    1.238183
     14          1           0       -3.215428   -1.484144   -0.512935
     15          1           0       -2.827839    0.853533    1.175526
     16          1           0       -3.381469    1.026950   -0.486332
     17          1           0       -0.800464    1.977752    0.383295
     18          1           0       -1.107930    1.428544   -1.261699
 ---------------------------------------------------------------------

 SCF Done:  E(RB3LYP) =  -347.863252428     A.U. after    1 cycles

 The electronic state is 1-A.
 Alpha  occ. eigenvalues --  -19.13657 -10.23386 -10.21410 -10.20296 -10.19860
 Alpha  occ. eigenvalues --  -10.19745 -10.18528 -10.13957  -1.01826  -0.85613
 Alpha  occ. eigenvalues --   -0.77307  -0.70232  -0.68624  -0.61753  -0.56398
 Alpha  occ. eigenvalues --   -0.52442  -0.48496  -0.47080  -0.45962  -0.45258
 Alpha  occ. eigenvalues --   -0.40990  -0.38954  -0.37042  -0.36234  -0.35503
 Alpha  occ. eigenvalues --   -0.33627  -0.33356  -0.27111  -0.26340  -0.18512
 Alpha virt. eigenvalues --   -0.08299   0.05890   0.07705   0.09382   0.12010
 Alpha virt. eigenvalues --    0.13183   0.14569   0.14940   0.16353   0.17169
 Alpha virt. eigenvalues --    0.18806   0.19517   0.20588   0.21594   0.23355

 Mulliken charges:
               1
     1  O   -0.415610
     2  C   -0.069431
     3  C   -0.278022
     4  C    0.299310
     5  C   -0.246390
     6  C   -0.035970
     7  C   -0.246096
     8  C   -0.294242
     9  H    0.288164
    10  H    0.108439
    11  H    0.086231
    12  H    0.109814
    13  H    0.124173
    14  H    0.103859
    15  H    0.126728
    16  H    0.104615
    17  H    0.105999
    18  H    0.128430
 Sum of Mulliken charges =  -0.00000

 Dipole moment (field-independent basis, Debye):
    X=             -0.3137    Y=              2.3314    Z=             -1.3216  Tot=              2.6982
 Quadrupole moment (field-independent basis, Debye-Ang):
   XX=            -41.8662   YY=            -52.4314   ZZ=            -47.2472
   XY=             -2.5607   XZ=             -4.9623   YZ=              0.1401

  Exact polarizability: 109.633   2.915  76.727   4.029   1.680  56.875
 Approx polarizability: 158.802   6.445 135.395  12.593   5.362  89.315

                      1                      2                      3
                      A                      A                      A
 Frequencies --     38.4813                92.2414                98.7436
 Red. masses --      2.8545                 3.2494                 2.7803
 Frc consts  --      0.0025                 0.0163                 0.0160
 IR Inten    --      3.1516                 0.8277                 8.2474

                      4                      5                      6
                      A                      A                      A
 Frequencies --    203.0725               230.4336               292.7959
 Red. masses --      2.2195                 1.0795                 2.9562
 Frc consts  --      0.0539                 0.0338                 0.1493
 IR Inten    --      2.1398                99.8539                12.7448

                      7                      8                      9
                      A                      A                      A
 Frequencies --    336.8122               376.2983               518.1752
 Red. masses --      3.7828                 2.8362                 2.3875
 Frc consts  --      0.2528                 0.2366                 0.3777
 IR Inten    --     10.8790                 4.1009                32.9094

                     10                     11                     12
                      A                      A                      A
 Frequencies --    621.2228               698.7310               763.8303
 Red. masses --      4.0009                 1.9834                 2.5292
 Frc consts  --      0.9097                 0.5705                 0.8694
 IR Inten    --     75.4570                13.1857                 9.2652

                     13                     14                     15
                      A                      A                      A
 Frequencies --    813.5661               863.0894               894.4134
 Red. masses --      1.2857                 1.7469                 2.1556
 Frc consts  --      0.5014                 0.7667                 1.0160
 IR Inten    --      0.9695                 2.8711                 0.7842

                     16                     17                     18
                      A                      A                      A
 Frequencies --    898.2920               948.9550               972.7407
 Red. masses --      2.5438                 2.6265                 2.5172
 Frc consts  --      1.2094                 1.3935                 1.4033
 IR Inten    --      1.8215                10.4850                23.4183

                     19                     20                     21
                      A                      A                      A
 Frequencies --   1008.8256              1037.4958              1076.3076
 Red. masses --      1.8375                 2.0713                 4.6333
 Frc consts  --      1.1018                 1.3136                 3.1624
 IR Inten    --     18.8355                27.8318                87.2335

                     22                     23                     24
                      A                      A                      A
 Frequencies --   1114.2003              1174.3628              1199.9632
 Red. masses --      1.3259                 1.5941                 1.2792
 Frc consts  --      0.9698                 1.2953                 1.0852
 IR Inten    --      9.9686                27.0941                 0.9540

                     25                     26                     27
                      A                      A                      A
 Frequencies --   1212.1487              1225.5015              1246.0063
 Red. masses --      1.5044                 1.2212                 1.4084
 Frc consts  --      1.3023                 1.0806                 1.2883
 IR Inten    --     22.1345                13.2081                 9.2558

                     28                     29                     30
                      A                      A                      A
 Frequencies --   1255.6438              1303.0670              1313.8247
 Red. masses --      1.3386                 1.1973                 1.2796
 Frc consts  --      1.2434                 1.1978                 1.3013
 IR Inten    --     11.1782                 0.8506                14.7389

                     31                     32                     33
                      A                      A                      A
 Frequencies --   1324.9154              1429.3980              1445.0882
 Red. masses --      1.7279                 2.3441                 1.4394
 Frc consts  --      1.7871                 2.8218                 1.7710
 IR Inten    --     41.6155                35.0441                22.3767

                     34                     35                     36
                      A                      A                      A
 Frequencies --   1458.5395              1476.7577              1484.9021
 Red. masses --      1.1659                 1.1348                 1.2616
 Frc consts  --      1.4613                 1.4581                 1.6389
 IR Inten    --      8.3759                 4.7378                 0.6973

                     37                     38                     39
                      A                      A                      A
 Frequencies --   1527.6490              1541.4623              2966.5091
 Red. masses --      1.0922                 5.1188                 1.0612
 Frc consts  --      1.5018                 7.1661                 5.5023
 IR Inten    --      7.1628               129.0368                49.1045

                     40                     41                     42
                      A                      A                      A
 Frequencies --   3013.7881              3014.6057              3019.3942
 Red. masses --      1.0962                 1.0624                 1.0622
 Frc consts  --      5.8664                 5.6886                 5.7053
 IR Inten    --     25.2587                30.7540                18.5400

                     43                     44                     45
                      A                      A                      A
 Frequencies --   3028.2886              3057.0943              3067.1723
 Red. masses --      1.0609                 1.0958                 1.1014
 Frc consts  --      5.7322                 6.0340                 6.1049
 IR Inten    --     30.1202                17.7073                28.8701

                     46                     47                     48
                      A                      A                      A
 Frequencies --   3090.9996              3150.0588              3829.8551
 Red. masses --      1.1044                 1.0902                 1.0663
 Frc consts  --      6.2169                 6.3736                 9.2152
 IR Inten    --     18.1487                35.6956                27.5820

 - Thermochemistry -
 -------------------
 Temperature   298.150 Kelvin.  Pressure   1.00000 Atm.
 Atom     1 has atomic number  8 and mass  15.99491

 Molecular mass:   110.07317 amu.
 Principal axes and moments of inertia in atomic units:
                           1         2         3
     Eigenvalues --   285.386991814.750791966.65511
           X            0.99992  -0.01135  -0.00538
           Y            0.01137   0.99993   0.00311
           Z            0.00534  -0.00317   0.99998
 This molecule is an asymmetric top.
 Rotational symmetry number  1.
 Rotational temperatures (Kelvin)      0.30350     0.04773     0.04404
 Rotational constants (GHZ):           6.32384     0.99448     0.91767
 Zero-point vibrational energy     399287.9 (Joules/Mol)
                                   95.43209 (Kcal/Mol)
 Warning -- explicit consideration of   9 degrees of freedom as
           vibrations may cause significant error
 Vibrational temperatures:     55.37   132.71   142.07   292.18   331.54
          (Kelvin)            421.27   484.60   541.41   745.54   893.80
                             1005.32  1098.98  1170.54  1241.79  1286.86
                             1292.44  1365.33  1399.56  1451.48  1492.72
                             1548.57  1603.09  1689.65  1726.48  1744.01
                             1763.22  1792.73  1806.59  1874.82  1890.30
                             1906.26  2056.58  2079.16  2098.51  2124.72
                             2136.44  2197.95  2217.82  4268.14  4336.17
                             4337.35  4344.23  4357.03  4398.48  4412.98
                             4447.26  4532.23  5510.31

 Zero-point correction=                           0.152081 (Hartree/Particle)
 Thermal correction to Energy=                    0.160644
 Thermal correction to Enthalpy=                  0.161588
 Thermal correction to Gibbs Free Energy=         0.118021
 Sum of electronic and zero-point Energies=           -347.711172
 Sum of electronic and thermal Energies=              -347.702608
 Sum of electronic and thermal Enthalpies=            -347.701664
 Sum of electronic and thermal Free Energies=         -347.745232

                     E (Thermal)             CV                S
                      KCal/Mol        Cal/Mol-Kelvin    Cal/Mol-Kelvin
 Total                  100.806             30.491             91.695
 Electronic               0.000              0.000              0.000
 Translational            0.889              2.981             40.004
 Rotational               0.889              2.981             28.412
 Vibrational             99.028             24.529             23.279
 Vibration     1          0.594              1.982              5.336
 Vibration     2          0.602              1.955              3.612
 Vibration     3          0.604              1.950              3.479
 Vibration     4          0.639              1.836              2.105
 Vibration     5          0.652              1.794              1.876
 Vibration     6          0.688              1.687              1.458
 Vibration     7          0.718              1.602              1.227
 Vibration     8          0.747              1.521              1.054
 Vibration     9          0.873              1.210              0.614

 Optimization completed.
    -- Stationary point found.
 Normal termination of Gaussian 16 at Thu Aug  4 04:33:14 2022.
