 Gaussian 16, Revision A.03,
 Gaussian 16:  ES64L-G16RevA.03 25-Dec-2016

 -----------------------------
 # opt freq b3lyp/6-31g(2df,p)
 -----------------------------

 -------------------
 Title Card Required
 -------------------
 Symbolic Z-matrix:
 Charge =  0 Multiplicity = 1

 SCF Done:  E(RB3LYP) =  -403.103963089     A.U. after   15 cycles
 SCF Done:  E(RB3LYP) =  -403.131481003     A.U. after   12 cycles
 SCF Done:  E(RB3LYP) =  -403.150372428     A.U. after   15 cycles
 SCF Done:  E(RB3LYP) =  -403.169944053     A.U. after   15 cycles
 SCF Done:  E(RB3LYP) =  -403.182533267     A.U. after   15 cycles
 SCF Done:  E(RB3LYP) =  -403.190273403     A.U. after   13 cycles
 SCF Done:  E(RB3LYP) =  -403.195459062     A.U. after   14 cycles
 SCF Done:  E(RB3LYP) =  -403.197623841     A.U. after   13 cycles
 SCF Done:  E(RB3LYP) =  -403.198858667     A.U. after   13 cycles
 SCF Done:  E(RB3LYP) =  -403.200179040     A.U. after   13 cycles
 SCF Done:  E(RB3LYP) =  -403.211545791     A.U. after   12 cycles
 SCF Done:  E(RB3LYP) =  -403.211679205     A.U. after   12 cycles
 SCF Done:  E(RB3LYP) =  -403.211685143     A.U. after   11 cycles
 SCF Done:  E(RB3LYP) =  -403.211682655     A.U. after   11 cycles
 SCF Done:  E(RB3LYP) =  -403.211694198     A.U. after   10 cycles
 SCF Done:  E(RB3LYP) =  -403.211695211     A.U. after    8 cycles
 SCF Done:  E(RB3LYP) =  -403.211695355     A.U. after    8 cycles
 SCF Done:  E(RB3LYP) =  -403.211695456     A.U. after    7 cycles
 SCF Done:  E(RB3LYP) =  -403.211695520     A.U. after    7 cycles
 Optimization completed.
    -- Stationary point found.
 Normal termination of Gaussian 16 at Sun Jul  3 18:31:14 2022.

 ----------------------------------------------------------------------
 #N Geom=AllCheck Guess=TCheck SCRF=Check GenChk RB3LYP/6-31G(2df,p) Fr
 eq
 ----------------------------------------------------------------------

 Structure from the checkpoint file:  "OCCC1CCC2dCN21.chk"
 -------------------
 Title Card Required
 -------------------
 Charge =  0 Multiplicity = 1

                         Standard orientation:
 ---------------------------------------------------------------------
 Center     Atomic      Atomic             Coordinates (Angstroms)
 Number     Number       Type             X           Y           Z
 ---------------------------------------------------------------------
      1          8           0       -3.604339   -0.157369   -0.223099
      2          6           0       -2.383442    0.220956    0.395641
      3          6           0       -1.250361   -0.479573   -0.343219
      4          6           0        0.129960   -0.205043    0.243227
      5          6           0        0.602193    1.284722    0.131048
      6          6           0        2.156374    1.285375   -0.160432
      7          6           0        2.382384   -0.167268   -0.182614
      8          6           0        2.350948   -1.312654    0.390229
      9          7           0        1.170227   -0.988143   -0.518164
     10          1           0       -4.323675    0.286675    0.235007
     11          1           0       -2.369852   -0.070874    1.459530
     12          1           0       -2.244894    1.314001    0.359057
     13          1           0       -1.264721   -0.178060   -1.396998
     14          1           0       -1.435250   -1.559090   -0.324217
     15          1           0        0.148413   -0.498842    1.304335
     16          1           0        0.379360    1.853976    1.036198
     17          1           0        0.085953    1.769785   -0.702329
     18          1           0        2.743676    1.797789    0.605744
     19          1           0        2.367343    1.753594   -1.125364
     20          1           0        2.628429   -2.052089    1.117692
 ---------------------------------------------------------------------

 SCF Done:  E(RB3LYP) =  -403.211695520     A.U. after    1 cycles

 The electronic state is 1-A.
 Alpha  occ. eigenvalues --  -19.12899 -14.31985 -10.22334 -10.21855 -10.21586
 Alpha  occ. eigenvalues --  -10.21125 -10.20242 -10.19352 -10.16959  -1.00989
 Alpha  occ. eigenvalues --   -0.96091  -0.79625  -0.76728  -0.70061  -0.63277
 Alpha  occ. eigenvalues --   -0.60492  -0.56088  -0.54305  -0.50725  -0.49256
 Alpha  occ. eigenvalues --   -0.45867  -0.45514  -0.42215  -0.40339  -0.39602
 Alpha  occ. eigenvalues --   -0.37602  -0.35548  -0.34862  -0.32995  -0.32006
 Alpha  occ. eigenvalues --   -0.30015  -0.27742  -0.26252  -0.19426
 Alpha virt. eigenvalues --   -0.00339   0.07938   0.08443   0.10102   0.10503
 Alpha virt. eigenvalues --    0.12118   0.13278   0.14374   0.15131   0.16189
 Alpha virt. eigenvalues --    0.16611   0.18597   0.18932   0.20667   0.21654

 Mulliken charges:
               1
     1  O   -0.418713
     2  C   -0.080773
     3  C   -0.187166
     4  C    0.051242
     5  C   -0.207651
     6  C   -0.319779
     7  C    0.144193
     8  C   -0.158776
     9  N   -0.181303
    10  H    0.283805
    11  H    0.080946
    12  H    0.082381
    13  H    0.109174
    14  H    0.112552
    15  H    0.056732
    16  H    0.109121
    17  H    0.114275
    18  H    0.123309
    19  H    0.130681
    20  H    0.155749
 Sum of Mulliken charges =  -0.00000

 Dipole moment (field-independent basis, Debye):
    X=              0.3725    Y=              2.3147    Z=              2.6404  Tot=              3.5310
 Quadrupole moment (field-independent basis, Debye-Ang):
   XX=            -50.2829   YY=            -52.7957   ZZ=            -54.5477
   XY=             -2.2826   XZ=             -1.5542   YZ=             -3.6083

  Exact polarizability:  95.833  -2.448  81.648   1.783  -5.016  65.523
 Approx polarizability: 122.266  -2.404 131.183   3.922 -12.406 108.644

                      1                      2                      3
                      A                      A                      A
 Frequencies --     59.5450                93.6276               105.9477
 Red. masses --      2.6153                 2.4333                 2.4487
 Frc consts  --      0.0055                 0.0126                 0.0162
 IR Inten    --      0.3053                 0.8747                 5.9590

                      4                      5                      6
                      A                      A                      A
 Frequencies --    145.2044               267.1338               284.5001
 Red. masses --      3.6174                 1.0872                 2.4572
 Frc consts  --      0.0449                 0.0457                 0.1172
 IR Inten    --      0.6617                96.4464                 6.6113

                      7                      8                      9
                      A                      A                      A
 Frequencies --    306.0543               324.2472               366.8210
 Red. masses --      2.8290                 4.7416                 3.5222
 Frc consts  --      0.1561                 0.2937                 0.2792
 IR Inten    --      9.9367                 2.4472                14.4168

                     10                     11                     12
                      A                      A                      A
 Frequencies --    436.8227               537.5081               615.9928
 Red. masses --      3.2645                 1.5974                 3.0996
 Frc consts  --      0.3670                 0.2719                 0.6929
 IR Inten    --     10.8122                22.3086                21.7901

                     13                     14                     15
                      A                      A                      A
 Frequencies --    641.4584               694.0077               786.3457
 Red. masses --      3.7112                 6.6386                 1.2384
 Frc consts  --      0.8997                 1.8839                 0.4512
 IR Inten    --      5.9679                16.0449                 0.6607

                     16                     17                     18
                      A                      A                      A
 Frequencies --    812.4007               860.3963               891.0381
 Red. masses --      1.7290                 2.0631                 2.7113
 Frc consts  --      0.6723                 0.8999                 1.2683
 IR Inten    --      0.2711                 6.6785                 2.4050

                     19                     20                     21
                      A                      A                      A
 Frequencies --    915.4047               946.8196               969.7721
 Red. masses --      3.2324                 2.5599                 3.8947
 Frc consts  --      1.5959                 1.3521                 2.1581
 IR Inten    --      1.3146                 4.6780                 5.8885

                     22                     23                     24
                      A                      A                      A
 Frequencies --    990.5712              1033.6569              1039.2095
 Red. masses --      1.5566                 2.2570                 2.0957
 Frc consts  --      0.8999                 1.4208                 1.3335
 IR Inten    --      1.4505                10.0511                37.7691

                     25                     26                     27
                      A                      A                      A
 Frequencies --   1077.8488              1101.9046              1135.1617
 Red. masses --      5.3091                 2.1831                 1.8903
 Frc consts  --      3.6340                 1.5618                 1.4352
 IR Inten    --     54.3560                15.3759                 1.2415

                     28                     29                     30
                      A                      A                      A
 Frequencies --   1183.3938              1223.6554              1232.1771
 Red. masses --      1.4599                 1.2317                 1.1863
 Frc consts  --      1.2046                 1.0866                 1.0612
 IR Inten    --      1.8055                 4.4506                 2.1674

                     31                     32                     33
                      A                      A                      A
 Frequencies --   1240.5229              1266.4278              1299.8327
 Red. masses --      1.1937                 1.2543                 1.2588
 Frc consts  --      1.0824                 1.1852                 1.2531
 IR Inten    --     36.0536                 0.4336                 5.1371

                     34                     35                     36
                      A                      A                      A
 Frequencies --   1303.0187              1310.5955              1335.1921
 Red. masses --      1.2798                 1.1370                 1.3246
 Frc consts  --      1.2802                 1.1507                 1.3913
 IR Inten    --     10.7204                 0.9554                 5.9172

                     37                     38                     39
                      A                      A                      A
 Frequencies --   1383.1402              1463.3769              1475.6764
 Red. masses --      1.5601                 1.4598                 1.0895
 Frc consts  --      1.7585                 1.8419                 1.3978
 IR Inten    --     16.9098                 7.3052                 0.1722

                     40                     41                     42
                      A                      A                      A
 Frequencies --   1490.7247              1497.2758              1527.6367
 Red. masses --      1.0910                 1.0940                 1.0855
 Frc consts  --      1.4285                 1.4451                 1.4925
 IR Inten    --      1.9914                 1.2745                 3.3615

                     43                     44                     45
                      A                      A                      A
 Frequencies --   1889.5543              2952.7187              2971.0117
 Red. masses --      7.2531                 1.0566                 1.0832
 Frc consts  --     15.2579                 5.4274                 5.6335
 IR Inten    --      8.1501                46.5832                30.0817

                     46                     47                     48
                      A                      A                      A
 Frequencies --   2978.9958              3042.2725              3055.6994
 Red. masses --      1.1031                 1.0592                 1.0598
 Frc consts  --      5.7678                 5.7759                 5.8301
 IR Inten    --     64.2796                19.6952                20.5125

                     49                     50                     51
                      A                      A                      A
 Frequencies --   3065.6711              3086.7545              3098.6223
 Red. masses --      1.0592                 1.1038                 1.1052
 Frc consts  --      5.8651                 6.1965                 6.2521
 IR Inten    --     35.3721                30.1010                 1.4103

                     52                     53                     54
                      A                      A                      A
 Frequencies --   3118.0973              3321.1668              3829.4558
 Red. masses --      1.1061                 1.1215                 1.0664
 Frc consts  --      6.3359                 7.2886                 9.2135
 IR Inten    --     30.1805                 6.0118                18.4401

 - Thermochemistry -
 -------------------
 Temperature   298.150 Kelvin.  Pressure   1.00000 Atm.
 Atom     1 has atomic number  8 and mass  15.99491

 Molecular mass:   125.08406 amu.
 Principal axes and moments of inertia in atomic units:
                           1         2         3
     Eigenvalues --   435.767642085.736852365.75166
           X            0.99998   0.00599  -0.00131
           Y           -0.00602   0.99970  -0.02373
           Z            0.00117   0.02374   0.99972
 This molecule is an asymmetric top.
 Rotational symmetry number  1.
 Warning -- assumption of classical behavior for rotation
           may cause significant error
 Rotational temperatures (Kelvin)      0.19876     0.04153     0.03661
 Rotational constants (GHZ):           4.14152     0.86528     0.76286
 Zero-point vibrational energy     443109.2 (Joules/Mol)
                                  105.90563 (Kcal/Mol)
 Warning -- explicit consideration of  12 degrees of freedom as
           vibrations may cause significant error
 Vibrational temperatures:     85.67   134.71   152.44   208.92   384.35
          (Kelvin)            409.33   440.34   466.52   527.77   628.49
                              773.35   886.28   922.92   998.52  1131.38
                             1168.86  1237.92  1282.01  1317.06  1362.26
                             1395.29  1425.21  1487.20  1495.19  1550.78
                             1585.39  1633.24  1702.64  1760.57  1772.83
                             1784.84  1822.11  1870.17  1874.75  1885.65
                             1921.04  1990.03  2105.47  2123.17  2144.82
                             2154.25  2197.93  2718.65  4248.30  4274.62
                             4286.11  4377.15  4396.47  4410.82  4441.15
                             4458.23  4486.25  4778.42  5509.73

 Zero-point correction=                           0.168771 (Hartree/Particle)
 Thermal correction to Energy=                    0.178209
 Thermal correction to Enthalpy=                  0.179154
 Thermal correction to Gibbs Free Energy=         0.134028
 Sum of electronic and zero-point Energies=           -403.042924
 Sum of electronic and thermal Energies=              -403.033486
 Sum of electronic and thermal Enthalpies=            -403.032542
 Sum of electronic and thermal Free Energies=         -403.077668

                     E (Thermal)             CV                S
                      KCal/Mol        Cal/Mol-Kelvin    Cal/Mol-Kelvin
 Total                  111.828             34.970             94.975
 Electronic               0.000              0.000              0.000
 Translational            0.889              2.981             40.385
 Rotational               0.889              2.981             29.154
 Vibrational            110.051             29.009             25.436
 Vibration     1          0.597              1.974              4.472
 Vibration     2          0.603              1.954              3.583
 Vibration     3          0.605              1.944              3.342
 Vibration     4          0.617              1.908              2.734
 Vibration     5          0.672              1.733              1.615
 Vibration     6          0.683              1.702              1.506
 Vibration     7          0.696              1.662              1.384
 Vibration     8          0.709              1.627              1.289
 Vibration     9          0.740              1.540              1.093
 Vibration    10          0.797              1.390              0.837
 Vibration    11          0.893              1.167              0.571
 Vibration    12          0.976              0.998              0.423

 Optimization completed.
    -- Stationary point found.
 Normal termination of Gaussian 16 at Sun Jul  3 19:04:09 2022.
