 Gaussian 16, Revision A.03,
 Gaussian 16:  ES64L-G16RevA.03 25-Dec-2016

 -----------------------------
 # opt freq b3lyp/6-31g(2df,p)
 -----------------------------

 -------------------
 Title Card Required
 -------------------
 Symbolic Z-matrix:
 Charge =  0 Multiplicity = 1

 SCF Done:  E(RB3LYP) =  -403.310079863     A.U. after   13 cycles
 SCF Done:  E(RB3LYP) =  -403.327221319     A.U. after   12 cycles
 SCF Done:  E(RB3LYP) =  -403.337602696     A.U. after   12 cycles
 SCF Done:  E(RB3LYP) =  -403.346992869     A.U. after   12 cycles
 SCF Done:  E(RB3LYP) =  -403.350515694     A.U. after   12 cycles
 SCF Done:  E(RB3LYP) =  -403.352179797     A.U. after   11 cycles
 SCF Done:  E(RB3LYP) =  -403.353019760     A.U. after   11 cycles
 SCF Done:  E(RB3LYP) =  -403.353327564     A.U. after   10 cycles
 SCF Done:  E(RB3LYP) =  -403.353617648     A.U. after   10 cycles
 SCF Done:  E(RB3LYP) =  -403.353879172     A.U. after   11 cycles
 SCF Done:  E(RB3LYP) =  -403.354051407     A.U. after   12 cycles
 SCF Done:  E(RB3LYP) =  -403.354139586     A.U. after   11 cycles
 SCF Done:  E(RB3LYP) =  -403.354172093     A.U. after   10 cycles
 SCF Done:  E(RB3LYP) =  -403.354177991     A.U. after    8 cycles
 SCF Done:  E(RB3LYP) =  -403.354179674     A.U. after    8 cycles
 SCF Done:  E(RB3LYP) =  -403.354179937     A.U. after    7 cycles
 Optimization completed.
    -- Stationary point found.
 Normal termination of Gaussian 16 at Thu Aug  4 09:13:04 2022.

 ----------------------------------------------------------------------
 #N Geom=AllCheck Guess=TCheck SCRF=Check GenChk RB3LYP/6-31G(2df,p) Fr
 eq
 ----------------------------------------------------------------------

 Structure from the checkpoint file:  "OdC1CCC2CC2CN1.chk"
 -------------------
 Title Card Required
 -------------------
 Charge =  0 Multiplicity = 1

                         Standard orientation:
 ---------------------------------------------------------------------
 Center     Atomic      Atomic             Coordinates (Angstroms)
 Number     Number       Type             X           Y           Z
 ---------------------------------------------------------------------
      1          8           0        2.883396   -0.060366    0.221318
      2          6           0        1.677337   -0.029120    0.043077
      3          6           0        0.973011    1.334069   -0.003623
      4          6           0       -0.481351    1.455596   -0.482319
      5          6           0       -1.450627    0.749801    0.444515
      6          6           0       -2.610251   -0.059337   -0.076928
      7          6           0       -1.400391   -0.756944    0.499768
      8          6           0       -0.420156   -1.450386   -0.421957
      9          7           0        0.975295   -1.202898   -0.069142
     10          1           0        1.631012    1.963839   -0.610235
     11          1           0        1.054014    1.730240    1.017058
     12          1           0       -0.577332    1.072579   -1.504004
     13          1           0       -0.736133    2.520206   -0.543206
     14          1           0       -1.604804    1.252934    1.395616
     15          1           0       -2.756374   -0.104885   -1.152160
     16          1           0       -3.531321   -0.073545    0.494666
     17          1           0       -1.508815   -1.218893    1.476382
     18          1           0       -0.618775   -1.166662   -1.463586
     19          1           0       -0.564454   -2.533846   -0.373455
     20          1           0        1.593312   -2.000831   -0.038821
 ---------------------------------------------------------------------

 SCF Done:  E(RB3LYP) =  -403.354179937     A.U. after    1 cycles

 The electronic state is 1-A.
 Alpha  occ. eigenvalues --  -19.08580 -14.34362 -10.26990 -10.22946 -10.19695
 Alpha  occ. eigenvalues --  -10.19631 -10.19259 -10.19173 -10.18755  -1.01871
 Alpha  occ. eigenvalues --   -0.91383  -0.86666  -0.77676  -0.71260  -0.66632
 Alpha  occ. eigenvalues --   -0.60228  -0.57182  -0.55629  -0.50405  -0.49080
 Alpha  occ. eigenvalues --   -0.47159  -0.45601  -0.42318  -0.41778  -0.40223
 Alpha  occ. eigenvalues --   -0.38485  -0.38287  -0.36624  -0.35747  -0.32560
 Alpha  occ. eigenvalues --   -0.29365  -0.28224  -0.24220  -0.23393
 Alpha virt. eigenvalues --    0.03243   0.07406   0.09194   0.10127   0.10967
 Alpha virt. eigenvalues --    0.12987   0.14387   0.15375   0.16347   0.16404
 Alpha virt. eigenvalues --    0.17615   0.18648   0.19343   0.21112   0.23670

 Mulliken charges:
               1
     1  O   -0.371998
     2  C    0.370349
     3  C   -0.272175
     4  C   -0.256423
     5  C    0.017275
     6  C   -0.324107
     7  C    0.005080
     8  C   -0.202851
     9  N   -0.297842
    10  H    0.128611
    11  H    0.130000
    12  H    0.101810
    13  H    0.102737
    14  H    0.086889
    15  H    0.111887
    16  H    0.115429
    17  H    0.089360
    18  H    0.110270
    19  H    0.113418
    20  H    0.242280
 Sum of Mulliken charges =  -0.00000

 Dipole moment (field-independent basis, Debye):
    X=             -3.6384    Y=             -0.6478    Z=             -0.5029  Tot=              3.7296
 Quadrupole moment (field-independent basis, Debye-Ang):
   XX=            -66.4735   YY=            -48.5975   ZZ=            -52.3942
   XY=             -0.5545   XZ=             -2.0220   YZ=              0.4983

  Exact polarizability:  93.895   2.776  80.937   1.782   0.587  62.606
 Approx polarizability: 131.574   5.737 116.854   5.658   1.434  98.483

                      1                      2                      3
                      A                      A                      A
 Frequencies --     60.6905               159.4951               257.4028
 Red. masses --      4.5925                 2.4710                 2.3265
 Frc consts  --      0.0100                 0.0370                 0.0908
 IR Inten    --      1.8569                 0.6942                 1.2857

                      4                      5                      6
                      A                      A                      A
 Frequencies --    271.2605               331.4225               358.5941
 Red. masses --      2.6372                 4.0008                 4.6569
 Frc consts  --      0.1143                 0.2589                 0.3528
 IR Inten    --      0.3077                 2.8194                 5.8681

                      7                      8                      9
                      A                      A                      A
 Frequencies --    424.3352               475.4300               492.2925
 Red. masses --      2.4641                 1.9105                 2.3124
 Frc consts  --      0.2614                 0.2544                 0.3302
 IR Inten    --      1.2332                12.1062                 9.1363

                     10                     11                     12
                      A                      A                      A
 Frequencies --    586.4266               648.7285               695.1970
 Red. masses --      1.6801                 2.2694                 3.0687
 Frc consts  --      0.3404                 0.5627                 0.8738
 IR Inten    --     25.4683                34.0384                15.5725

                     13                     14                     15
                      A                      A                      A
 Frequencies --    717.3433               780.2540               821.1894
 Red. masses --      3.5829                 2.0676                 2.8702
 Frc consts  --      1.0863                 0.7416                 1.1404
 IR Inten    --      2.0310                 5.8462                 6.9106

                     16                     17                     18
                      A                      A                      A
 Frequencies --    856.8819               899.6773               929.7013
 Red. masses --      1.2871                 1.9983                 1.5649
 Frc consts  --      0.5568                 0.9530                 0.7969
 IR Inten    --      5.6788                 6.9403                 7.9383

                     19                     20                     21
                      A                      A                      A
 Frequencies --    975.4231               989.7978              1026.7970
 Red. masses --      1.6820                 2.1551                 3.1432
 Frc consts  --      0.9429                 1.2440                 1.9525
 IR Inten    --      1.7760                 0.4489                 1.8810

                     22                     23                     24
                      A                      A                      A
 Frequencies --   1060.5260              1076.8393              1115.9626
 Red. masses --      1.4618                 1.9535                 2.1430
 Frc consts  --      0.9687                 1.3347                 1.5724
 IR Inten    --      8.8420                 0.9309                26.7639

                     25                     26                     27
                      A                      A                      A
 Frequencies --   1125.1883              1137.2175              1171.6545
 Red. masses --      1.7108                 1.2642                 1.7554
 Frc consts  --      1.2761                 0.9633                 1.4198
 IR Inten    --      7.0793                 4.4129                 0.2774

                     28                     29                     30
                      A                      A                      A
 Frequencies --   1220.9418              1244.9183              1253.0817
 Red. masses --      1.3717                 1.4853                 1.3494
 Frc consts  --      1.2047                 1.3562                 1.2484
 IR Inten    --      1.3427                 0.4996                29.7684

                     31                     32                     33
                      A                      A                      A
 Frequencies --   1296.3129              1318.8082              1352.6569
 Red. masses --      1.3344                 1.5295                 1.4258
 Frc consts  --      1.3212                 1.5673                 1.5371
 IR Inten    --      0.8490                49.8002                14.6898

                     34                     35                     36
                      A                      A                      A
 Frequencies --   1366.2458              1389.7352              1410.5430
 Red. masses --      1.4346                 1.6926                 1.5191
 Frc consts  --      1.5777                 1.9260                 1.7808
 IR Inten    --     44.8708                53.9443                10.5682

                     37                     38                     39
                      A                      A                      A
 Frequencies --   1431.1099              1458.8178              1475.1079
 Red. masses --      1.5900                 1.1257                 1.5248
 Frc consts  --      1.9187                 1.4114                 1.9549
 IR Inten    --      7.1426                 7.2676                16.8753

                     40                     41                     42
                      A                      A                      A
 Frequencies --   1492.7351              1495.4451              1517.5196
 Red. masses --      1.3336                 1.2778                 1.1079
 Frc consts  --      1.7508                 1.6837                 1.5032
 IR Inten    --      8.7957                 9.3773                13.9166

                     43                     44                     45
                      A                      A                      A
 Frequencies --   1764.4574              3012.5795              3033.4418
 Red. masses --      8.2506                 1.0691                 1.0676
 Frc consts  --     15.1342                 5.7170                 5.7883
 IR Inten    --    337.6303                29.2289                12.6610

                     46                     47                     48
                      A                      A                      A
 Frequencies --   3035.9286              3069.0646              3076.6830
 Red. masses --      1.0634                 1.0959                 1.0947
 Frc consts  --      5.7745                 6.0818                 6.1053
 IR Inten    --     28.4676                40.3429                11.6887

                     49                     50                     51
                      A                      A                      A
 Frequencies --   3087.1221              3126.8031              3136.4093
 Red. masses --      1.0951                 1.0552                 1.0879
 Frc consts  --      6.1490                 6.0782                 6.3055
 IR Inten    --     16.3738                16.9106                15.6524

                     52                     53                     54
                      A                      A                      A
 Frequencies --   3153.1724              3213.0623              3607.5444
 Red. masses --      1.0908                 1.1151                 1.0756
 Frc consts  --      6.3896                 6.7827                 8.2477
 IR Inten    --     17.8695                12.7148                20.1742

 - Thermochemistry -
 -------------------
 Temperature   298.150 Kelvin.  Pressure   1.00000 Atm.
 Atom     1 has atomic number  8 and mass  15.99491

 Molecular mass:   125.08406 amu.
 Principal axes and moments of inertia in atomic units:
                           1         2         3
     Eigenvalues --   566.703011366.846861767.38661
           X            0.99997   0.00802  -0.00163
           Y           -0.00801   0.99996   0.00288
           Z            0.00165  -0.00287   0.99999
 This molecule is an asymmetric top.
 Rotational symmetry number  1.
 Warning -- assumption of classical behavior for rotation
           may cause significant error
 Rotational temperatures (Kelvin)      0.15284     0.06337     0.04901
 Rotational constants (GHZ):           3.18463     1.32037     1.02114
 Zero-point vibrational energy     457487.7 (Joules/Mol)
                                  109.34219 (Kcal/Mol)
 Warning -- explicit consideration of  10 degrees of freedom as
           vibrations may cause significant error
 Vibrational temperatures:     87.32   229.48   370.35   390.28   476.84
          (Kelvin)            515.94   610.52   684.04   708.30   843.74
                              933.38  1000.23  1032.10  1122.61  1181.51
                             1232.86  1294.44  1337.63  1403.42  1424.10
                             1477.33  1525.86  1549.33  1605.62  1618.89
                             1636.20  1685.75  1756.66  1791.16  1802.91
                             1865.11  1897.47  1946.17  1965.72  1999.52
                             2029.46  2059.05  2098.91  2122.35  2147.71
                             2151.61  2183.37  2538.66  4334.43  4364.45
                             4368.02  4415.70  4426.66  4441.68  4498.77
                             4512.59  4536.71  4622.88  5190.45

 Zero-point correction=                           0.174248 (Hartree/Particle)
 Thermal correction to Energy=                    0.182179
 Thermal correction to Enthalpy=                  0.183123
 Thermal correction to Gibbs Free Energy=         0.141665
 Sum of electronic and zero-point Energies=           -403.179932
 Sum of electronic and thermal Energies=              -403.172001
 Sum of electronic and thermal Enthalpies=            -403.171057
 Sum of electronic and thermal Free Energies=         -403.212515

                     E (Thermal)             CV                S
                      KCal/Mol        Cal/Mol-Kelvin    Cal/Mol-Kelvin
 Total                  114.319             31.471             87.256
 Electronic               0.000              0.000              0.000
 Translational            0.889              2.981             40.385
 Rotational               0.889              2.981             28.706
 Vibrational            112.541             25.510             18.165
 Vibration     1          0.597              1.973              4.435
 Vibration     2          0.621              1.892              2.556
 Vibration     3          0.667              1.750              1.679
 Vibration     4          0.675              1.726              1.588
 Vibration     5          0.714              1.613              1.253
 Vibration     6          0.733              1.558              1.128
 Vibration     7          0.786              1.417              0.877
 Vibration     8          0.832              1.305              0.722
 Vibration     9          0.848              1.267              0.678
 Vibration    10          0.944              1.061              0.474

 Optimization completed.
    -- Stationary point found.
 Normal termination of Gaussian 16 at Thu Aug  4 09:47:50 2022.
