 Gaussian 16, Revision A.03,
 Gaussian 16:  ES64L-G16RevA.03 25-Dec-2016

 -----------------------------
 # opt freq b3lyp/6-31g(2df,p)
 -----------------------------

 -------------------
 Title Card Required
 -------------------
 Symbolic Z-matrix:
 Charge =  0 Multiplicity = 1

 SCF Done:  E(RB3LYP) =  -378.684556763     A.U. after   14 cycles
 SCF Done:  E(RB3LYP) =  -378.730371548     A.U. after   13 cycles
 SCF Done:  E(RB3LYP) =  -378.760059886     A.U. after   12 cycles
 SCF Done:  E(RB3LYP) =  -378.767782667     A.U. after   13 cycles
 SCF Done:  E(RB3LYP) =  -378.772610611     A.U. after   13 cycles
 SCF Done:  E(RB3LYP) =  -378.773705920     A.U. after   12 cycles
 SCF Done:  E(RB3LYP) =  -378.774364878     A.U. after   11 cycles
 SCF Done:  E(RB3LYP) =  -378.774609428     A.U. after   11 cycles
 SCF Done:  E(RB3LYP) =  -378.774685330     A.U. after   10 cycles
 SCF Done:  E(RB3LYP) =  -378.774724291     A.U. after   10 cycles
 SCF Done:  E(RB3LYP) =  -378.774732907     A.U. after    8 cycles
 SCF Done:  E(RB3LYP) =  -378.774738975     A.U. after    8 cycles
 SCF Done:  E(RB3LYP) =  -378.774740190     A.U. after    8 cycles
 Optimization completed.
    -- Stationary point found.
 Normal termination of Gaussian 16 at Thu Aug  4 01:26:56 2022.

 ----------------------------------------------------------------------
 #N Geom=AllCheck Guess=TCheck SCRF=Check GenChk RB3LYP/6-31G(2df,p) Fr
 eq
 ----------------------------------------------------------------------

 Structure from the checkpoint file:  "OdC1NC23CN2CC13.chk"
 -------------------
 Title Card Required
 -------------------
 Charge =  0 Multiplicity = 1

                         Standard orientation:
 ---------------------------------------------------------------------
 Center     Atomic      Atomic             Coordinates (Angstroms)
 Number     Number       Type             X           Y           Z
 ---------------------------------------------------------------------
      1          8           0        2.561256    0.235383   -0.162041
      2          6           0        1.425972   -0.046198    0.085582
      3          7           0        0.702161   -1.251264   -0.075149
      4          6           0       -0.532139   -0.595902    0.224219
      5          6           0       -1.977002   -0.693515    0.268040
      6          7           0       -1.360311    0.155102   -0.803928
      7          6           0       -0.794044    1.430878   -0.235103
      8          6           0        0.179174    0.662066    0.699101
      9          1           0        0.879599   -1.969603   -0.766425
     10          1           0       -2.519587   -0.239593    1.098389
     11          1           0       -2.464449   -1.561994   -0.164625
     12          1           0       -1.522994    2.040491    0.311027
     13          1           0       -0.343691    2.032380   -1.026485
     14          1           0        0.276358    0.944409    1.746946
 ---------------------------------------------------------------------

 SCF Done:  E(RB3LYP) =  -378.774740190     A.U. after    1 cycles

 The electronic state is 1-A.
 Alpha  occ. eigenvalues --  -19.12770 -14.36640 -14.33215 -10.29518 -10.26500
 Alpha  occ. eigenvalues --  -10.23620 -10.22918 -10.20857  -1.05500  -1.00910
 Alpha  occ. eigenvalues --   -0.92818  -0.77806  -0.70359  -0.62743  -0.59581
 Alpha  occ. eigenvalues --   -0.55930  -0.51452  -0.49007  -0.48855  -0.45183
 Alpha  occ. eigenvalues --   -0.42604  -0.41837  -0.39521  -0.36231  -0.33816
 Alpha  occ. eigenvalues --   -0.32488  -0.26591  -0.26367  -0.24243
 Alpha virt. eigenvalues --    0.00560   0.06960   0.08885   0.10377   0.10784
 Alpha virt. eigenvalues --    0.11600   0.12673   0.13407   0.15243   0.17837
 Alpha virt. eigenvalues --    0.20175   0.21582   0.24954   0.25739   0.29648

 Mulliken charges:
               1
     1  O   -0.330473
     2  C    0.408029
     3  N   -0.419544
     4  C    0.410147
     5  C   -0.316937
     6  N   -0.181660
     7  C   -0.185178
     8  C   -0.260948
     9  H    0.255787
    10  H    0.122484
    11  H    0.139878
    12  H    0.114892
    13  H    0.134012
    14  H    0.109511
 Sum of Mulliken charges =  -0.00000

 Dipole moment (field-independent basis, Debye):
    X=             -2.7768    Y=             -0.8514    Z=              1.2342  Tot=              3.1558
 Quadrupole moment (field-independent basis, Debye-Ang):
   XX=            -53.4111   YY=            -40.4587   ZZ=            -45.9120
   XY=             -1.2849   XZ=             -2.8180   YZ=              2.5997

  Exact polarizability:  76.124   2.173  62.592  -2.884   2.191  47.747
 Approx polarizability: 114.569   5.963  96.830  -3.074   0.609  77.641

                      1                      2                      3
                      A                      A                      A
 Frequencies --    141.6057               252.1292               376.2865
 Red. masses --      7.0081                 2.8796                 2.2314
 Frc consts  --      0.0828                 0.1079                 0.1862
 IR Inten    --      1.8099                 1.0374                 5.6863

                      4                      5                      6
                      A                      A                      A
 Frequencies --    409.3700               472.6857               513.1767
 Red. masses --      2.3525                 3.1752                 2.8535
 Frc consts  --      0.2323                 0.4180                 0.4427
 IR Inten    --     48.2490                 9.9063                45.1061

                      7                      8                      9
                      A                      A                      A
 Frequencies --    597.0640               663.4844               685.4632
 Red. masses --      2.3999                 4.6088                 5.4590
 Frc consts  --      0.5041                 1.1954                 1.5112
 IR Inten    --     76.9362                16.1769                50.3566

                     10                     11                     12
                      A                      A                      A
 Frequencies --    734.9030               749.9797               861.8486
 Red. masses --      3.0486                 4.6181                 3.4850
 Frc consts  --      0.9701                 1.5304                 1.5252
 IR Inten    --      5.7958                13.0948                 6.6288

                     13                     14                     15
                      A                      A                      A
 Frequencies --    867.8404               943.0121               988.2388
 Red. masses --      2.0109                 1.9129                 2.3343
 Frc consts  --      0.8923                 1.0022                 1.3432
 IR Inten    --      2.6447                 6.5625                15.0761

                     16                     17                     18
                      A                      A                      A
 Frequencies --   1001.0363              1051.4308              1076.0842
 Red. masses --      2.4342                 2.5747                 3.0153
 Frc consts  --      1.4372                 1.6770                 2.0572
 IR Inten    --      6.1243                 7.0843                43.5140

                     19                     20                     21
                      A                      A                      A
 Frequencies --   1099.4282              1123.6919              1155.8144
 Red. masses --      1.7999                 1.3267                 1.6150
 Frc consts  --      1.2818                 0.9870                 1.2711
 IR Inten    --     20.6122                 1.5370                 5.2565

                     22                     23                     24
                      A                      A                      A
 Frequencies --   1193.0206              1239.3269              1261.2749
 Red. masses --      1.3914                 2.2246                 1.5526
 Frc consts  --      1.1668                 2.0132                 1.4552
 IR Inten    --      2.8577                11.1485                 8.2852

                     25                     26                     27
                      A                      A                      A
 Frequencies --   1281.3652              1310.5296              1454.1756
 Red. masses --      1.4545                 2.1376                 1.3942
 Frc consts  --      1.4071                 2.1631                 1.7371
 IR Inten    --      8.4216                32.6454                35.2298

                     28                     29                     30
                      A                      A                      A
 Frequencies --   1486.0933              1530.9290              1904.0174
 Red. masses --      1.1186                 2.7090                12.1749
 Frc consts  --      1.4556                 3.7409                26.0050
 IR Inten    --      3.4212                68.5397               435.0579

                     31                     32                     33
                      A                      A                      A
 Frequencies --   3038.4747              3082.9181              3116.3327
 Red. masses --      1.0637                 1.0595                 1.0981
 Frc consts  --      5.7859                 5.9331                 6.2832
 IR Inten    --     44.8817                24.5119                 9.8928

                     34                     35                     36
                      A                      A                      A
 Frequencies --   3121.7544              3189.4745              3575.3776
 Red. masses --      1.0935                 1.1109                 1.0785
 Frc consts  --      6.2784                 6.6583                 8.1230
 IR Inten    --     17.7841                 5.0995                21.6386

 - Thermochemistry -
 -------------------
 Temperature   298.150 Kelvin.  Pressure   1.00000 Atm.
 Atom     1 has atomic number  8 and mass  15.99491

 Molecular mass:   110.04801 amu.
 Principal axes and moments of inertia in atomic units:
                           1         2         3
     Eigenvalues --   365.51130 926.973701123.92994
           X            0.99990  -0.00503  -0.01293
           Y            0.00543   0.99950   0.03107
           Z            0.01277  -0.03114   0.99943
 This molecule is an asymmetric top.
 Rotational symmetry number  1.
 Rotational temperatures (Kelvin)      0.23697     0.09344     0.07706
 Rotational constants (GHZ):           4.93758     1.94692     1.60574
 Zero-point vibrational energy     284410.0 (Joules/Mol)
                                   67.97562 (Kcal/Mol)
 Warning -- explicit consideration of   7 degrees of freedom as
           vibrations may cause significant error
 Vibrational temperatures:    203.74   362.76   541.39   588.99   680.09
          (Kelvin)            738.35   859.04   954.61   986.23  1057.36
                             1079.05  1240.01  1248.63  1356.78  1421.86
                             1440.27  1512.77  1548.25  1581.83  1616.74
                             1662.96  1716.49  1783.12  1814.69  1843.60
                             1885.56  2092.23  2138.16  2202.67  2739.46
                             4371.69  4435.63  4483.71  4491.51  4588.94
                             5144.17

 Zero-point correction=                           0.108326 (Hartree/Particle)
 Thermal correction to Energy=                    0.114449
 Thermal correction to Enthalpy=                  0.115393
 Thermal correction to Gibbs Free Energy=         0.078298
 Sum of electronic and zero-point Energies=           -378.666414
 Sum of electronic and thermal Energies=              -378.660292
 Sum of electronic and thermal Enthalpies=            -378.659347
 Sum of electronic and thermal Free Energies=         -378.696442

                     E (Thermal)             CV                S
                      KCal/Mol        Cal/Mol-Kelvin    Cal/Mol-Kelvin
 Total                   71.818             24.253             78.073
 Electronic               0.000              0.000              0.000
 Translational            0.889              2.981             40.003
 Rotational               0.889              2.981             27.434
 Vibrational             70.040             18.291             10.635
 Vibration     1          0.615              1.912              2.782
 Vibration     2          0.664              1.759              1.716
 Vibration     3          0.747              1.521              1.054
 Vibration     4          0.774              1.450              0.929
 Vibration     5          0.830              1.311              0.730
 Vibration     6          0.868              1.221              0.626
 Vibration     7          0.955              1.038              0.455

 Optimization completed.
    -- Stationary point found.
 Normal termination of Gaussian 16 at Thu Aug  4 01:44:08 2022.
