 Gaussian 16, Revision A.03,
 Gaussian 16:  ES64L-G16RevA.03 25-Dec-2016

 -----------------------------
 # opt freq b3lyp/6-31g(2df,p)
 -----------------------------

 -------------------
 Title Card Required
 -------------------
 Symbolic Z-matrix:
 Charge =  0 Multiplicity = 1

 SCF Done:  E(RB3LYP) =  -381.186035907     A.U. after   18 cycles
 SCF Done:  E(RB3LYP) =  -381.223018835     A.U. after   15 cycles
 SCF Done:  E(RB3LYP) =  -381.252612791     A.U. after   14 cycles
 SCF Done:  E(RB3LYP) =  -381.259584305     A.U. after   13 cycles
 SCF Done:  E(RB3LYP) =  -381.267186768     A.U. after   14 cycles
 SCF Done:  E(RB3LYP) =  -381.273400179     A.U. after   14 cycles
 SCF Done:  E(RB3LYP) =  -381.280953126     A.U. after   14 cycles
 SCF Done:  E(RB3LYP) =  -381.296107766     A.U. after   15 cycles
 SCF Done:  E(RB3LYP) =  -381.305565616     A.U. after   14 cycles
 SCF Done:  E(RB3LYP) =  -381.313262742     A.U. after   13 cycles
 SCF Done:  E(RB3LYP) =  -381.321898756     A.U. after   12 cycles
 SCF Done:  E(RB3LYP) =  -381.322222050     A.U. after   12 cycles
 SCF Done:  E(RB3LYP) =  -381.322530278     A.U. after   12 cycles
 SCF Done:  E(RB3LYP) =  -381.322710334     A.U. after   10 cycles
 SCF Done:  E(RB3LYP) =  -381.322873192     A.U. after   11 cycles
 SCF Done:  E(RB3LYP) =  -381.322896441     A.U. after    9 cycles
 SCF Done:  E(RB3LYP) =  -381.322916819     A.U. after   10 cycles
 SCF Done:  E(RB3LYP) =  -381.322921361     A.U. after    9 cycles
 SCF Done:  E(RB3LYP) =  -381.322921958     A.U. after    8 cycles
 Optimization completed.
    -- Stationary point found.
 Normal termination of Gaussian 16 at Sun Jul  3 21:08:54 2022.

 ----------------------------------------------------------------------
 #N Geom=AllCheck Guess=TCheck SCRF=Check GenChk RB3LYP/6-31G(2df,p) Fr
 eq
 ----------------------------------------------------------------------

 Structure from the checkpoint file:  "OdC1CdC2CC23OC13.chk"
 -------------------
 Title Card Required
 -------------------
 Charge =  0 Multiplicity = 1

                         Standard orientation:
 ---------------------------------------------------------------------
 Center     Atomic      Atomic             Coordinates (Angstroms)
 Number     Number       Type             X           Y           Z
 ---------------------------------------------------------------------
      1          8           0        2.490555   -0.102741    0.135161
      2          6           0        1.292840   -0.141567    0.048119
      3          6           0        0.423673   -1.335215   -0.308607
      4          6           0       -0.849140   -0.986315   -0.152756
      5          6           0       -2.156596   -0.464541    0.299784
      6          6           0       -0.992259    0.450948    0.214918
      7          8           0       -0.510207    1.406710   -0.715548
      8          6           0        0.309357    1.006292    0.444662
      9          1           0        0.860371   -2.298624   -0.546400
     10          1           0       -2.558066   -0.810791    1.250962
     11          1           0       -2.919109   -0.299313   -0.459794
     12          1           0        0.606768    1.799351    1.121609
 ---------------------------------------------------------------------

 SCF Done:  E(RB3LYP) =  -381.322921958     A.U. after    1 cycles

 The electronic state is 1-A.
 Alpha  occ. eigenvalues --  -19.17282 -19.14412 -10.28088 -10.26376 -10.26228
 Alpha  occ. eigenvalues --  -10.25791 -10.22192 -10.21688  -1.09016  -1.05133
 Alpha  occ. eigenvalues --   -0.90029  -0.78554  -0.69386  -0.61823  -0.56706
 Alpha  occ. eigenvalues --   -0.55480  -0.51738  -0.49530  -0.45732  -0.44710
 Alpha  occ. eigenvalues --   -0.43793  -0.40987  -0.38249  -0.35049  -0.33922
 Alpha  occ. eigenvalues --   -0.28145  -0.27166  -0.22950
 Alpha virt. eigenvalues --   -0.07203   0.01766   0.06759   0.08739   0.11019
 Alpha virt. eigenvalues --    0.12193   0.14891   0.15365   0.16347   0.18711
 Alpha virt. eigenvalues --    0.20058   0.22175   0.26204   0.31999   0.32893

 Mulliken charges:
               1
     1  O   -0.305116
     2  C    0.424903
     3  C   -0.368269
     4  C    0.253970
     5  C   -0.479106
     6  C    0.396975
     7  O   -0.279571
     8  C   -0.245802
     9  H    0.126445
    10  H    0.167329
    11  H    0.178455
    12  H    0.129787
 Sum of Mulliken charges =  -0.00000

 Dipole moment (field-independent basis, Debye):
    X=             -3.3488    Y=             -1.1106    Z=              1.4057  Tot=              3.7978
 Quadrupole moment (field-independent basis, Debye-Ang):
   XX=            -46.0000   YY=            -44.1184   ZZ=            -43.5832
   XY=              1.8925   XZ=             -1.1508   YZ=              2.1541

  Exact polarizability:  87.256   0.548  58.985  -0.695   3.581  40.015
 Approx polarizability: 155.819  -0.266  94.598   1.744   2.612  65.920

                      1                      2                      3
                      A                      A                      A
 Frequencies --    145.0389               276.0370               318.2148
 Red. masses --      5.4617                 4.7688                 3.4048
 Frc consts  --      0.0677                 0.2141                 0.2031
 IR Inten    --      1.7531                 5.4300                 7.7572

                      4                      5                      6
                      A                      A                      A
 Frequencies --    424.0583               472.8802               496.4063
 Red. masses --      5.2834                 4.5169                 4.0469
 Frc consts  --      0.5598                 0.5951                 0.5876
 IR Inten    --      1.5649                18.8828                34.1747

                      7                      8                      9
                      A                      A                      A
 Frequencies --    596.1441               642.6572               718.1873
 Red. masses --      6.7856                 6.8703                 7.5223
 Frc consts  --      1.4208                 1.6718                 2.2860
 IR Inten    --      2.6668                 5.7383                11.5164

                     10                     11                     12
                      A                      A                      A
 Frequencies --    735.2355               804.5565               843.4835
 Red. masses --      4.3381                 3.7442                 1.9964
 Frc consts  --      1.3817                 1.4280                 0.8369
 IR Inten    --      0.8857                 8.0300                16.1064

                     13                     14                     15
                      A                      A                      A
 Frequencies --    864.3264               894.9595               972.5173
 Red. masses --      3.0984                 2.0745                 2.4391
 Frc consts  --      1.3638                 0.9790                 1.3592
 IR Inten    --      7.9391                 6.3519                 7.1083

                     16                     17                     18
                      A                      A                      A
 Frequencies --    984.5968              1083.8390              1084.4471
 Red. masses --      1.6627                 1.6349                 1.8087
 Frc consts  --      0.9497                 1.1315                 1.2532
 IR Inten    --     17.7537                19.8144                12.5924

                     19                     20                     21
                      A                      A                      A
 Frequencies --   1109.4364              1146.2273              1210.3942
 Red. masses --      2.1305                 2.2820                 1.3146
 Frc consts  --      1.5450                 1.7665                 1.1347
 IR Inten    --     21.0839                 5.5317                 4.0552

                     22                     23                     24
                      A                      A                      A
 Frequencies --   1259.3065              1428.9163              1560.1444
 Red. masses --      1.4472                 1.1164                 9.7817
 Frc consts  --      1.3522                 1.3431                14.0280
 IR Inten    --      3.8383                 0.4148                 3.5590

                     25                     26                     27
                      A                      A                      A
 Frequencies --   1734.3104              1839.5308              3092.0972
 Red. masses --      9.6288                12.3985                 1.0540
 Frc consts  --     17.0638                24.7191                 5.9372
 IR Inten    --     32.0244               260.5437                 5.5745

                     28                     29                     30
                      A                      A                      A
 Frequencies --   3173.4467              3190.5770              3192.8507
 Red. masses --      1.1140                 1.0935                 1.0961
 Frc consts  --      6.6102                 6.5588                 6.5832
 IR Inten    --      0.9230                11.6486                 9.1050

 - Thermochemistry -
 -------------------
 Temperature   298.150 Kelvin.  Pressure   1.00000 Atm.
 Atom     1 has atomic number  8 and mass  15.99491

 Molecular mass:   108.02113 amu.
 Principal axes and moments of inertia in atomic units:
                           1         2         3
     Eigenvalues --   388.73671 844.240941110.18664
           X            0.99983   0.01687  -0.00799
           Y           -0.01661   0.99937   0.03138
           Z            0.00851  -0.03124   0.99948
 This molecule is an asymmetric top.
 Rotational symmetry number  1.
 Rotational temperatures (Kelvin)      0.22281     0.10259     0.07802
 Rotational constants (GHZ):           4.64258     2.13771     1.62562
 Zero-point vibrational energy     217091.3 (Joules/Mol)
                                   51.88606 (Kcal/Mol)
 Warning -- explicit consideration of   7 degrees of freedom as
           vibrations may cause significant error
 Vibrational temperatures:    208.68   397.16   457.84   610.13   680.37
          (Kelvin)            714.22   857.72   924.64  1033.31  1057.84
                             1157.58  1213.58  1243.57  1287.65  1399.24
                             1416.62  1559.40  1560.28  1596.23  1649.17
                             1741.49  1811.86  2055.89  2244.70  2495.29
                             2646.67  4448.84  4565.88  4590.53  4593.80

 Zero-point correction=                           0.082686 (Hartree/Particle)
 Thermal correction to Energy=                    0.088764
 Thermal correction to Enthalpy=                  0.089708
 Thermal correction to Gibbs Free Energy=         0.052718
 Sum of electronic and zero-point Energies=           -381.240236
 Sum of electronic and thermal Energies=              -381.234158
 Sum of electronic and thermal Enthalpies=            -381.233214
 Sum of electronic and thermal Free Energies=         -381.270204

                     E (Thermal)             CV                S
                      KCal/Mol        Cal/Mol-Kelvin    Cal/Mol-Kelvin
 Total                   55.700             23.519             77.852
 Electronic               0.000              0.000              0.000
 Translational            0.889              2.981             39.948
 Rotational               0.889              2.981             27.390
 Vibrational             53.923             17.558             10.513
 Vibration     1          0.616              1.908              2.736
 Vibration     2          0.678              1.718              1.558
 Vibration     3          0.705              1.639              1.319
 Vibration     4          0.786              1.418              0.878
 Vibration     5          0.830              1.310              0.730
 Vibration     6          0.852              1.258              0.667
 Vibration     7          0.954              1.040              0.456

                           ! Non-Optimized Parameters !
 Normal termination of Gaussian 16 at Sun Jul  3 21:24:42 2022.
