 Gaussian 16, Revision A.03,
 Gaussian 16:  ES64L-G16RevA.03 25-Dec-2016

 -----------------------------
 # opt freq b3lyp/6-31g(2df,p)
 -----------------------------

 -------------------
 Title Card Required
 -------------------
 Symbolic Z-matrix:
 Charge =  0 Multiplicity = 1

 SCF Done:  E(RB3LYP) =  -403.296611311     A.U. after   13 cycles
 SCF Done:  E(RB3LYP) =  -403.320991318     A.U. after   13 cycles
 SCF Done:  E(RB3LYP) =  -403.337590923     A.U. after   12 cycles
 SCF Done:  E(RB3LYP) =  -403.346061955     A.U. after   12 cycles
 SCF Done:  E(RB3LYP) =  -403.349282615     A.U. after   12 cycles
 SCF Done:  E(RB3LYP) =  -403.350596038     A.U. after   11 cycles
 SCF Done:  E(RB3LYP) =  -403.351877786     A.U. after   11 cycles
 SCF Done:  E(RB3LYP) =  -403.352897649     A.U. after   12 cycles
 SCF Done:  E(RB3LYP) =  -403.353270374     A.U. after   11 cycles
 SCF Done:  E(RB3LYP) =  -403.353767177     A.U. after   11 cycles
 SCF Done:  E(RB3LYP) =  -403.353820900     A.U. after   11 cycles
 SCF Done:  E(RB3LYP) =  -403.353867351     A.U. after   10 cycles
 SCF Done:  E(RB3LYP) =  -403.353873610     A.U. after    8 cycles
 SCF Done:  E(RB3LYP) =  -403.353874791     A.U. after    9 cycles
 SCF Done:  E(RB3LYP) =  -403.353880619     A.U. after    8 cycles
 SCF Done:  E(RB3LYP) =  -403.353884046     A.U. after    8 cycles
 Optimization completed.
    -- Stationary point found.
 Normal termination of Gaussian 16 at Thu Aug  4 14:25:07 2022.

 ----------------------------------------------------------------------
 #N Geom=AllCheck Guess=TCheck SCRF=Check GenChk RB3LYP/6-31G(2df,p) Fr
 eq
 ----------------------------------------------------------------------

 Structure from the checkpoint file:  "OdC1CC2CC2CCN1.chk"
 -------------------
 Title Card Required
 -------------------
 Charge =  0 Multiplicity = 1

                         Standard orientation:
 ---------------------------------------------------------------------
 Center     Atomic      Atomic             Coordinates (Angstroms)
 Number     Number       Type             X           Y           Z
 ---------------------------------------------------------------------
      1          8           0        2.446184   -0.495168   -0.582802
      2          6           0        1.461413   -0.081923    0.002401
      3          6           0        0.663119   -0.945760    0.975176
      4          6           0       -0.761963   -1.272662    0.544683
      5          6           0       -1.148309   -1.345471   -0.910187
      6          6           0       -1.761190   -0.281632   -0.026643
      7          6           0       -1.506589    1.212736   -0.227808
      8          6           0       -0.212060    1.758231    0.388800
      9          7           0        1.005400    1.194784   -0.171228
     10          1           0        0.656241   -0.469427    1.964912
     11          1           0        1.230093   -1.875034    1.067901
     12          1           0       -1.207065   -2.029554    1.185284
     13          1           0       -1.770702   -2.165719   -1.250920
     14          1           0       -0.406206   -1.025060   -1.635156
     15          1           0       -2.785577   -0.492032    0.267238
     16          1           0       -2.336160    1.768535    0.225435
     17          1           0       -1.522117    1.458457   -1.296923
     18          1           0       -0.224761    1.597753    1.473342
     19          1           0       -0.166711    2.840826    0.238118
     20          1           0        1.519163    1.727997   -0.856755
 ---------------------------------------------------------------------

 SCF Done:  E(RB3LYP) =  -403.353884046     A.U. after    1 cycles

 The electronic state is 1-A.
 Alpha  occ. eigenvalues --  -19.09127 -14.34581 -10.26978 -10.22799 -10.19784
 Alpha  occ. eigenvalues --  -10.19440 -10.19232 -10.18873 -10.18187  -1.02199
 Alpha  occ. eigenvalues --   -0.91828  -0.86168  -0.76769  -0.72939  -0.66067
 Alpha  occ. eigenvalues --   -0.59956  -0.57325  -0.54731  -0.50974  -0.48364
 Alpha  occ. eigenvalues --   -0.47438  -0.44588  -0.41932  -0.41850  -0.40847
 Alpha  occ. eigenvalues --   -0.39889  -0.37103  -0.36681  -0.35623  -0.33348
 Alpha  occ. eigenvalues --   -0.28486  -0.27800  -0.24375  -0.23621
 Alpha virt. eigenvalues --    0.03271   0.07050   0.09149   0.09851   0.11510
 Alpha virt. eigenvalues --    0.13798   0.13945   0.15438   0.16414   0.16914
 Alpha virt. eigenvalues --    0.17368   0.18632   0.19947   0.21059   0.22431

 Mulliken charges:
               1
     1  O   -0.371383
     2  C    0.369125
     3  C   -0.331055
     4  C   -0.024778
     5  C   -0.290131
     6  C   -0.010724
     7  C   -0.218170
     8  C   -0.172222
     9  N   -0.282017
    10  H    0.111173
    11  H    0.128564
    12  H    0.088774
    13  H    0.107393
    14  H    0.128953
    15  H    0.086681
    16  H    0.100621
    17  H    0.104727
    18  H    0.119387
    19  H    0.110684
    20  H    0.244399
 Sum of Mulliken charges =  -0.00000

 Dipole moment (field-independent basis, Debye):
    X=             -3.0975    Y=              1.9141    Z=              1.1012  Tot=              3.8041
 Quadrupole moment (field-independent basis, Debye-Ang):
   XX=            -61.9837   YY=            -49.5020   ZZ=            -52.9830
   XY=              3.6957   XZ=              1.8094   YZ=             -2.3402

  Exact polarizability:  83.067  -4.634  83.452  -2.325  -0.715  68.325
 Approx polarizability: 119.297 -12.766 118.788  -8.444   0.891 107.589

                      1                      2                      3
                      A                      A                      A
 Frequencies --     74.2195               111.8792               257.6311
 Red. masses --      5.3712                 2.9176                 2.6866
 Frc consts  --      0.0174                 0.0215                 0.1051
 IR Inten    --      0.4175                 0.7002                 0.7675

                      4                      5                      6
                      A                      A                      A
 Frequencies --    304.8815               314.2741               385.4969
 Red. masses --      2.8215                 2.1695                 3.7124
 Frc consts  --      0.1545                 0.1262                 0.3250
 IR Inten    --      2.3703                 0.5170                 1.6827

                      7                      8                      9
                      A                      A                      A
 Frequencies --    429.5797               468.6015               503.7737
 Red. masses --      2.3560                 2.3542                 1.8738
 Frc consts  --      0.2562                 0.3046                 0.2802
 IR Inten    --      4.1627                 8.3062                37.7266

                     10                     11                     12
                      A                      A                      A
 Frequencies --    593.4851               603.2828               693.9441
 Red. masses --      2.0067                 2.0433                 4.3019
 Frc consts  --      0.4164                 0.4382                 1.2205
 IR Inten    --     39.8748                 0.6529                 8.6986

                     13                     14                     15
                      A                      A                      A
 Frequencies --    729.2374               788.0047               831.5853
 Red. masses --      2.4683                 3.5433                 2.8724
 Frc consts  --      0.7734                 1.2963                 1.1703
 IR Inten    --      6.5319                 6.7714                 1.6011

                     16                     17                     18
                      A                      A                      A
 Frequencies --    853.4154               885.0462               915.0057
 Red. masses --      1.2103                 1.8866                 2.1129
 Frc consts  --      0.5193                 0.8707                 1.0423
 IR Inten    --      4.4182                 0.3263                 4.1479

                     19                     20                     21
                      A                      A                      A
 Frequencies --    951.8089               992.3488              1057.9147
 Red. masses --      2.3829                 2.2787                 1.8499
 Frc consts  --      1.2719                 1.3221                 1.2198
 IR Inten    --      6.5498                 4.6747                 0.6252

                     22                     23                     24
                      A                      A                      A
 Frequencies --   1065.0198              1080.1646              1102.2041
 Red. masses --      1.3516                 2.3038                 2.0459
 Frc consts  --      0.9032                 1.5837                 1.4644
 IR Inten    --      2.9820                12.4208                 2.4169

                     25                     26                     27
                      A                      A                      A
 Frequencies --   1127.0914              1141.3240              1164.1478
 Red. masses --      1.6228                 1.2195                 1.4662
 Frc consts  --      1.2146                 0.9359                 1.1707
 IR Inten    --      7.3826                 1.2092                 6.2976

                     28                     29                     30
                      A                      A                      A
 Frequencies --   1217.8398              1254.3729              1261.7491
 Red. masses --      1.3279                 1.3722                 1.2496
 Frc consts  --      1.1604                 1.2721                 1.1721
 IR Inten    --     31.6003                 1.4505                 2.6845

                     31                     32                     33
                      A                      A                      A
 Frequencies --   1287.5879              1329.6194              1340.5708
 Red. masses --      1.4033                 1.7219                 1.8776
 Frc consts  --      1.3707                 1.7936                 1.9880
 IR Inten    --      3.4741                 1.2357                40.2596

                     34                     35                     36
                      A                      A                      A
 Frequencies --   1382.0241              1397.9477              1409.5865
 Red. masses --      1.4440                 1.5166                 1.3571
 Frc consts  --      1.6250                 1.7462                 1.5887
 IR Inten    --     10.2227                31.0108                12.7529

                     37                     38                     39
                      A                      A                      A
 Frequencies --   1427.8765              1462.2134              1478.0143
 Red. masses --      1.5880                 1.4294                 1.1495
 Frc consts  --      1.9076                 1.8006                 1.4795
 IR Inten    --      3.6493                27.4505                26.1295

                     40                     41                     42
                      A                      A                      A
 Frequencies --   1486.0002              1499.9598              1501.8455
 Red. masses --      1.2613                 1.1516                 1.3280
 Frc consts  --      1.6410                 1.5265                 1.7649
 IR Inten    --     12.6648                14.4218                 3.7227

                     43                     44                     45
                      A                      A                      A
 Frequencies --   1787.8315              3019.4199              3022.4577
 Red. masses --      8.6378                 1.0678                 1.0609
 Frc consts  --     16.2669                 5.7357                 5.7104
 IR Inten    --    337.1760                20.8906                30.8281

                     46                     47                     48
                      A                      A                      A
 Frequencies --   3033.6244              3061.7833              3087.0401
 Red. masses --      1.0665                 1.0979                 1.1011
 Frc consts  --      5.7828                 6.0639                 6.1823
 IR Inten    --     22.5064                36.4771                32.3993

                     49                     50                     51
                      A                      A                      A
 Frequencies --   3101.0409              3127.2708              3129.6079
 Red. masses --      1.0937                 1.0556                 1.0857
 Frc consts  --      6.1969                 6.0826                 6.2655
 IR Inten    --      8.5533                12.7909                11.2031

                     52                     53                     54
                      A                      A                      A
 Frequencies --   3142.0352              3211.0344              3618.4337
 Red. masses --      1.0895                 1.1160                 1.0761
 Frc consts  --      6.3373                 6.7796                 8.3014
 IR Inten    --     27.8210                13.5581                23.6626

 - Thermochemistry -
 -------------------
 Temperature   298.150 Kelvin.  Pressure   1.00000 Atm.
 Atom     1 has atomic number  8 and mass  15.99491

 Molecular mass:   125.08406 amu.
 Principal axes and moments of inertia in atomic units:
                           1         2         3
     Eigenvalues --   761.326341077.408161491.15472
           X            0.99985   0.00941   0.01453
           Y           -0.00929   0.99992  -0.00848
           Z           -0.01460   0.00835   0.99986
 This molecule is an asymmetric top.
 Rotational symmetry number  1.
 Warning -- assumption of classical behavior for rotation
           may cause significant error
 Rotational temperatures (Kelvin)      0.11377     0.08039     0.05809
 Rotational constants (GHZ):           2.37052     1.67508     1.21030
 Zero-point vibrational energy     457596.5 (Joules/Mol)
                                  109.36818 (Kcal/Mol)
 Warning -- explicit consideration of  11 degrees of freedom as
           vibrations may cause significant error
 Vibrational temperatures:    106.79   160.97   370.67   438.66   452.17
          (Kelvin)            554.64   618.07   674.21   724.82   853.89
                              867.99   998.43  1049.21  1133.76  1196.47
                             1227.87  1273.38  1316.49  1369.44  1427.77
                             1522.10  1532.33  1554.12  1585.83  1621.63
                             1642.11  1674.95  1752.20  1804.76  1815.38
                             1852.55  1913.03  1928.78  1988.42  2011.33
                             2028.08  2054.40  2103.80  2126.53  2138.02
                             2158.11  2160.82  2572.29  4344.27  4348.64
                             4364.71  4405.22  4441.56  4461.71  4499.45
                             4502.81  4520.69  4619.96  5206.12

 Zero-point correction=                           0.174289 (Hartree/Particle)
 Thermal correction to Energy=                    0.182234
 Thermal correction to Enthalpy=                  0.183179
 Thermal correction to Gibbs Free Energy=         0.141735
 Sum of electronic and zero-point Energies=           -403.179595
 Sum of electronic and thermal Energies=              -403.171650
 Sum of electronic and thermal Enthalpies=            -403.170705
 Sum of electronic and thermal Free Energies=         -403.212149

                     E (Thermal)             CV                S
                      KCal/Mol        Cal/Mol-Kelvin    Cal/Mol-Kelvin
 Total                  114.354             31.468             87.226
 Electronic               0.000              0.000              0.000
 Translational            0.889              2.981             40.385
 Rotational               0.889              2.981             28.594
 Vibrational            112.576             25.507             18.247
 Vibration     1          0.599              1.966              4.038
 Vibration     2          0.607              1.940              3.236
 Vibration     3          0.667              1.750              1.678
 Vibration     4          0.696              1.664              1.390
 Vibration     5          0.702              1.646              1.340
 Vibration     6          0.754              1.501              1.018
 Vibration     7          0.791              1.406              0.860
 Vibration     8          0.826              1.320              0.741
 Vibration     9          0.859              1.242              0.649
 Vibration    10          0.951              1.046              0.461
 Vibration    11          0.962              1.025              0.444

 Optimization completed.
    -- Stationary point found.
 Normal termination of Gaussian 16 at Thu Aug  4 14:56:35 2022.
