 Gaussian 16, Revision A.03,
 Gaussian 16:  ES64L-G16RevA.03 25-Dec-2016

 -----------------------------
 # opt freq b3lyp/6-31g(2df,p)
 -----------------------------

 -------------------
 Title Card Required
 -------------------
 Symbolic Z-matrix:
 Charge =  0 Multiplicity = 1

 SCF Done:  E(RB3LYP) =  -432.593178982     A.U. after   21 cycles
 SCF Done:  E(RB3LYP) =  -426.207549464     A.U. after   35 cycles
 SCF Done:  E(RB3LYP) =  -432.567594103     A.U. after   21 cycles
 SCF Done:  E(RB3LYP) =  -432.642878636     A.U. after   17 cycles
 SCF Done:  E(RB3LYP) =  -432.663989704     A.U. after   16 cycles
 SCF Done:  E(RB3LYP) =  -432.692162699     A.U. after   18 cycles
 SCF Done:  E(RB3LYP) =  -432.703186536     A.U. after   19 cycles
 SCF Done:  E(RB3LYP) =  -432.738183132     A.U. after   19 cycles
 SCF Done:  E(RB3LYP) =  -432.787620911     A.U. after   17 cycles
 SCF Done:  E(RB3LYP) =  -432.789131771     A.U. after   17 cycles
 SCF Done:  E(RB3LYP) =  -432.898542620     A.U. after    9 cycles
 SCF Done:  E(RB3LYP) =  -432.898555292     A.U. after    9 cycles
 SCF Done:  E(RB3LYP) =  -432.898564577     A.U. after    9 cycles
 SCF Done:  E(RB3LYP) =  -432.898572319     A.U. after    9 cycles
 SCF Done:  E(RB3LYP) =  -432.898578571     A.U. after    9 cycles
 SCF Done:  E(RB3LYP) =  -432.898580939     A.U. after    9 cycles
 SCF Done:  E(RB3LYP) =  -432.898582184     A.U. after    9 cycles
 SCF Done:  E(RB3LYP) =  -432.898582930     A.U. after    8 cycles
 SCF Done:  E(RB3LYP) =  -432.898583329     A.U. after    8 cycles
 Optimization completed.
    -- Stationary point found.
 Normal termination of Gaussian 16 at Wed Aug  3 10:33:55 2022.

 ----------------------------------------------------------------------
 #N Geom=AllCheck Guess=TCheck SCRF=Check GenChk RB3LYP/6-31G(2df,p) Fr
 eq
 ----------------------------------------------------------------------

 Structure from the checkpoint file:  "OdC1CdNNdCNdCC1.chk"
 -------------------
 Title Card Required
 -------------------
 Charge =  0 Multiplicity = 1

                         Standard orientation:
 ---------------------------------------------------------------------
 Center     Atomic      Atomic             Coordinates (Angstroms)
 Number     Number       Type             X           Y           Z
 ---------------------------------------------------------------------
      1          8           0       -2.667359   -0.442159   -0.139606
      2          6           0       -1.478683   -0.273190    0.044045
      3          6           0       -0.510678   -1.346752   -0.112853
      4          7           0        0.749955   -1.039732    0.059779
      5          7           0        2.007755   -1.251892   -0.166337
      6          6           0        1.582564    0.038525    0.425858
      7          7           0        1.441345    1.227853   -0.348103
      8          6           0        0.253691    1.693046   -0.350171
      9          6           0       -0.951629    1.146652    0.410469
     10          1           0       -0.780561   -2.311276   -0.522770
     11          1           0        1.785800    0.192332    1.487264
     12          1           0        0.081705    2.601322   -0.931335
     13          1           0       -1.807016    1.810212    0.280379
     14          1           0       -0.706029    1.141388    1.481855
 ---------------------------------------------------------------------

 SCF Done:  E(RB3LYP) =  -432.898583329     A.U. after    1 cycles

 The electronic state is 1-A.
 Alpha  occ. eigenvalues --  -19.13522 -14.47566 -14.38803 -14.35625 -10.30702
 Alpha  occ. eigenvalues --  -10.28920 -10.26736 -10.24441 -10.22198  -1.14585
 Alpha  occ. eigenvalues --   -1.04757  -0.95532  -0.87974  -0.77342  -0.71046
 Alpha  occ. eigenvalues --   -0.64708  -0.60522  -0.58361  -0.54227  -0.51208
 Alpha  occ. eigenvalues --   -0.48752  -0.47336  -0.45234  -0.42744  -0.42370
 Alpha  occ. eigenvalues --   -0.41457  -0.37646  -0.34415  -0.34106  -0.27723
 Alpha  occ. eigenvalues --   -0.26042  -0.24116
 Alpha virt. eigenvalues --   -0.07480  -0.04615   0.03239   0.06486   0.09053
 Alpha virt. eigenvalues --    0.09756   0.13176   0.14797   0.17347   0.17644
 Alpha virt. eigenvalues --    0.18472   0.19772   0.21728   0.23776   0.28439

 Mulliken charges:
               1
     1  O   -0.319068
     2  C    0.354279
     3  C   -0.177690
     4  N    0.209425
     5  N   -0.269899
     6  C    0.031039
     7  N   -0.164483
     8  C    0.006062
     9  C   -0.383268
    10  H    0.150096
    11  H    0.133077
    12  H    0.137050
    13  H    0.143925
    14  H    0.149455
 Sum of Mulliken charges =  -0.00000

 Dipole moment (field-independent basis, Debye):
    X=              0.0356    Y=              1.4587    Z=              1.7038  Tot=              2.2432
 Quadrupole moment (field-independent basis, Debye-Ang):
   XX=            -66.0511   YY=            -47.8113   ZZ=            -48.5467
   XY=             -1.2508   XZ=              2.8265   YZ=              0.6415

  Exact polarizability: 104.150  -2.971  72.215   1.973   1.392  45.628
 Approx polarizability: 245.275 -11.327 107.666   0.974   3.242  72.964

                      1                      2                      3
                      A                      A                      A
 Frequencies --    115.2743               191.2418               301.7356
 Red. masses --      4.8308                 4.0239                 3.8745
 Frc consts  --      0.0378                 0.0867                 0.2078
 IR Inten    --      7.1331                 2.8785                 7.4870

                      4                      5                      6
                      A                      A                      A
 Frequencies --    337.8817               372.7234               465.7366
 Red. masses --      3.9212                 5.8778                 5.1510
 Frc consts  --      0.2638                 0.4811                 0.6583
 IR Inten    --      4.4850                 7.7538                 9.3824

                      7                      8                      9
                      A                      A                      A
 Frequencies --    493.8991               537.9953               552.4271
 Red. masses --      5.9576                 3.2655                 4.8522
 Frc consts  --      0.8562                 0.5569                 0.8724
 IR Inten    --      3.5782                 3.3406                 3.0870

                     10                     11                     12
                      A                      A                      A
 Frequencies --    641.3536               742.1479               766.0132
 Red. masses --      5.3955                 3.6159                 2.0722
 Frc consts  --      1.3076                 1.1734                 0.7164
 IR Inten    --      7.1764                 6.9259                13.9010

                     13                     14                     15
                      A                      A                      A
 Frequencies --    799.6907               833.3184               926.3346
 Red. masses --      1.8737                 3.7492                 2.9599
 Frc consts  --      0.7060                 1.5340                 1.4965
 IR Inten    --     27.2898                 3.4562                 1.8784

                     16                     17                     18
                      A                      A                      A
 Frequencies --    938.2108              1007.4061              1018.0247
 Red. masses --      2.3896                 2.6960                 2.3657
 Frc consts  --      1.2393                 1.6121                 1.4445
 IR Inten    --     12.5892                27.6300                28.3905

                     19                     20                     21
                      A                      A                      A
 Frequencies --   1082.9227              1135.3387              1180.4117
 Red. masses --      1.5148                 2.3311                 1.5848
 Frc consts  --      1.0466                 1.7704                 1.3011
 IR Inten    --     25.2946                59.7086                31.6079

                     22                     23                     24
                      A                      A                      A
 Frequencies --   1222.3976              1233.9988              1299.2374
 Red. masses --      2.8113                 4.5411                 1.3868
 Frc consts  --      2.4750                 4.0742                 1.3793
 IR Inten    --     38.0651                63.6147                 1.6563

                     25                     26                     27
                      A                      A                      A
 Frequencies --   1359.4622              1376.9311              1409.2346
 Red. masses --      1.3269                 1.7180                 1.4180
 Frc consts  --      1.4448                 1.9191                 1.6592
 IR Inten    --     23.2363                17.8258                24.4296

                     28                     29                     30
                      A                      A                      A
 Frequencies --   1461.1604              1686.5467              1702.9060
 Red. masses --      1.0843                 9.4339                10.7553
 Frc consts  --      1.3639                15.8103                18.3762
 IR Inten    --      9.1012                97.6283               342.8898

                     31                     32                     33
                      A                      A                      A
 Frequencies --   1768.6320              3021.8423              3094.4331
 Red. masses --     11.3481                 1.0687                 1.0864
 Frc consts  --     20.9145                 5.7495                 6.1291
 IR Inten    --    164.1102                 1.6608                21.5784

                     34                     35                     36
                      A                      A                      A
 Frequencies --   3110.5232              3133.8447              3220.5050
 Red. masses --      1.0897                 1.0932                 1.0908
 Frc consts  --      6.2121                 6.3259                 6.6656
 IR Inten    --     17.7982                 9.6934                 0.4181

 - Thermochemistry -
 -------------------
 Temperature   298.150 Kelvin.  Pressure   1.00000 Atm.
 Atom     1 has atomic number  8 and mass  15.99491

 Molecular mass:   123.04326 amu.
 Principal axes and moments of inertia in atomic units:
                           1         2         3
     Eigenvalues --   588.670931070.728061559.99931
           X            0.99990  -0.01293   0.00511
           Y            0.01289   0.99987   0.00950
           Z           -0.00524  -0.00944   0.99994
 This molecule is an asymmetric top.
 Rotational symmetry number  1.
 Warning -- assumption of classical behavior for rotation
           may cause significant error
 Rotational temperatures (Kelvin)      0.14713     0.08089     0.05552
 Rotational constants (GHZ):           3.06579     1.68553     1.15689
 Zero-point vibrational energy     266418.8 (Joules/Mol)
                                   63.67562 (Kcal/Mol)
 Warning -- explicit consideration of   9 degrees of freedom as
           vibrations may cause significant error
 Vibrational temperatures:    165.85   275.15   434.13   486.14   536.27
          (Kelvin)            670.09   710.61   774.06   794.82   922.76
                             1067.79  1102.12  1150.58  1198.96  1332.79
                             1349.88  1449.43  1464.71  1558.08  1633.50
                             1698.35  1758.76  1775.45  1869.31  1955.96
                             1981.10  2027.57  2102.28  2426.56  2450.10
                             2544.67  4347.76  4452.20  4475.35  4508.90
                             4633.59

 Zero-point correction=                           0.101474 (Hartree/Particle)
 Thermal correction to Energy=                    0.108362
 Thermal correction to Enthalpy=                  0.109307
 Thermal correction to Gibbs Free Energy=         0.070164
 Sum of electronic and zero-point Energies=           -432.797110
 Sum of electronic and thermal Energies=              -432.790221
 Sum of electronic and thermal Enthalpies=            -432.789277
 Sum of electronic and thermal Free Energies=         -432.828419

                     E (Thermal)             CV                S
                      KCal/Mol        Cal/Mol-Kelvin    Cal/Mol-Kelvin
 Total                   67.998             26.549             82.383
 Electronic               0.000              0.000              0.000
 Translational            0.889              2.981             40.336
 Rotational               0.889              2.981             28.377
 Vibrational             66.221             20.587             13.670
 Vibration     1          0.608              1.937              3.178
 Vibration     2          0.634              1.852              2.216
 Vibration     3          0.694              1.670              1.407
 Vibration     4          0.718              1.600              1.222
 Vibration     5          0.744              1.528              1.069
 Vibration     6          0.823              1.326              0.750
 Vibration     7          0.850              1.264              0.674
 Vibration     8          0.893              1.166              0.570
 Vibration     9          0.908              1.134              0.539

 Optimization completed.
    -- Stationary point found.
 Normal termination of Gaussian 16 at Wed Aug  3 10:59:33 2022.
