 Gaussian 16, Revision A.03,
 Gaussian 16:  ES64L-G16RevA.03 25-Dec-2016

 -----------------------------
 # opt freq b3lyp/6-31g(2df,p)
 -----------------------------

 -------------------
 Title Card Required
 -------------------
 Symbolic Z-matrix:
 Charge =  0 Multiplicity = 1

 SCF Done:  E(RB3LYP) =  -440.498169024     A.U. after   14 cycles
 SCF Done:  E(RB3LYP) =  -440.501363722     A.U. after   11 cycles
 SCF Done:  E(RB3LYP) =  -440.501577021     A.U. after   11 cycles
 SCF Done:  E(RB3LYP) =  -440.501879571     A.U. after   10 cycles
 SCF Done:  E(RB3LYP) =  -440.501951715     A.U. after    9 cycles
 SCF Done:  E(RB3LYP) =  -440.502019864     A.U. after   10 cycles
 SCF Done:  E(RB3LYP) =  -440.502034701     A.U. after    9 cycles
 SCF Done:  E(RB3LYP) =  -440.502044851     A.U. after    8 cycles
 SCF Done:  E(RB3LYP) =  -440.502046389     A.U. after    8 cycles
 SCF Done:  E(RB3LYP) =  -440.502047152     A.U. after    8 cycles
 SCF Done:  E(RB3LYP) =  -440.502047200     A.U. after    6 cycles
 Optimization completed.
    -- Stationary point found.
 Normal termination of Gaussian 16 at Thu Aug  4 12:46:18 2022.

 ----------------------------------------------------------------------
 #N Geom=AllCheck Guess=TCheck SCRF=Check GenChk RB3LYP/6-31G(2df,p) Fr
 eq
 ----------------------------------------------------------------------

 Structure from the checkpoint file:  "OdC1CCCpCOpCN1.chk"
 -------------------
 Title Card Required
 -------------------
 Charge =  0 Multiplicity = 1

                         Standard orientation:
 ---------------------------------------------------------------------
 Center     Atomic      Atomic             Coordinates (Angstroms)
 Number     Number       Type             X           Y           Z
 ---------------------------------------------------------------------
      1          8           0       -2.824042   -0.546206   -0.616168
      2          6           0       -1.716132   -0.248601   -0.209813
      3          6           0       -0.723893   -1.292542    0.289012
      4          6           0        0.408570   -0.746285    1.168393
      5          6           0        1.010048    0.538993    0.579421
      6          6           0        1.746330    0.301517   -0.750465
      7          8           0        2.719158   -0.727179   -0.671618
      8          6           0       -0.094479    1.591665    0.430111
      9          7           0       -1.265879    1.047072   -0.247247
     10          1           0       -0.311526   -1.777747   -0.604160
     11          1           0       -1.302817   -2.061044    0.806666
     12          1           0        1.189053   -1.503368    1.280369
     13          1           0        0.024595   -0.526421    2.172110
     14          1           0        1.741710    0.942430    1.293400
     15          1           0        2.193446    1.249749   -1.088957
     16          1           0        1.044983   -0.013663   -1.528485
     17          1           0        3.404162   -0.443210   -0.057549
     18          1           0        0.270557    2.449589   -0.148003
     19          1           0       -0.365214    1.972734    1.426450
     20          1           0       -1.971390    1.700046   -0.558777
 ---------------------------------------------------------------------

 SCF Done:  E(RB3LYP) =  -440.502047200     A.U. after    1 cycles

 The electronic state is 1-A.
 Alpha  occ. eigenvalues --  -19.14515 -19.08936 -14.34755 -10.26991 -10.23417
 Alpha  occ. eigenvalues --  -10.23172 -10.20197 -10.18940 -10.18625  -1.02582
 Alpha  occ. eigenvalues --   -1.02113  -0.91943  -0.81053  -0.75676  -0.68556
 Alpha  occ. eigenvalues --   -0.65554  -0.60688  -0.55123  -0.50844  -0.50382
 Alpha  occ. eigenvalues --   -0.47562  -0.45348  -0.44478  -0.43401  -0.42691
 Alpha  occ. eigenvalues --   -0.41154  -0.39194  -0.37440  -0.34585  -0.34466
 Alpha  occ. eigenvalues --   -0.33407  -0.32303  -0.27730  -0.24579  -0.23530
 Alpha virt. eigenvalues --    0.03244   0.05926   0.07961   0.10099   0.11664
 Alpha virt. eigenvalues --    0.12457   0.14589   0.14778   0.16161   0.17507
 Alpha virt. eigenvalues --    0.17949   0.19241   0.20084   0.21295   0.21741

 Mulliken charges:
               1
     1  O   -0.375996
     2  C    0.387337
     3  C   -0.308162
     4  C   -0.217987
     5  C   -0.032217
     6  C   -0.062422
     7  O   -0.415341
     8  C   -0.173431
     9  N   -0.301252
    10  H    0.141649
    11  H    0.128321
    12  H    0.110258
    13  H    0.098413
    14  H    0.066757
    15  H    0.087647
    16  H    0.125567
    17  H    0.283083
    18  H    0.107397
    19  H    0.106873
    20  H    0.243507
 Sum of Mulliken charges =   0.00000

 Dipole moment (field-independent basis, Debye):
    X=              3.3508    Y=              2.7507    Z=              2.0582  Tot=              4.7990
 Quadrupole moment (field-independent basis, Debye-Ang):
   XX=            -62.1054   YY=            -51.0156   ZZ=            -54.3299
   XY=             -1.4713   XZ=              0.2844   YZ=             -2.2566

  Exact polarizability:  84.257   3.676  77.079   4.546  -0.584  63.702
 Approx polarizability: 117.897   8.299 113.131   8.906   1.766  96.117

                      1                      2                      3
                      A                      A                      A
 Frequencies --     63.3951                99.5522               140.9182
 Red. masses --      6.6747                 2.7935                 3.9979
 Frc consts  --      0.0158                 0.0163                 0.0468
 IR Inten    --      1.4587                 1.3758                 2.2782

                      4                      5                      6
                      A                      A                      A
 Frequencies --    218.5673               255.0275               316.4801
 Red. masses --      2.2660                 2.5293                 1.1445
 Frc consts  --      0.0638                 0.0969                 0.0675
 IR Inten    --      3.0063                 0.8844               112.1695

                      7                      8                      9
                      A                      A                      A
 Frequencies --    340.8785               404.3990               466.2628
 Red. masses --      2.2630                 3.7656                 3.0859
 Frc consts  --      0.1549                 0.3628                 0.3953
 IR Inten    --      1.1370                 9.0283                 3.7732

                     10                     11                     12
                      A                      A                      A
 Frequencies --    507.8075               537.0938               560.2505
 Red. masses --      2.4629                 3.1033                 2.6137
 Frc consts  --      0.3742                 0.5274                 0.4834
 IR Inten    --     29.5654                 3.4277                 7.8167

                     13                     14                     15
                      A                      A                      A
 Frequencies --    665.6288               730.6074               766.5843
 Red. masses --      1.5673                 3.0727                 2.9253
 Frc consts  --      0.4091                 0.9664                 1.0128
 IR Inten    --     65.4798                 6.8771                 6.8370

                     16                     17                     18
                      A                      A                      A
 Frequencies --    816.1156               879.6726               943.9698
 Red. masses --      2.6348                 1.8398                 2.3567
 Frc consts  --      1.0340                 0.8388                 1.2373
 IR Inten    --      2.4995                 6.3175                 9.3464

                     19                     20                     21
                      A                      A                      A
 Frequencies --    960.2577               994.1837              1015.0168
 Red. masses --      1.7772                 1.9663                 2.2410
 Frc consts  --      0.9655                 1.1451                 1.3603
 IR Inten    --      4.3169                 0.5550                11.7211

                     22                     23                     24
                      A                      A                      A
 Frequencies --   1069.3258              1100.7985              1114.9207
 Red. masses --      3.0453                 2.3854                 1.7568
 Frc consts  --      2.0517                 1.7030                 1.2867
 IR Inten    --     92.2158                 6.1037                14.3222

                     25                     26                     27
                      A                      A                      A
 Frequencies --   1126.0232              1172.0327              1200.5268
 Red. masses --      1.3672                 1.1816                 1.8739
 Frc consts  --      1.0213                 0.9563                 1.5912
 IR Inten    --     21.0272                 8.6269                15.6190

                     28                     29                     30
                      A                      A                      A
 Frequencies --   1233.3333              1287.6710              1314.5227
 Red. masses --      1.3382                 1.1556                 1.6537
 Frc consts  --      1.1993                 1.1289                 1.6836
 IR Inten    --     14.1785                 3.9655                15.7264

                     31                     32                     33
                      A                      A                      A
 Frequencies --   1323.5853              1344.6918              1376.8990
 Red. masses --      1.5417                 1.4684                 1.5345
 Frc consts  --      1.5913                 1.5643                 1.7140
 IR Inten    --     59.7418                32.5357                23.3847

                     34                     35                     36
                      A                      A                      A
 Frequencies --   1384.3022              1395.4399              1406.7331
 Red. masses --      1.5041                 1.4767                 1.3261
 Frc consts  --      1.6982                 1.6942                 1.5461
 IR Inten    --      7.8947                16.0214                29.4648

                     37                     38                     39
                      A                      A                      A
 Frequencies --   1423.7179              1464.3331              1482.1703
 Red. masses --      1.3400                 1.1089                 1.4058
 Frc consts  --      1.6003                 1.4009                 1.8196
 IR Inten    --     14.8367                 9.2663                 7.1405

                     40                     41                     42
                      A                      A                      A
 Frequencies --   1493.2270              1512.1330              1526.0473
 Red. masses --      1.2568                 1.0835                 1.1581
 Frc consts  --      1.6511                 1.4597                 1.5890
 IR Inten    --     21.6312                 2.7577                16.8379

                     43                     44                     45
                      A                      A                      A
 Frequencies --   1789.5794              2977.1908              2980.7523
 Red. masses --      8.7461                 1.0730                 1.0694
 Frc consts  --     16.5032                 5.6037                 5.5979
 IR Inten    --    356.2313                52.2210                41.8334

                     46                     47                     48
                      A                      A                      A
 Frequencies --   3007.1853              3033.5778              3038.8201
 Red. masses --      1.0810                 1.0700                 1.0929
 Frc consts  --      5.7599                 5.8018                 5.9462
 IR Inten    --     43.7905                32.5809                40.9431

                     49                     50                     51
                      A                      A                      A
 Frequencies --   3045.9875              3090.4308              3093.5185
 Red. masses --      1.0662                 1.0905                 1.0953
 Frc consts  --      5.8284                 6.1366                 6.1760
 IR Inten    --     14.5049                29.5835                19.0738

                     52                     53                     54
                      A                      A                      A
 Frequencies --   3105.7914              3598.0930              3811.1854
 Red. masses --      1.0956                 1.0754                 1.0662
 Frc consts  --      6.2264                 8.2027                 9.1242
 IR Inten    --     11.5964                19.0240                19.6846

 - Thermochemistry -
 -------------------
 Temperature   298.150 Kelvin.  Pressure   1.00000 Atm.
 Atom     1 has atomic number  8 and mass  15.99491

 Molecular mass:   129.07898 amu.
 Principal axes and moments of inertia in atomic units:
                           1         2         3
     Eigenvalues --   630.735781601.952081804.39672
           X            0.99999   0.00350  -0.00175
           Y           -0.00356   0.99925  -0.03857
           Z            0.00161   0.03857   0.99925
 This molecule is an asymmetric top.
 Rotational symmetry number  1.
 Warning -- assumption of classical behavior for rotation
           may cause significant error
 Rotational temperatures (Kelvin)      0.13732     0.05407     0.04800
 Rotational constants (GHZ):           2.86133     1.12659     1.00019
 Zero-point vibrational energy     454624.1 (Joules/Mol)
                                  108.65777 (Kcal/Mol)
 Warning -- explicit consideration of  12 degrees of freedom as
           vibrations may cause significant error
 Vibrational temperatures:     91.21   143.23   202.75   314.47   366.93
          (Kelvin)            455.34   490.45   581.84   670.85   730.62
                              772.76   806.08   957.69  1051.18  1102.94
                             1174.21  1265.65  1358.16  1381.60  1430.41
                             1460.38  1538.52  1583.80  1604.12  1620.10
                             1686.29  1727.29  1774.49  1852.67  1891.30
                             1904.34  1934.71  1981.05  1991.70  2007.73
                             2023.98  2048.41  2106.85  2132.51  2148.42
                             2175.62  2195.64  2574.81  4283.51  4288.64
                             4326.67  4364.64  4372.18  4382.50  4446.44
                             4450.88  4468.54  5176.85  5483.45

 Zero-point correction=                           0.173157 (Hartree/Particle)
 Thermal correction to Energy=                    0.181995
 Thermal correction to Enthalpy=                  0.182939
 Thermal correction to Gibbs Free Energy=         0.139253
 Sum of electronic and zero-point Energies=           -440.328890
 Sum of electronic and thermal Energies=              -440.320052
 Sum of electronic and thermal Enthalpies=            -440.319108
 Sum of electronic and thermal Free Energies=         -440.362794

                     E (Thermal)             CV                S
                      KCal/Mol        Cal/Mol-Kelvin    Cal/Mol-Kelvin
 Total                  114.204             33.269             91.946
 Electronic               0.000              0.000              0.000
 Translational            0.889              2.981             40.479
 Rotational               0.889              2.981             28.990
 Vibrational            112.426             27.307             22.476
 Vibration     1          0.597              1.972              4.349
 Vibration     2          0.604              1.949              3.463
 Vibration     3          0.615              1.912              2.791
 Vibration     4          0.646              1.813              1.971
 Vibration     5          0.665              1.754              1.696
 Vibration     6          0.703              1.642              1.328
 Vibration     7          0.720              1.594              1.208
 Vibration     8          0.770              1.461              0.947
 Vibration     9          0.824              1.325              0.748
 Vibration    10          0.863              1.233              0.639
 Vibration    11          0.892              1.168              0.572
 Vibration    12          0.916              1.117              0.523

 Optimization completed.
    -- Stationary point found.
 Normal termination of Gaussian 16 at Thu Aug  4 13:16:43 2022.
