 Gaussian 16, Revision A.03,
 Gaussian 16:  ES64L-G16RevA.03 25-Dec-2016

 -----------------------------
 # opt freq b3lyp/6-31g(2df,p)
 -----------------------------

 -------------------
 Title Card Required
 -------------------
 Symbolic Z-matrix:
 Charge =  0 Multiplicity = 1

 SCF Done:  E(RB3LYP) =  -402.027823236     A.U. after   14 cycles
 SCF Done:  E(RB3LYP) =  -402.054852536     A.U. after   13 cycles
 SCF Done:  E(RB3LYP) =  -402.067999356     A.U. after   12 cycles
 SCF Done:  E(RB3LYP) =  -402.071014258     A.U. after   12 cycles
 SCF Done:  E(RB3LYP) =  -402.072517252     A.U. after   13 cycles
 SCF Done:  E(RB3LYP) =  -402.073299856     A.U. after   12 cycles
 SCF Done:  E(RB3LYP) =  -402.073616683     A.U. after   11 cycles
 SCF Done:  E(RB3LYP) =  -402.073698586     A.U. after   11 cycles
 SCF Done:  E(RB3LYP) =  -402.073710662     A.U. after    9 cycles
 SCF Done:  E(RB3LYP) =  -402.073716491     A.U. after    8 cycles
 SCF Done:  E(RB3LYP) =  -402.073717243     A.U. after    7 cycles
 Optimization completed.
    -- Stationary point found.
 Normal termination of Gaussian 16 at Sun Jul  3 09:31:51 2022.

 ----------------------------------------------------------------------
 #N Geom=AllCheck Guess=TCheck SCRF=Check GenChk RB3LYP/6-31G(2df,p) Fr
 eq
 ----------------------------------------------------------------------

 Structure from the checkpoint file:  "OdC1CdCCNC2CC12.chk"
 -------------------
 Title Card Required
 -------------------
 Charge =  0 Multiplicity = 1

                         Standard orientation:
 ---------------------------------------------------------------------
 Center     Atomic      Atomic             Coordinates (Angstroms)
 Number     Number       Type             X           Y           Z
 ---------------------------------------------------------------------
      1          8           0       -2.549003   -0.474258   -0.151807
      2          6           0       -1.368542   -0.451142    0.119707
      3          6           0       -0.479266   -1.643942   -0.074999
      4          6           0        0.866906   -1.675600   -0.050842
      5          6           0        1.911225   -0.610650    0.298831
      6          7           0        1.769664    0.776830   -0.218422
      7          6           0        0.409392    1.092064   -0.520846
      8          6           0       -0.483120    2.147104    0.106858
      9          6           0       -0.555857    0.718923    0.567821
     10          1           0       -1.018184   -2.555946   -0.320633
     11          1           0        1.317121   -2.646680   -0.254555
     12          1           0        2.892027   -0.979961   -0.015389
     13          1           0        1.960432   -0.565638    1.397604
     14          1           0        2.358827    0.898674   -1.032746
     15          1           0        0.061348    0.806137   -1.515855
     16          1           0       -1.262543    2.554329   -0.528369
     17          1           0       -0.055400    2.844231    0.819041
     18          1           0       -0.053681    0.540569    1.515122
 ---------------------------------------------------------------------

 SCF Done:  E(RB3LYP) =  -402.073717243     A.U. after    1 cycles

 The electronic state is 1-A.
 Alpha  occ. eigenvalues --  -19.11989 -14.33194 -10.26422 -10.22969 -10.22338
 Alpha  occ. eigenvalues --  -10.21139 -10.19868 -10.19338 -10.19314  -1.02971
 Alpha  occ. eigenvalues --   -0.93236  -0.84570  -0.79701  -0.70130  -0.66253
 Alpha  occ. eigenvalues --   -0.60151  -0.56705  -0.54701  -0.50979  -0.48561
 Alpha  occ. eigenvalues --   -0.45183  -0.45080  -0.43456  -0.40840  -0.40466
 Alpha  occ. eigenvalues --   -0.38484  -0.38326  -0.36726  -0.32033  -0.28997
 Alpha  occ. eigenvalues --   -0.27226  -0.24012  -0.23182
 Alpha virt. eigenvalues --   -0.04729   0.05160   0.07389   0.08897   0.09830
 Alpha virt. eigenvalues --    0.12363   0.12709   0.13818   0.16069   0.17346
 Alpha virt. eigenvalues --    0.18902   0.19991   0.22227   0.22678   0.23788

 Mulliken charges:
               1
     1  O   -0.330632
     2  C    0.327493
     3  C   -0.141474
     4  C   -0.053449
     5  C   -0.231407
     6  N   -0.311743
     7  C    0.035212
     8  C   -0.341585
     9  C   -0.096296
    10  H    0.106488
    11  H    0.105836
    12  H    0.109799
    13  H    0.132113
    14  H    0.225598
    15  H    0.095888
    16  H    0.128151
    17  H    0.123675
    18  H    0.116333
 Sum of Mulliken charges =  -0.00000

 Dipole moment (field-independent basis, Debye):
    X=              3.5873    Y=             -0.3103    Z=             -0.3388  Tot=              3.6166
 Quadrupole moment (field-independent basis, Debye-Ang):
   XX=            -59.7903   YY=            -50.0245   ZZ=            -50.6565
   XY=             -3.8052   XZ=             -2.2904   YZ=             -0.7987

  Exact polarizability:  96.980  -4.099  84.899   1.377   1.215  55.515
 Approx polarizability: 166.165  -4.305 115.835   1.971   0.135  90.524

                      1                      2                      3
                      A                      A                      A
 Frequencies --     94.4271               155.3907               225.4260
 Red. masses --      4.5119                 2.0652                 3.1224
 Frc consts  --      0.0237                 0.0294                 0.0935
 IR Inten    --      2.3356                 1.4754                 1.5981

                      4                      5                      6
                      A                      A                      A
 Frequencies --    309.9986               332.5383               378.7864
 Red. masses --      4.2165                 3.4928                 3.7022
 Frc consts  --      0.2387                 0.2276                 0.3130
 IR Inten    --      6.6202                 0.2823                 0.9251

                      7                      8                      9
                      A                      A                      A
 Frequencies --    408.4465               517.6789               539.5619
 Red. masses --      3.0936                 4.3507                 3.0411
 Frc consts  --      0.3041                 0.6870                 0.5216
 IR Inten    --     12.8016                 2.9559                 6.5231

                     10                     11                     12
                      A                      A                      A
 Frequencies --    624.2666               708.5442               727.6646
 Red. masses --      1.9264                 3.9301                 1.9635
 Frc consts  --      0.4423                 1.1625                 0.6126
 IR Inten    --     11.0672                 8.7128                36.6086

                     13                     14                     15
                      A                      A                      A
 Frequencies --    785.6468               822.1351               833.1741
 Red. masses --      1.4549                 2.4730                 2.5751
 Frc consts  --      0.5291                 0.9848                 1.0532
 IR Inten    --     24.7425                12.7330                 7.8968

                     16                     17                     18
                      A                      A                      A
 Frequencies --    889.6953               925.4696               960.3362
 Red. masses --      2.2921                 5.4881                 2.2973
 Frc consts  --      1.0690                 2.7695                 1.2483
 IR Inten    --      2.2632                10.2905                18.8188

                     19                     20                     21
                      A                      A                      A
 Frequencies --    986.6342              1024.4988              1051.1708
 Red. masses --      2.5063                 1.3361                 1.9453
 Frc consts  --      1.4375                 0.8262                 1.2664
 IR Inten    --      8.7635                 2.0585                11.1662

                     22                     23                     24
                      A                      A                      A
 Frequencies --   1069.4243              1075.1052              1105.2061
 Red. masses --      1.7591                 1.4592                 1.3941
 Frc consts  --      1.1853                 0.9937                 1.0033
 IR Inten    --      3.3360                 7.4643                15.9269

                     25                     26                     27
                      A                      A                      A
 Frequencies --   1142.6137              1151.4562              1188.6721
 Red. masses --      1.2285                 2.6620                 1.8765
 Frc consts  --      0.9450                 2.0795                 1.5621
 IR Inten    --      5.5977                29.0480                29.1459

                     28                     29                     30
                      A                      A                      A
 Frequencies --   1247.2338              1269.3897              1287.5850
 Red. masses --      1.2912                 1.5885                 1.1840
 Frc consts  --      1.1834                 1.5081                 1.1565
 IR Inten    --      2.2648                18.4459                16.7939

                     31                     32                     33
                      A                      A                      A
 Frequencies --   1368.3234              1382.5681              1404.5722
 Red. masses --      1.2213                 1.5437                 1.4761
 Frc consts  --      1.3472                 1.7385                 1.7158
 IR Inten    --     17.1178                 6.2168                11.5544

                     34                     35                     36
                      A                      A                      A
 Frequencies --   1444.9153              1462.3220              1490.3223
 Red. masses --      1.4278                 1.1980                 1.1243
 Frc consts  --      1.7563                 1.5094                 1.4713
 IR Inten    --     10.8235                 8.4785                 3.6501

                     37                     38                     39
                      A                      A                      A
 Frequencies --   1503.3741              1652.0129              1791.7412
 Red. masses --      1.5326                 6.7915                11.6883
 Frc consts  --      2.0408                10.9206                22.1082
 IR Inten    --     11.8102                 9.0860               265.1648

                     40                     41                     42
                      A                      A                      A
 Frequencies --   2982.6834              3065.5106              3072.9276
 Red. masses --      1.0730                 1.0853                 1.0888
 Frc consts  --      5.6242                 6.0088                 6.0574
 IR Inten    --     28.3006                23.6237                26.1702

                     43                     44                     45
                      A                      A                      A
 Frequencies --   3127.6968              3134.2943              3143.4748
 Red. masses --      1.0856                 1.0542                 1.0852
 Frc consts  --      6.2570                 6.1019                 6.3181
 IR Inten    --     15.2185                13.0831                 2.0186

                     46                     47                     48
                      A                      A                      A
 Frequencies --   3165.4304              3226.8547              3546.9438
 Red. masses --      1.0923                 1.1173                 1.0748
 Frc consts  --      6.4483                 6.8544                 7.9670
 IR Inten    --     17.1821                 4.4476                 1.2899

 - Thermochemistry -
 -------------------
 Temperature   298.150 Kelvin.  Pressure   1.00000 Atm.
 Atom     1 has atomic number  8 and mass  15.99491

 Molecular mass:   123.06841 amu.
 Principal axes and moments of inertia in atomic units:
                           1         2         3
     Eigenvalues --   750.72947 983.427261602.47839
           X            0.99574  -0.09211   0.00289
           Y            0.09211   0.99575   0.00200
           Z           -0.00306  -0.00173   0.99999
 This molecule is an asymmetric top.
 Rotational symmetry number  1.
 Warning -- assumption of classical behavior for rotation
           may cause significant error
 Rotational temperatures (Kelvin)      0.11537     0.08807     0.05405
 Rotational constants (GHZ):           2.40398     1.83515     1.12622
 Zero-point vibrational energy     393596.2 (Joules/Mol)
                                   94.07175 (Kcal/Mol)
 Warning -- explicit consideration of   9 degrees of freedom as
           vibrations may cause significant error
 Vibrational temperatures:    135.86   223.57   324.34   446.02   478.45
          (Kelvin)            544.99   587.66   744.82   776.31   898.18
                             1019.44  1046.95  1130.37  1182.87  1198.75
                             1280.07  1331.54  1381.71  1419.55  1474.03
                             1512.40  1538.66  1546.84  1590.15  1643.97
                             1656.69  1710.23  1794.49  1826.37  1852.55
                             1968.71  1989.21  2020.87  2078.91  2103.96
                             2144.24  2163.02  2376.88  2577.92  4291.42
                             4410.59  4421.26  4500.06  4509.55  4522.76
                             4554.35  4642.72  5103.26

 Zero-point correction=                           0.149913 (Hartree/Particle)
 Thermal correction to Energy=                    0.157535
 Thermal correction to Enthalpy=                  0.158480
 Thermal correction to Gibbs Free Energy=         0.117844
 Sum of electronic and zero-point Energies=           -401.923804
 Sum of electronic and thermal Energies=              -401.916182
 Sum of electronic and thermal Enthalpies=            -401.915238
 Sum of electronic and thermal Free Energies=         -401.955873

                     E (Thermal)             CV                S
                      KCal/Mol        Cal/Mol-Kelvin    Cal/Mol-Kelvin
 Total                   98.855             29.957             85.525
 Electronic               0.000              0.000              0.000
 Translational            0.889              2.981             40.337
 Rotational               0.889              2.981             28.561
 Vibrational             97.077             23.995             16.627
 Vibration     1          0.603              1.953              3.566
 Vibration     2          0.620              1.897              2.605
 Vibration     3          0.650              1.802              1.915
 Vibration     4          0.699              1.655              1.362
 Vibration     5          0.714              1.611              1.248
 Vibration     6          0.749              1.515              1.044
 Vibration     7          0.773              1.452              0.932
 Vibration     8          0.873              1.211              0.615
 Vibration     9          0.895              1.163              0.566

 Optimization completed.
    -- Stationary point found.
 Normal termination of Gaussian 16 at Sun Jul  3 09:59:16 2022.
