 Gaussian 16, Revision A.03,
 Gaussian 16:  ES64L-G16RevA.03 25-Dec-2016

 -----------------------------
 # opt freq b3lyp/6-31g(2df,p)
 -----------------------------

 -------------------
 Title Card Required
 -------------------
 Symbolic Z-matrix:
 Charge =  0 Multiplicity = 1

 SCF Done:  E(RB3LYP) =  -381.111774016     A.U. after   24 cycles
 SCF Done:  E(RB3LYP) =  -381.163263096     A.U. after   17 cycles
 SCF Done:  E(RB3LYP) =  -381.208564677     A.U. after   15 cycles
 SCF Done:  E(RB3LYP) =  -381.217276937     A.U. after   14 cycles
 SCF Done:  E(RB3LYP) =  -381.220675845     A.U. after   14 cycles
 SCF Done:  E(RB3LYP) =  -381.222346027     A.U. after   14 cycles
 SCF Done:  E(RB3LYP) =  -381.223237755     A.U. after   13 cycles
 SCF Done:  E(RB3LYP) =  -381.223685424     A.U. after   12 cycles
 SCF Done:  E(RB3LYP) =  -381.223899639     A.U. after   12 cycles
 SCF Done:  E(RB3LYP) =  -381.224027638     A.U. after   12 cycles
 SCF Done:  E(RB3LYP) =  -381.315510131     A.U. after   13 cycles
 SCF Done:  E(RB3LYP) =  -381.316155444     A.U. after   12 cycles
 SCF Done:  E(RB3LYP) =  -381.316361367     A.U. after   11 cycles
 SCF Done:  E(RB3LYP) =  -381.316421846     A.U. after   11 cycles
 SCF Done:  E(RB3LYP) =  -381.316454748     A.U. after    9 cycles
 SCF Done:  E(RB3LYP) =  -381.316479977     A.U. after   11 cycles
 SCF Done:  E(RB3LYP) =  -381.316487530     A.U. after    9 cycles
 SCF Done:  E(RB3LYP) =  -381.316491917     A.U. after    9 cycles
 SCF Done:  E(RB3LYP) =  -381.316492684     A.U. after    8 cycles
 Optimization completed.
    -- Stationary point found.
 Normal termination of Gaussian 16 at Thu Aug  4 02:42:26 2022.

 ----------------------------------------------------------------------
 #N Geom=AllCheck Guess=TCheck SCRF=Check GenChk RB3LYP/6-31G(2df,p) Fr
 eq
 ----------------------------------------------------------------------

 Structure from the checkpoint file:  "OdC1C2dC3CpOpC13C2.chk"
 -------------------
 Title Card Required
 -------------------
 Charge =  0 Multiplicity = 1

                         Standard orientation:
 ---------------------------------------------------------------------
 Center     Atomic      Atomic             Coordinates (Angstroms)
 Number     Number       Type             X           Y           Z
 ---------------------------------------------------------------------
      1          8           0       -2.192133   -1.444244    0.043115
      2          6           0       -1.438117   -0.540639    0.018281
      3          6           0       -0.447623    0.315439    0.803819
      4          6           0        0.580720    0.146045   -0.281427
      5          6           0        1.840353   -0.154079   -0.532044
      6          8           0        2.782842   -0.460818    0.389541
      7          6           0       -0.746958    0.521787   -0.838673
      8          6           0       -0.971466    1.628791    0.200636
      9          1           0        2.238386   -0.159824   -1.540128
     10          1           0        2.372057   -0.455763    1.264057
     11          1           0       -1.994202    1.921196    0.422907
     12          1           0       -0.243361    2.430819    0.168372
 ---------------------------------------------------------------------

 SCF Done:  E(RB3LYP) =  -381.316492684     A.U. after    1 cycles

 The electronic state is 1-A.
 Alpha  occ. eigenvalues --  -19.18991 -19.17898 -10.31361 -10.26646 -10.24514
 Alpha  occ. eigenvalues --  -10.24399 -10.23573 -10.22193  -1.09148  -1.07795
 Alpha  occ. eigenvalues --   -0.98717  -0.76140  -0.69417  -0.63523  -0.58067
 Alpha  occ. eigenvalues --   -0.57330  -0.49976  -0.48928  -0.47530  -0.42912
 Alpha  occ. eigenvalues --   -0.42026  -0.40689  -0.40390  -0.38529  -0.34872
 Alpha  occ. eigenvalues --   -0.29342  -0.26723  -0.24917
 Alpha virt. eigenvalues --   -0.03773  -0.02656   0.03752   0.06148   0.11592
 Alpha virt. eigenvalues --    0.12114   0.13842   0.14372   0.14796   0.17501
 Alpha virt. eigenvalues --    0.21782   0.22788   0.23692   0.29550   0.29725

 Mulliken charges:
               1
     1  O   -0.263274
     2  C    0.436799
     3  C   -0.227801
     4  C    0.277419
     5  C   -0.148043
     6  O   -0.372549
     7  C   -0.193032
     8  C   -0.251699
     9  H    0.147970
    10  H    0.311633
    11  H    0.138430
    12  H    0.144146
 Sum of Mulliken charges =  -0.00000

 Dipole moment (field-independent basis, Debye):
    X=              1.2175    Y=              1.9529    Z=              0.5283  Tot=              2.3612
 Quadrupole moment (field-independent basis, Debye-Ang):
   XX=            -48.7096   YY=            -44.7557   ZZ=            -43.8366
   XY=             -4.2765   XZ=             -0.2929   YZ=              0.4267

  Exact polarizability:  85.416  -2.747  55.848  -2.001  -0.288  54.111
 Approx polarizability: 136.377  -1.045  90.237   1.579  -4.341 112.808

                      1                      2                      3
                      A                      A                      A
 Frequencies --     86.9610               166.2235               225.3111
 Red. masses --      9.5394                 5.3163                 4.2882
 Frc consts  --      0.0425                 0.0865                 0.1283
 IR Inten    --      0.3804                 1.9592                 3.6771

                      4                      5                      6
                      A                      A                      A
 Frequencies --    297.5345               464.9895               517.3091
 Red. masses --      2.1957                 6.9210                 1.4133
 Frc consts  --      0.1145                 0.8817                 0.2228
 IR Inten    --      2.4071                21.5348                67.0712

                      7                      8                      9
                      A                      A                      A
 Frequencies --    558.9237               563.5739               603.4782
 Red. masses --      5.6454                 3.6786                 4.1981
 Frc consts  --      1.0391                 0.6884                 0.9008
 IR Inten    --     13.2103                 1.7633                26.3130

                     10                     11                     12
                      A                      A                      A
 Frequencies --    701.4249               735.1571               805.2412
 Red. masses --      5.8721                11.2807                 6.4181
 Frc consts  --      1.7022                 3.5921                 2.4519
 IR Inten    --     35.0158                31.4353                16.1281

                     13                     14                     15
                      A                      A                      A
 Frequencies --    822.9575               892.8538               924.0258
 Red. masses --      6.2985                 4.2218                 1.2922
 Frc consts  --      2.5133                 1.9830                 0.6501
 IR Inten    --     22.6016                 1.5478                19.0659

                     16                     17                     18
                      A                      A                      A
 Frequencies --    986.5552              1089.0571              1095.2562
 Red. masses --      8.8112                 1.3124                 2.2205
 Frc consts  --      5.0527                 0.9171                 1.5694
 IR Inten    --     20.0828                 1.3455                 4.9404

                     19                     20                     21
                      A                      A                      A
 Frequencies --   1098.9955              1114.9168              1190.6164
 Red. masses --      1.3571                 3.3081                 2.3829
 Frc consts  --      0.9657                 2.4228                 1.9902
 IR Inten    --     10.1581                22.4011               236.4336

                     22                     23                     24
                      A                      A                      A
 Frequencies --   1313.0331              1412.9058              1480.8129
 Red. masses --      1.7895                 1.2566                 1.1358
 Frc consts  --      1.8178                 1.4780                 1.4674
 IR Inten    --      5.9293                56.3615                 3.1581

                     25                     26                     27
                      A                      A                      A
 Frequencies --   1853.4225              1986.8845              3133.0833
 Red. masses --      9.5284                13.0617                 1.0555
 Frc consts  --     19.2850                30.3806                 6.1043
 IR Inten    --    129.0663               446.8750                13.9282

                     28                     29                     30
                      A                      A                      A
 Frequencies --   3206.6284              3237.2719              3780.6611
 Red. masses --      1.0916                 1.1163                 1.0652
 Frc consts  --      6.6134                 6.8930                 8.9701
 IR Inten    --      2.6881                 1.4411                33.7127

 - Thermochemistry -
 -------------------
 Temperature   298.150 Kelvin.  Pressure   1.00000 Atm.
 Atom     1 has atomic number  8 and mass  15.99491

 Molecular mass:   108.02113 amu.
 Principal axes and moments of inertia in atomic units:
                           1         2         3
     Eigenvalues --   408.622741189.982051400.95788
           X            0.99965  -0.02608  -0.00504
           Y            0.02616   0.99954   0.01559
           Z            0.00463  -0.01572   0.99987
 This molecule is an asymmetric top.
 Rotational symmetry number  1.
 Rotational temperatures (Kelvin)      0.21197     0.07279     0.06182
 Rotational constants (GHZ):           4.41664     1.51661     1.28822
 Zero-point vibrational energy     217397.8 (Joules/Mol)
                                   51.95931 (Kcal/Mol)
 Warning -- explicit consideration of   9 degrees of freedom as
           vibrations may cause significant error
 Vibrational temperatures:    125.12   239.16   324.17   428.09   669.02
          (Kelvin)            744.29   804.17   810.86   868.27  1009.19
                             1057.73  1158.56  1184.05  1284.62  1329.47
                             1419.43  1566.91  1575.83  1581.21  1604.12
                             1713.03  1889.16  2032.86  2130.56  2666.66
                             2858.68  4507.81  4613.62  4657.71  5439.53

 Zero-point correction=                           0.082802 (Hartree/Particle)
 Thermal correction to Energy=                    0.089588
 Thermal correction to Enthalpy=                  0.090532
 Thermal correction to Gibbs Free Energy=         0.051547
 Sum of electronic and zero-point Energies=           -381.233690
 Sum of electronic and thermal Energies=              -381.226905
 Sum of electronic and thermal Enthalpies=            -381.225960
 Sum of electronic and thermal Free Energies=         -381.264946

                     E (Thermal)             CV                S
                      KCal/Mol        Cal/Mol-Kelvin    Cal/Mol-Kelvin
 Total                   56.217             24.984             82.052
 Electronic               0.000              0.000              0.000
 Translational            0.889              2.981             39.948
 Rotational               0.889              2.981             28.012
 Vibrational             54.440             19.023             14.092
 Vibration     1          0.601              1.958              3.727
 Vibration     2          0.624              1.884              2.478
 Vibration     3          0.650              1.802              1.916
 Vibration     4          0.691              1.678              1.431
 Vibration     5          0.822              1.328              0.752
 Vibration     6          0.872              1.212              0.616
 Vibration     7          0.915              1.120              0.526
 Vibration     8          0.919              1.110              0.517
 Vibration     9          0.962              1.024              0.444

                           ! Non-Optimized Parameters !
 Normal termination of Gaussian 16 at Thu Aug  4 03:02:06 2022.
