 Gaussian 16, Revision A.03,
 Gaussian 16:  ES64L-G16RevA.03 25-Dec-2016

 -----------------------------
 # opt freq b3lyp/6-31g(2df,p)
 -----------------------------

 -------------------
 Title Card Required
 -------------------
 Symbolic Z-matrix:
 Charge =  0 Multiplicity = 1

 SCF Done:  E(RB3LYP) =  -411.886230339     A.U. after   16 cycles
 SCF Done:  E(RB3LYP) =  -411.944936799     A.U. after   14 cycles
 SCF Done:  E(RB3LYP) =  -412.009187839     A.U. after   14 cycles
 SCF Done:  E(RB3LYP) =  -412.042347870     A.U. after   13 cycles
 SCF Done:  E(RB3LYP) =  -412.061288042     A.U. after   13 cycles
 SCF Done:  E(RB3LYP) =  -412.067260660     A.U. after   12 cycles
 SCF Done:  E(RB3LYP) =  -412.069005035     A.U. after   12 cycles
 SCF Done:  E(RB3LYP) =  -412.069523919     A.U. after   11 cycles
 SCF Done:  E(RB3LYP) =  -412.069782645     A.U. after   10 cycles
 SCF Done:  E(RB3LYP) =  -412.069862314     A.U. after   10 cycles
 SCF Done:  E(RB3LYP) =  -412.069877701     A.U. after    9 cycles
 SCF Done:  E(RB3LYP) =  -412.069884016     A.U. after    8 cycles
 SCF Done:  E(RB3LYP) =  -412.069886768     A.U. after    8 cycles
 SCF Done:  E(RB3LYP) =  -412.069887893     A.U. after    8 cycles
 Optimization completed.
    -- Stationary point found.
 Normal termination of Gaussian 16 at Sun Jul  3 12:53:21 2022.

 ----------------------------------------------------------------------
 #N Geom=AllCheck Guess=TCheck SCRF=Check GenChk RB3LYP/6-31G(2df,p) Fr
 eq
 ----------------------------------------------------------------------

 Structure from the checkpoint file:  "OdC1NCN2NC2N1.chk"
 -------------------
 Title Card Required
 -------------------
 Charge =  0 Multiplicity = 1

                         Standard orientation:
 ---------------------------------------------------------------------
 Center     Atomic      Atomic             Coordinates (Angstroms)
 Number     Number       Type             X           Y           Z
 ---------------------------------------------------------------------
      1          8           0        2.499479   -0.346906   -0.145534
      2          6           0        1.306337   -0.170896   -0.046056
      3          7           0        0.772750    1.115116    0.142071
      4          6           0       -0.653181    1.525427    0.082010
      5          7           0       -1.187474    0.309079   -0.498996
      6          7           0       -2.248740   -0.627686   -0.026328
      7          6           0       -0.856047   -0.726439    0.415835
      8          7           0        0.381842   -1.264132   -0.051117
      9          1           0        1.477095    1.823891    0.007961
     10          1           0       -0.775335    2.377219   -0.595592
     11          1           0       -1.041860    1.790613    1.076977
     12          1           0       -2.403003   -1.165108   -0.882655
     13          1           0       -0.848505   -0.472396    1.481314
     14          1           0        0.784472   -2.074158    0.406126
 ---------------------------------------------------------------------

 SCF Done:  E(RB3LYP) =  -412.069887893     A.U. after    1 cycles

 The electronic state is 1-A.
 Alpha  occ. eigenvalues --  -19.10277 -14.38546 -14.36607 -14.35885 -14.35712
 Alpha  occ. eigenvalues --  -10.31115 -10.28071 -10.27123  -1.07227  -1.03887
 Alpha  occ. eigenvalues --   -0.93093  -0.90890  -0.79102  -0.67978  -0.64360
 Alpha  occ. eigenvalues --   -0.58537  -0.55864  -0.52728  -0.50769  -0.47866
 Alpha  occ. eigenvalues --   -0.46278  -0.42408  -0.41713  -0.38485  -0.36444
 Alpha  occ. eigenvalues --   -0.32542  -0.27701  -0.26233  -0.25878  -0.24629
 Alpha virt. eigenvalues --    0.03770   0.04379   0.07828   0.08720   0.10109
 Alpha virt. eigenvalues --    0.10541   0.12279   0.12902   0.15735   0.17465
 Alpha virt. eigenvalues --    0.22161   0.23838   0.26709   0.28294   0.31897

 Mulliken charges:
               1
     1  O   -0.392378
     2  C    0.438606
     3  N   -0.339855
     4  C   -0.110731
     5  N   -0.090908
     6  N   -0.338891
     7  C    0.054132
     8  N   -0.346976
     9  H    0.257293
    10  H    0.123591
    11  H    0.119233
    12  H    0.265689
    13  H    0.112613
    14  H    0.248580
 Sum of Mulliken charges =   0.00000

 Dipole moment (field-independent basis, Debye):
    X=             -2.0955    Y=              0.9037    Z=              0.9949  Tot=              2.4895
 Quadrupole moment (field-independent basis, Debye-Ang):
   XX=            -56.9637   YY=            -36.7133   ZZ=            -45.7753
   XY=              2.9689   XZ=              2.6350   YZ=             -1.1099

  Exact polarizability:  72.606  -0.101  64.303   0.237  -0.295  42.632
 Approx polarizability: 112.581  -0.858  97.731  -0.094  -1.749  68.518

                      1                      2                      3
                      A                      A                      A
 Frequencies --    144.3052               237.7006               361.3977
 Red. masses --      7.6114                 3.4266                 3.9864
 Frc consts  --      0.0934                 0.1141                 0.3068
 IR Inten    --      0.9752                 1.4264                 4.3263

                      4                      5                      6
                      A                      A                      A
 Frequencies --    386.7187               446.8634               491.8042
 Red. masses --      3.1773                 4.7735                 2.0940
 Frc consts  --      0.2800                 0.5616                 0.2984
 IR Inten    --      5.3888                27.3479                51.4447

                      7                      8                      9
                      A                      A                      A
 Frequencies --    514.6772               591.3281               621.2091
 Red. masses --      2.1441                 1.8312                 4.9582
 Frc consts  --      0.3346                 0.3773                 1.1273
 IR Inten    --     23.5319               104.4725                 5.0590

                     10                     11                     12
                      A                      A                      A
 Frequencies --    688.0400               756.2244               808.0824
 Red. masses --      3.5609                 6.6119                 4.3543
 Frc consts  --      0.9932                 2.2278                 1.6752
 IR Inten    --     25.2485                47.7773                16.3212

                     13                     14                     15
                      A                      A                      A
 Frequencies --    886.8643               939.1480               959.4831
 Red. masses --      6.4840                 3.3612                 3.0247
 Frc consts  --      3.0047                 1.7467                 1.6406
 IR Inten    --     18.4567                32.1158                35.6128

                     16                     17                     18
                      A                      A                      A
 Frequencies --   1032.2620              1090.8536              1113.2395
 Red. masses --      2.3987                 1.6942                 2.6132
 Frc consts  --      1.5059                 1.1878                 1.9081
 IR Inten    --     59.9316                 7.9428                12.9401

                     19                     20                     21
                      A                      A                      A
 Frequencies --   1165.7066              1199.9130              1214.6205
 Red. masses --      1.2161                 1.2219                 3.3970
 Frc consts  --      0.9736                 1.0365                 2.9528
 IR Inten    --      6.8800                50.5115               110.7349

                     22                     23                     24
                      A                      A                      A
 Frequencies --   1232.2176              1274.9146              1362.5690
 Red. masses --      1.5712                 1.7916                 1.5600
 Frc consts  --      1.4056                 1.7157                 1.7064
 IR Inten    --      6.3410                68.0373                67.3099

                     25                     26                     27
                      A                      A                      A
 Frequencies --   1388.5738              1396.1559              1445.3260
 Red. masses --      1.5113                 1.6317                 1.5528
 Frc consts  --      1.7169                 1.8740                 1.9111
 IR Inten    --     11.3794                 3.3535                49.7613

                     28                     29                     30
                      A                      A                      A
 Frequencies --   1470.3395              1536.3319              1815.3573
 Red. masses --      1.3452                 1.0902                 8.8836
 Frc consts  --      1.7134                 1.5161                17.2490
 IR Inten    --     66.6874                 0.5860               445.3117

                     31                     32                     33
                      A                      A                      A
 Frequencies --   2981.0542              3038.5999              3064.4446
 Red. masses --      1.0651                 1.0830                 1.0989
 Frc consts  --      5.5769                 5.8916                 6.0803
 IR Inten    --     71.2610                37.4163                42.5532

                     34                     35                     36
                      A                      A                      A
 Frequencies --   3440.4521              3561.3226              3639.2450
 Red. masses --      1.0762                 1.0755                 1.0767
 Frc consts  --      7.5056                 8.0367                 8.4013
 IR Inten    --      3.2263                14.6708                38.3673

 - Thermochemistry -
 -------------------
 Temperature   298.150 Kelvin.  Pressure   1.00000 Atm.
 Atom     1 has atomic number  8 and mass  15.99491

 Molecular mass:   114.05416 amu.
 Principal axes and moments of inertia in atomic units:
                           1         2         3
     Eigenvalues --   401.18094 918.774651241.35865
           X            0.99999   0.00338   0.00208
           Y           -0.00339   0.99999   0.00048
           Z           -0.00208  -0.00049   1.00000
 This molecule is an asymmetric top.
 Rotational symmetry number  1.
 Rotational temperatures (Kelvin)      0.21590     0.09427     0.06977
 Rotational constants (GHZ):           4.49857     1.96429     1.45384
 Zero-point vibrational energy     288882.3 (Joules/Mol)
                                   69.04452 (Kcal/Mol)
 Warning -- explicit consideration of   8 degrees of freedom as
           vibrations may cause significant error
 Vibrational temperatures:    207.62   342.00   519.97   556.40   642.94
          (Kelvin)            707.60   740.51   850.79   893.78   989.94
                             1088.04  1162.65  1276.00  1351.22  1380.48
                             1485.19  1569.50  1601.70  1677.19  1726.41
                             1747.57  1772.89  1834.32  1960.43  1997.85
                             2008.76  2079.50  2115.49  2210.44  2611.89
                             4289.07  4371.87  4409.05  4950.04  5123.95
                             5236.06

 Zero-point correction=                           0.110029 (Hartree/Particle)
 Thermal correction to Energy=                    0.116348
 Thermal correction to Enthalpy=                  0.117293
 Thermal correction to Gibbs Free Energy=         0.079733
 Sum of electronic and zero-point Energies=           -411.959858
 Sum of electronic and thermal Energies=              -411.953539
 Sum of electronic and thermal Enthalpies=            -411.952595
 Sum of electronic and thermal Free Energies=         -411.990155

                     E (Thermal)             CV                S
                      KCal/Mol        Cal/Mol-Kelvin    Cal/Mol-Kelvin
 Total                   73.010             24.676             79.052
 Electronic               0.000              0.000              0.000
 Translational            0.889              2.981             40.110
 Rotational               0.889              2.981             27.617
 Vibrational             71.232             18.715             11.325
 Vibration     1          0.616              1.909              2.746
 Vibration     2          0.656              1.783              1.820
 Vibration     3          0.736              1.552              1.116
 Vibration     4          0.755              1.499              1.013
 Vibration     5          0.806              1.368              0.805
 Vibration     6          0.848              1.268              0.679
 Vibration     7          0.870              1.217              0.622
 Vibration     8          0.949              1.050              0.465

                           ! Non-Optimized Parameters !
 Normal termination of Gaussian 16 at Sun Jul  3 13:10:27 2022.
