 Gaussian 16, Revision A.03,
 Gaussian 16:  ES64L-G16RevA.03 25-Dec-2016

 -----------------------------
 # opt freq b3lyp/6-31g(2df,p)
 -----------------------------

 -------------------
 Title Card Required
 -------------------
 Symbolic Z-matrix:
 Charge =  0 Multiplicity = 1

 SCF Done:  E(RB3LYP) =  -398.681952982     A.U. after   15 cycles
 SCF Done:  E(RB3LYP) =  -398.695936529     A.U. after   13 cycles
 SCF Done:  E(RB3LYP) =  -398.700467610     A.U. after   14 cycles
 SCF Done:  E(RB3LYP) =  -398.702072442     A.U. after   14 cycles
 SCF Done:  E(RB3LYP) =  -398.702791332     A.U. after   14 cycles
 SCF Done:  E(RB3LYP) =  -398.703417336     A.U. after   12 cycles
 SCF Done:  E(RB3LYP) =  -398.703768107     A.U. after   12 cycles
 SCF Done:  E(RB3LYP) =  -398.703997041     A.U. after   13 cycles
 SCF Done:  E(RB3LYP) =  -398.704048347     A.U. after   11 cycles
 SCF Done:  E(RB3LYP) =  -398.704072955     A.U. after   12 cycles
 SCF Done:  E(RB3LYP) =  -398.704073520     A.U. after    8 cycles
 SCF Done:  E(RB3LYP) =  -398.704073681     A.U. after    8 cycles
 Optimization completed.
    -- Stationary point found.
 Normal termination of Gaussian 16 at Thu Aug  4 03:58:51 2022.

 ----------------------------------------------------------------------
 #N Geom=AllCheck Guess=TCheck SCRF=Check GenChk RB3LYP/6-31G(2df,p) Fr
 eq
 ----------------------------------------------------------------------

 Structure from the checkpoint file:  "OdC1CC2CN2C1dO.chk"
 -------------------
 Title Card Required
 -------------------
 Charge =  0 Multiplicity = 1

                         Standard orientation:
 ---------------------------------------------------------------------
 Center     Atomic      Atomic             Coordinates (Angstroms)
 Number     Number       Type             X           Y           Z
 ---------------------------------------------------------------------
      1          8           0       -2.179069   -0.724286    0.210772
      2          6           0       -1.013345   -0.530573    0.019047
      3          6           0        0.117899   -1.553581   -0.054365
      4          6           0        1.354523   -0.719197   -0.345223
      5          6           0        1.839406    0.252556    0.660741
      6          7           0        1.005194    0.721165   -0.475915
      7          6           0       -0.368806    0.880991   -0.161485
      8          8           0       -0.945261    1.922097   -0.033683
      9          1           0       -0.091919   -2.266417   -0.857699
     10          1           0        0.175813   -2.125500    0.877076
     11          1           0        2.047956   -1.075789   -1.099961
     12          1           0        2.864515    0.607089    0.634167
     13          1           0        1.383852    0.248801    1.648815
 ---------------------------------------------------------------------

 SCF Done:  E(RB3LYP) =  -398.704073681     A.U. after    1 cycles

 The electronic state is 1-A.
 Alpha  occ. eigenvalues --  -19.16412 -19.14967 -14.36552 -10.30016 -10.29384
 Alpha  occ. eigenvalues --  -10.25278 -10.25158 -10.22257  -1.08226  -1.05952
 Alpha  occ. eigenvalues --   -1.00140  -0.79082  -0.74597  -0.64341  -0.61049
 Alpha  occ. eigenvalues --   -0.55194  -0.52678  -0.48726  -0.47142  -0.45585
 Alpha  occ. eigenvalues --   -0.44657  -0.43422  -0.40290  -0.39218  -0.37250
 Alpha  occ. eigenvalues --   -0.35151  -0.31640  -0.28548  -0.24380
 Alpha virt. eigenvalues --   -0.08860   0.03157   0.07884   0.08992   0.10392
 Alpha virt. eigenvalues --    0.11837   0.12623   0.14238   0.16484   0.19981
 Alpha virt. eigenvalues --    0.21664   0.23520   0.27297   0.27808   0.33288

 Mulliken charges:
               1
     1  O   -0.264529
     2  C    0.326264
     3  C   -0.372334
     4  C   -0.030834
     5  C   -0.248394
     6  N   -0.124662
     7  C    0.278297
     8  O   -0.276065
     9  H    0.155402
    10  H    0.153196
    11  H    0.118444
    12  H    0.146419
    13  H    0.138797
 Sum of Mulliken charges =  -0.00000

 Dipole moment (field-independent basis, Debye):
    X=              3.8087    Y=             -3.2589    Z=              0.5211  Tot=              5.0397
 Quadrupole moment (field-independent basis, Debye-Ang):
   XX=            -48.8714   YY=            -48.5854   ZZ=            -42.1917
   XY=             -0.1728   XZ=              2.3237   YZ=              2.0667

  Exact polarizability:  69.544  -2.519  61.360   0.190   2.228  44.222
 Approx polarizability: 107.827  -8.722  96.195  -2.126   2.524  70.519

                      1                      2                      3
                      A                      A                      A
 Frequencies --     61.5612               207.7662               323.0476
 Red. masses --      3.8943                 4.0134                12.1586
 Frc consts  --      0.0087                 0.1021                 0.7476
 IR Inten    --      1.5714                 2.9028                 3.3647

                      4                      5                      6
                      A                      A                      A
 Frequencies --    350.2271               385.4592               526.6888
 Red. masses --      2.1089                 4.7078                 4.9427
 Frc consts  --      0.1524                 0.4121                 0.8078
 IR Inten    --      1.0309                10.9225                 2.6539

                      7                      8                      9
                      A                      A                      A
 Frequencies --    589.2004               650.8768               694.7886
 Red. masses --      9.0176                 3.6896                 5.2867
 Frc consts  --      1.8445                 0.9209                 1.5036
 IR Inten    --      1.3544                 4.8639                 5.0425

                     10                     11                     12
                      A                      A                      A
 Frequencies --    707.8814               799.0182               849.4559
 Red. masses --      3.5984                 3.9475                 4.4016
 Frc consts  --      1.0624                 1.4849                 1.8713
 IR Inten    --      4.5926                13.4003                14.0222

                     13                     14                     15
                      A                      A                      A
 Frequencies --    905.9983               953.6097              1017.3106
 Red. masses --      1.7086                 2.9492                 2.9996
 Frc consts  --      0.8263                 1.5801                 1.8291
 IR Inten    --      1.4470                21.1247                41.5133

                     16                     17                     18
                      A                      A                      A
 Frequencies --   1049.8212              1074.2740              1119.8611
 Red. masses --      2.1574                 1.2708                 1.3056
 Frc consts  --      1.4009                 0.8641                 0.9647
 IR Inten    --      8.0744                 1.2146                 1.3830

                     19                     20                     21
                      A                      A                      A
 Frequencies --   1148.6669              1174.3070              1183.4606
 Red. masses --      1.6291                 1.3690                 2.4994
 Frc consts  --      1.2664                 1.1123                 2.0625
 IR Inten    --     14.2825                 3.6377               122.6853

                     22                     23                     24
                      A                      A                      A
 Frequencies --   1270.5789              1294.8108              1392.3041
 Red. masses --      1.7329                 2.2725                 1.9689
 Frc consts  --      1.6483                 2.2447                 2.2488
 IR Inten    --      1.1791                92.3022                 9.0482

                     25                     26                     27
                      A                      A                      A
 Frequencies --   1442.0709              1510.1824              1856.2149
 Red. masses --      1.0833                 1.1853                13.0377
 Frc consts  --      1.3273                 1.5928                26.4673
 IR Inten    --     11.3093                 4.4992               303.6090

                     28                     29                     30
                      A                      A                      A
 Frequencies --   1864.4673              3059.5350              3100.2222
 Red. masses --     13.0325                 1.0604                 1.1023
 Frc consts  --     26.6924                 5.8483                 6.2420
 IR Inten    --     83.5722                 5.5868                 1.1636

                     31                     32                     33
                      A                      A                      A
 Frequencies --   3110.7869              3162.2396              3205.9143
 Red. masses --      1.0542                 1.0913                 1.1175
 Frc consts  --      6.0108                 6.4296                 6.7669
 IR Inten    --     13.3273                10.1043                 7.8587

 - Thermochemistry -
 -------------------
 Temperature   298.150 Kelvin.  Pressure   1.00000 Atm.
 Atom     1 has atomic number  8 and mass  15.99491

 Molecular mass:   111.03203 amu.
 Principal axes and moments of inertia in atomic units:
                           1         2         3
     Eigenvalues --   540.28525 757.062911177.84842
           X            0.99988  -0.00959   0.01188
           Y            0.00939   0.99981   0.01686
           Z           -0.01204  -0.01674   0.99979
 This molecule is an asymmetric top.
 Rotational symmetry number  1.
 Warning -- assumption of classical behavior for rotation
           may cause significant error
 Rotational temperatures (Kelvin)      0.16031     0.11441     0.07354
 Rotational constants (GHZ):           3.34035     2.38387     1.53224
 Zero-point vibrational energy     251470.6 (Joules/Mol)
                                   60.10293 (Kcal/Mol)
 Warning -- explicit consideration of   7 degrees of freedom as
           vibrations may cause significant error
 Vibrational temperatures:     88.57   298.93   464.79   503.90   554.59
          (Kelvin)            757.79   847.73   936.47   999.65  1018.48
                             1149.61  1222.18  1303.53  1372.03  1463.68
                             1510.46  1545.64  1611.23  1652.68  1689.57
                             1702.74  1828.08  1862.94  2003.21  2074.82
                             2172.82  2670.68  2682.55  4401.99  4460.53
                             4475.73  4549.76  4612.60

 Zero-point correction=                           0.095780 (Hartree/Particle)
 Thermal correction to Energy=                    0.102237
 Thermal correction to Enthalpy=                  0.103181
 Thermal correction to Gibbs Free Energy=         0.064764
 Sum of electronic and zero-point Energies=           -398.608294
 Sum of electronic and thermal Energies=              -398.601837
 Sum of electronic and thermal Enthalpies=            -398.600893
 Sum of electronic and thermal Free Energies=         -398.639310

                     E (Thermal)             CV                S
                      KCal/Mol        Cal/Mol-Kelvin    Cal/Mol-Kelvin
 Total                   64.154             23.998             80.856
 Electronic               0.000              0.000              0.000
 Translational            0.889              2.981             40.030
 Rotational               0.889              2.981             27.668
 Vibrational             62.377             18.037             13.158
 Vibration     1          0.597              1.973              4.407
 Vibration     2          0.641              1.829              2.063
 Vibration     3          0.708              1.629              1.295
 Vibration     4          0.727              1.575              1.165
 Vibration     5          0.754              1.501              1.018
 Vibration     6          0.882              1.191              0.595
 Vibration     7          0.946              1.055              0.469

 Optimization completed.
    -- Stationary point found.
 Normal termination of Gaussian 16 at Thu Aug  4 04:15:05 2022.
