 Gaussian 16, Revision A.03,
 Gaussian 16:  ES64L-G16RevA.03 25-Dec-2016

 -----------------------------
 # opt freq b3lyp/6-31g(2df,p)
 -----------------------------

 -------------------
 Title Card Required
 -------------------
 Symbolic Z-matrix:
 Charge =  0 Multiplicity = 1

 SCF Done:  E(RB3LYP) =  -458.671972193     A.U. after   16 cycles
 SCF Done:  E(RB3LYP) =  -458.680562683     A.U. after   12 cycles
 SCF Done:  E(RB3LYP) =  -458.682275186     A.U. after   13 cycles
 SCF Done:  E(RB3LYP) =  -458.682326105     A.U. after   12 cycles
 SCF Done:  E(RB3LYP) =  -458.682986387     A.U. after   11 cycles
 SCF Done:  E(RB3LYP) =  -458.683072974     A.U. after   10 cycles
 SCF Done:  E(RB3LYP) =  -458.683084378     A.U. after   10 cycles
 SCF Done:  E(RB3LYP) =  -458.683088113     A.U. after    8 cycles
 SCF Done:  E(RB3LYP) =  -458.683088653     A.U. after    8 cycles
 Optimization completed.
    -- Stationary point found.
 Normal termination of Gaussian 16 at Thu Aug  4 07:33:18 2022.

 ----------------------------------------------------------------------
 #N Geom=AllCheck Guess=TCheck SCRF=Check GenChk RB3LYP/6-31G(2df,p) Fr
 eq
 ----------------------------------------------------------------------

 Structure from the checkpoint file:  "Odc1ccpFpnco1.chk"
 -------------------
 Title Card Required
 -------------------
 Charge =  0 Multiplicity = 1

                         Standard orientation:
 ---------------------------------------------------------------------
 Center     Atomic      Atomic             Coordinates (Angstroms)
 Number     Number       Type             X           Y           Z
 ---------------------------------------------------------------------
      1          8           0        2.348616   -0.942281    0.000672
      2          6           0        1.261188   -0.452187   -0.000056
      3          6           0       -0.037080   -1.069063   -0.000719
      4          6           0       -1.139729   -0.282173   -0.000272
      5          9           0       -2.341392   -0.818922    0.000306
      6          7           0       -1.140979    1.078265    0.000364
      7          6           0        0.027489    1.617008    0.000033
      8          8           0        1.194370    0.991201   -0.000527
      9          1           0       -0.094289   -2.148058   -0.000867
     10          1           0        0.138573    2.697628    0.000495
 ---------------------------------------------------------------------

 SCF Done:  E(RB3LYP) =  -458.683088653     A.U. after    1 cycles

 The electronic state is 1-A.
 Alpha  occ. eigenvalues --  -24.74101 -19.23679 -19.14363 -14.36694 -10.34037
 Alpha  occ. eigenvalues --  -10.33358 -10.32943 -10.22154  -1.27064  -1.14724
 Alpha  occ. eigenvalues --   -1.05882  -0.97178  -0.82249  -0.71569  -0.68595
 Alpha  occ. eigenvalues --   -0.59990  -0.57028  -0.52378  -0.52073  -0.50780
 Alpha  occ. eigenvalues --   -0.48531  -0.45827  -0.42941  -0.40464  -0.40315
 Alpha  occ. eigenvalues --   -0.35726  -0.32726  -0.29976  -0.27291
 Alpha virt. eigenvalues --   -0.07465  -0.01904   0.10007   0.10336   0.10459
 Alpha virt. eigenvalues --    0.13374   0.16763   0.19284   0.24940   0.25525
 Alpha virt. eigenvalues --    0.30607   0.35255   0.37519   0.38677   0.42232

 Mulliken charges:
               1
     1  O   -0.318878
     2  C    0.454205
     3  C   -0.416489
     4  C    0.366571
     5  F   -0.039947
     6  N   -0.320009
     7  C    0.160288
     8  O   -0.201184
     9  H    0.149154
    10  H    0.166290
 Sum of Mulliken charges =  -0.00000

 Dipole moment (field-independent basis, Debye):
    X=             -1.2968    Y=              1.1130    Z=             -0.0016  Tot=              1.7090
 Quadrupole moment (field-independent basis, Debye-Ang):
   XX=            -54.6574   YY=            -37.8988   ZZ=            -41.6552
   XY=              4.1956   XZ=             -0.0004   YZ=              0.0024

  Exact polarizability:  66.954  -4.877  61.707   0.002   0.005  26.395
 Approx polarizability: 126.603 -13.284  99.627   0.003   0.005  41.959

                      1                      2                      3
                      A                      A                      A
 Frequencies --    154.7489               192.9949               384.6543
 Red. masses --      9.3661                10.7052                14.0360
 Frc consts  --      0.1321                 0.2349                 1.2236
 IR Inten    --      4.9275                 1.1862                 3.9524

                      4                      5                      6
                      A                      A                      A
 Frequencies --    439.4805               465.8591               556.5256
 Red. masses --      2.5738                 9.4189                 9.5110
 Frc consts  --      0.2929                 1.2044                 1.7356
 IR Inten    --      8.6022                 0.7307                 1.0798

                      7                      8                      9
                      A                      A                      A
 Frequencies --    579.1110               702.9332               726.8536
 Red. masses --     11.1739                 7.6789                 9.7723
 Frc consts  --      2.2079                 2.2355                 3.0419
 IR Inten    --      0.7952                44.7398                 0.0813

                     10                     11                     12
                      A                      A                      A
 Frequencies --    759.9906               857.9633               875.9693
 Red. masses --      3.5352                 1.6532                 6.2906
 Frc consts  --      1.2030                 0.7170                 2.8439
 IR Inten    --      9.2244                43.8743                29.1563

                     13                     14                     15
                      A                      A                      A
 Frequencies --    970.6010               984.6097              1101.7000
 Red. masses --      8.0696                 1.4828                 2.3747
 Frc consts  --      4.4790                 0.8470                 1.6982
 IR Inten    --      9.5792                 1.3115                52.2799

                     16                     17                     18
                      A                      A                      A
 Frequencies --   1244.3194              1265.7671              1369.4029
 Red. masses --      3.0294                 4.9744                 1.7115
 Frc consts  --      2.7636                 4.6957                 1.8910
 IR Inten    --    131.0337                 3.8415                43.2380

                     19                     20                     21
                      A                      A                      A
 Frequencies --   1447.6308              1607.5698              1672.7288
 Red. masses --      2.4474                 8.6187                 8.9894
 Frc consts  --      3.0218                13.1230                14.8195
 IR Inten    --    143.1503               131.2515               332.8199

                     22                     23                     24
                      A                      A                      A
 Frequencies --   1891.7018              3191.7638              3242.0850
 Red. masses --     12.5870                 1.0936                 1.0931
 Frc consts  --     26.5386                 6.5641                 6.7697
 IR Inten    --    518.4928                 4.2058                 2.0403

 - Thermochemistry -
 -------------------
 Temperature   298.150 Kelvin.  Pressure   1.00000 Atm.
 Atom     1 has atomic number  8 and mass  15.99491

 Molecular mass:   115.00696 amu.
 Principal axes and moments of inertia in atomic units:
                           1         2         3
     Eigenvalues --   426.36840 957.460781383.82901
           X            0.99996  -0.00885   0.00000
           Y            0.00885   0.99996   0.00003
           Z           -0.00000  -0.00003   1.00000
 This molecule is an asymmetric top.
 Rotational symmetry number  1.
 Rotational temperatures (Kelvin)      0.20314     0.09046     0.06259
 Rotational constants (GHZ):           4.23282     1.88492     1.30416
 Zero-point vibrational energy     159623.5 (Joules/Mol)
                                   38.15093 (Kcal/Mol)
 Warning -- explicit consideration of   7 degrees of freedom as
           vibrations may cause significant error
 Vibrational temperatures:    222.65   277.68   553.43   632.31   670.27
          (Kelvin)            800.72   833.21  1011.36  1045.78  1093.46
                             1234.42  1260.32  1396.48  1416.63  1585.10
                             1790.30  1821.16  1970.27  2082.82  2312.93
                             2406.68  2721.74  4592.24  4664.64

 Zero-point correction=                           0.060797 (Hartree/Particle)
 Thermal correction to Energy=                    0.066622
 Thermal correction to Enthalpy=                  0.067566
 Thermal correction to Gibbs Free Energy=         0.030548
 Sum of electronic and zero-point Energies=           -458.622291
 Sum of electronic and thermal Energies=              -458.616466
 Sum of electronic and thermal Enthalpies=            -458.615522
 Sum of electronic and thermal Free Energies=         -458.652541

                     E (Thermal)             CV                S
                      KCal/Mol        Cal/Mol-Kelvin    Cal/Mol-Kelvin
 Total                   41.806             21.282             77.911
 Electronic               0.000              0.000              0.000
 Translational            0.889              2.981             40.135
 Rotational               0.889              2.981             27.826
 Vibrational             40.029             15.320              9.950
 Vibration     1          0.620              1.897              2.613
 Vibration     2          0.635              1.850              2.199
 Vibration     3          0.754              1.503              1.021
 Vibration     4          0.800              1.384              0.828
 Vibration     5          0.823              1.326              0.749
 Vibration     6          0.912              1.125              0.531
 Vibration     7          0.936              1.076              0.487

 Optimization completed.
    -- Stationary point found.
 Normal termination of Gaussian 16 at Thu Aug  4 07:45:18 2022.
