 Gaussian 16, Revision A.03,
 Gaussian 16:  ES64L-G16RevA.03 25-Dec-2016

 -----------------------------
 # opt freq b3lyp/6-31g(2df,p)
 -----------------------------

 -------------------
 Title Card Required
 -------------------
 Symbolic Z-matrix:
 Charge =  0 Multiplicity = 1

 SCF Done:  E(RB3LYP) =  -455.309258640     A.U. after   14 cycles
 SCF Done:  E(RB3LYP) =  -455.318252561     A.U. after   12 cycles
 SCF Done:  E(RB3LYP) =  -455.320165835     A.U. after   12 cycles
 SCF Done:  E(RB3LYP) =  -455.321416129     A.U. after   12 cycles
 SCF Done:  E(RB3LYP) =  -455.322429103     A.U. after   12 cycles
 SCF Done:  E(RB3LYP) =  -455.322950886     A.U. after   12 cycles
 SCF Done:  E(RB3LYP) =  -455.323367483     A.U. after   12 cycles
 SCF Done:  E(RB3LYP) =  -455.323385763     A.U. after   12 cycles
 SCF Done:  E(RB3LYP) =  -455.323624993     A.U. after   10 cycles
 SCF Done:  E(RB3LYP) =  -455.324305708     A.U. after   11 cycles
 SCF Done:  E(RB3LYP) =  -455.324465728     A.U. after   11 cycles
 SCF Done:  E(RB3LYP) =  -455.324520863     A.U. after   11 cycles
 SCF Done:  E(RB3LYP) =  -455.324499856     A.U. after   11 cycles
 SCF Done:  E(RB3LYP) =  -455.324537702     A.U. after   11 cycles
 SCF Done:  E(RB3LYP) =  -455.324538826     A.U. after    7 cycles
 SCF Done:  E(RB3LYP) =  -455.324540212     A.U. after    8 cycles
 SCF Done:  E(RB3LYP) =  -455.324541252     A.U. after    9 cycles
 SCF Done:  E(RB3LYP) =  -455.324541340     A.U. after    8 cycles
 Optimization completed.
    -- Stationary point found.
 Normal termination of Gaussian 16 at Sun Jul  3 17:11:51 2022.

 ----------------------------------------------------------------------
 #N Geom=AllCheck Guess=TCheck SCRF=Check GenChk RB3LYP/6-31G(2df,p) Fr
 eq
 ----------------------------------------------------------------------

 Structure from the checkpoint file:  "OdC1CC2NCNC2O1.chk"
 -------------------
 Title Card Required
 -------------------
 Charge =  0 Multiplicity = 1

                         Standard orientation:
 ---------------------------------------------------------------------
 Center     Atomic      Atomic             Coordinates (Angstroms)
 Number     Number       Type             X           Y           Z
 ---------------------------------------------------------------------
      1          8           0        2.602618   -0.372367   -0.753413
      2          6           0        1.591562   -0.161498   -0.148941
      3          6           0        1.088297    1.167037    0.411635
      4          6           0       -0.390567    0.919286    0.697430
      5          7           0       -1.292096    1.185323   -0.438862
      6          6           0       -1.874374   -0.082164   -0.901733
      7          7           0       -1.700669   -0.958309    0.255460
      8          6           0       -0.471254   -0.611054    0.869884
      9          8           0        0.700185   -1.138515    0.159936
     10          1           0        1.289004    1.985097   -0.283309
     11          1           0        1.645743    1.381092    1.330906
     12          1           0       -0.738589    1.443595    1.592615
     13          1           0       -0.812477    1.661666   -1.190970
     14          1           0       -1.371198   -0.464652   -1.807412
     15          1           0       -2.942134    0.028997   -1.126692
     16          1           0       -1.801422   -1.944364    0.052399
     17          1           0       -0.403975   -0.983115    1.894457
 ---------------------------------------------------------------------

 SCF Done:  E(RB3LYP) =  -455.324541340     A.U. after    1 cycles

 The electronic state is 1-A.
 Alpha  occ. eigenvalues --  -19.17699 -19.12085 -14.33789 -14.32873 -10.30428
 Alpha  occ. eigenvalues --  -10.27653 -10.24460 -10.23382 -10.20803  -1.09793
 Alpha  occ. eigenvalues --   -1.02270  -0.96294  -0.87391  -0.78963  -0.72393
 Alpha  occ. eigenvalues --   -0.63512  -0.62178  -0.57506  -0.54089  -0.52159
 Alpha  occ. eigenvalues --   -0.48703  -0.46662  -0.45139  -0.43453  -0.42444
 Alpha  occ. eigenvalues --   -0.41114  -0.39904  -0.37978  -0.37012  -0.35851
 Alpha  occ. eigenvalues --   -0.30253  -0.27520  -0.25329  -0.23441
 Alpha virt. eigenvalues --    0.01400   0.06589   0.09230   0.10095   0.11865
 Alpha virt. eigenvalues --    0.12954   0.14056   0.14791   0.15267   0.17114
 Alpha virt. eigenvalues --    0.17801   0.19480   0.21114   0.21938   0.23824

 Mulliken charges:
               1
     1  O   -0.335483
     2  C    0.418191
     3  C   -0.389749
     4  C    0.003015
     5  N   -0.312133
     6  C   -0.115654
     7  N   -0.291711
     8  C    0.122836
     9  O   -0.249053
    10  H    0.137044
    11  H    0.141140
    12  H    0.094535
    13  H    0.227354
    14  H    0.095775
    15  H    0.113009
    16  H    0.240020
    17  H    0.100862
 Sum of Mulliken charges =  -0.00000

 Dipole moment (field-independent basis, Debye):
    X=             -2.2157    Y=              0.8948    Z=              0.8769  Tot=              2.5454
 Quadrupole moment (field-independent basis, Debye-Ang):
   XX=            -62.6382   YY=            -50.0910   ZZ=            -48.7396
   XY=              6.9778   XZ=              6.2496   YZ=             -1.2298

  Exact polarizability:  77.283   4.493  62.106   0.438   0.423  62.113
 Approx polarizability: 109.688   4.996  92.275  -5.289  -0.695  94.792

                      1                      2                      3
                      A                      A                      A
 Frequencies --     67.3578                96.4773               190.7034
 Red. masses --      2.5939                 5.1712                 3.6743
 Frc consts  --      0.0069                 0.0284                 0.0787
 IR Inten    --      7.4155                 5.5097                 2.0144

                      4                      5                      6
                      A                      A                      A
 Frequencies --    357.6975               383.4155               508.8096
 Red. masses --      2.3019                 3.0863                 3.9104
 Frc consts  --      0.1735                 0.2673                 0.5965
 IR Inten    --      9.0820                28.0603                 9.4738

                      7                      8                      9
                      A                      A                      A
 Frequencies --    538.3043               566.6425               611.9265
 Red. masses --      2.9040                 3.3192                 2.6461
 Frc consts  --      0.4958                 0.6279                 0.5838
 IR Inten    --     14.8480                19.1106                47.1655

                     10                     11                     12
                      A                      A                      A
 Frequencies --    668.9699               700.8857               807.7321
 Red. masses --      3.2889                 2.7003                 5.1084
 Frc consts  --      0.8672                 0.7816                 1.9637
 IR Inten    --    133.4216                38.1011                 1.5977

                     13                     14                     15
                      A                      A                      A
 Frequencies --    831.1197               889.4265               897.4238
 Red. masses --      3.0303                 4.1963                 3.2477
 Frc consts  --      1.2333                 1.9559                 1.5411
 IR Inten    --    106.6465                14.0528                54.2921

                     16                     17                     18
                      A                      A                      A
 Frequencies --    912.0509               956.8494               985.9599
 Red. masses --      2.0503                 4.4666                 2.7603
 Frc consts  --      1.0049                 2.4095                 1.5810
 IR Inten    --      4.6980                95.2466                 5.3801

                     19                     20                     21
                      A                      A                      A
 Frequencies --   1029.4468              1056.4508              1117.7200
 Red. masses --      2.2665                 2.0286                 1.6786
 Frc consts  --      1.4152                 1.3339                 1.2356
 IR Inten    --      8.9231                19.6459                19.3860

                     22                     23                     24
                      A                      A                      A
 Frequencies --   1133.9759              1147.9441              1185.9087
 Red. masses --      1.6987                 2.8387                 2.5007
 Frc consts  --      1.2870                 2.2040                 2.0721
 IR Inten    --     82.5462                24.9403                68.6614

                     25                     26                     27
                      A                      A                      A
 Frequencies --   1205.8069              1223.1304              1257.2626
 Red. masses --      1.1244                 1.7511                 1.4626
 Frc consts  --      0.9632                 1.5435                 1.3621
 IR Inten    --      1.3840                43.4913                 4.0635

                     28                     29                     30
                      A                      A                      A
 Frequencies --   1294.5597              1326.8172              1354.0251
 Red. masses --      1.7666                 1.6972                 1.2131
 Frc consts  --      1.7444                 1.7604                 1.3104
 IR Inten    --     26.3601                 8.4740                 3.5418

                     31                     32                     33
                      A                      A                      A
 Frequencies --   1377.1137              1397.4541              1454.8758
 Red. masses --      1.2619                 1.4778                 1.2402
 Frc consts  --      1.4100                 1.7004                 1.5466
 IR Inten    --     11.5253                35.9842                28.3650

                     34                     35                     36
                      A                      A                      A
 Frequencies --   1460.0834              1472.7057              1554.2133
 Red. masses --      1.4287                 1.2141                 1.0898
 Frc consts  --      1.7945                 1.5515                 1.5511
 IR Inten    --     13.7918                17.0243                 3.4993

                     37                     38                     39
                      A                      A                      A
 Frequencies --   1877.9509              2935.0951              3031.8824
 Red. masses --     12.8030                 1.0733                 1.0896
 Frc consts  --     26.6031                 5.4477                 5.9011
 IR Inten    --    372.3554                87.2708                65.4488

                     40                     41                     42
                      A                      A                      A
 Frequencies --   3046.0426              3058.3010              3093.3207
 Red. masses --      1.0789                 1.0746                 1.0885
 Frc consts  --      5.8978                 5.9218                 6.1363
 IR Inten    --     20.1926                20.2566                36.3162

                     43                     44                     45
                      A                      A                      A
 Frequencies --   3114.7580              3572.0686              3582.1767
 Red. masses --      1.0973                 1.0753                 1.0753
 Frc consts  --      6.2720                 8.0838                 8.1294
 IR Inten    --      6.2029                 3.1863                10.5331

 - Thermochemistry -
 -------------------
 Temperature   298.150 Kelvin.  Pressure   1.00000 Atm.
 Atom     1 has atomic number  8 and mass  15.99491

 Molecular mass:   128.05858 amu.
 Principal axes and moments of inertia in atomic units:
                           1         2         3
     Eigenvalues --   557.987371232.529831405.34096
           X            0.99901   0.03495   0.02767
           Y           -0.03532   0.99929   0.01303
           Z           -0.02720  -0.01400   0.99953
 This molecule is an asymmetric top.
 Rotational symmetry number  1.
 Warning -- assumption of classical behavior for rotation
           may cause significant error
 Rotational temperatures (Kelvin)      0.15523     0.07027     0.06163
 Rotational constants (GHZ):           3.23438     1.46426     1.28420
 Zero-point vibrational energy     366851.9 (Joules/Mol)
                                   87.67970 (Kcal/Mol)
 Warning -- explicit consideration of   9 degrees of freedom as
           vibrations may cause significant error
 Vibrational temperatures:     96.91   138.81   274.38   514.65   551.65
          (Kelvin)            732.06   774.50   815.27   880.43   962.50
                             1008.42  1162.15  1195.80  1279.69  1291.19
                             1312.24  1376.69  1418.58  1481.14  1520.00
                             1608.15  1631.54  1651.64  1706.26  1734.89
                             1759.81  1808.92  1862.58  1908.99  1948.14
                             1981.36  2010.62  2093.24  2100.73  2118.90
                             2236.17  2701.95  4222.95  4362.20  4382.58
                             4400.21  4450.60  4481.44  5139.41  5153.95

 Zero-point correction=                           0.139726 (Hartree/Particle)
 Thermal correction to Energy=                    0.146989
 Thermal correction to Enthalpy=                  0.147934
 Thermal correction to Gibbs Free Energy=         0.107358
 Sum of electronic and zero-point Energies=           -455.184815
 Sum of electronic and thermal Energies=              -455.177552
 Sum of electronic and thermal Enthalpies=            -455.176608
 Sum of electronic and thermal Free Energies=         -455.217183

                     E (Thermal)             CV                S
                      KCal/Mol        Cal/Mol-Kelvin    Cal/Mol-Kelvin
 Total                   92.237             27.754             85.398
 Electronic               0.000              0.000              0.000
 Translational            0.889              2.981             40.455
 Rotational               0.889              2.981             28.360
 Vibrational             90.460             21.792             16.583
 Vibration     1          0.598              1.970              4.229
 Vibration     2          0.603              1.952              3.524
 Vibration     3          0.634              1.853              2.221
 Vibration     4          0.733              1.559              1.132
 Vibration     5          0.753              1.506              1.026
 Vibration     6          0.864              1.230              0.636
 Vibration     7          0.893              1.165              0.569
 Vibration     8          0.923              1.103              0.511
 Vibration     9          0.971              1.007              0.430

 Optimization completed.
    -- Stationary point found.
 Normal termination of Gaussian 16 at Sun Jul  3 17:37:12 2022.
