 Gaussian 16, Revision A.03,
 Gaussian 16:  ES64L-G16RevA.03 25-Dec-2016

 -----------------------------
 # opt freq b3lyp/6-31g(2df,p)
 -----------------------------

 -------------------
 Title Card Required
 -------------------
 Symbolic Z-matrix:
 Charge =  0 Multiplicity = 1

 SCF Done:  E(RB3LYP) =  -414.686634355     A.U. after   15 cycles
 SCF Done:  E(RB3LYP) =  -414.692664580     A.U. after   14 cycles
 SCF Done:  E(RB3LYP) =  -414.693308879     A.U. after   14 cycles
 SCF Done:  E(RB3LYP) =  -414.693829262     A.U. after   15 cycles
 SCF Done:  E(RB3LYP) =  -414.695226647     A.U. after   12 cycles
 SCF Done:  E(RB3LYP) =  -414.695800593     A.U. after   14 cycles
 SCF Done:  E(RB3LYP) =  -414.697260138     A.U. after   15 cycles
 SCF Done:  E(RB3LYP) =  -414.698264257     A.U. after   14 cycles
 SCF Done:  E(RB3LYP) =  -414.699654550     A.U. after   14 cycles
 SCF Done:  E(RB3LYP) =  -414.700010424     A.U. after   13 cycles
 SCF Done:  E(RB3LYP) =  -414.700062019     A.U. after   13 cycles
 SCF Done:  E(RB3LYP) =  -414.700163779     A.U. after   12 cycles
 SCF Done:  E(RB3LYP) =  -414.700176087     A.U. after   12 cycles
 SCF Done:  E(RB3LYP) =  -414.700178772     A.U. after    9 cycles
 SCF Done:  E(RB3LYP) =  -414.700179354     A.U. after    8 cycles
 Optimization completed.
    -- Stationary point found.
 Normal termination of Gaussian 16 at Sun Jul  3 09:41:20 2022.

 ----------------------------------------------------------------------
 #N Geom=AllCheck Guess=TCheck SCRF=Check GenChk RB3LYP/6-31G(2df,p) Fr
 eq
 ----------------------------------------------------------------------

 Structure from the checkpoint file:  "OdCC1NdNCdCO1.chk"
 -------------------
 Title Card Required
 -------------------
 Charge =  0 Multiplicity = 1

                         Standard orientation:
 ---------------------------------------------------------------------
 Center     Atomic      Atomic             Coordinates (Angstroms)
 Number     Number       Type             X           Y           Z
 ---------------------------------------------------------------------
      1          8           0       -2.017250    0.554129   -0.764745
      2          6           0       -1.590184   -0.457174   -0.278627
      3          6           0       -0.465669   -0.506134    0.757431
      4          7           0        0.608342   -1.429009    0.259699
      5          7           0        1.452314   -0.904171   -0.501754
      6          6           0        1.443684    0.477014   -0.741665
      7          6           0        0.831109    1.286524    0.143676
      8          8           0        0.012500    0.789025    1.080324
      9          1           0       -1.973753   -1.464812   -0.547315
     10          1           0       -0.849618   -0.939187    1.685025
     11          1           0        2.124083    0.836996   -1.498309
     12          1           0        0.999053    2.352655    0.245452
 ---------------------------------------------------------------------

 SCF Done:  E(RB3LYP) =  -414.700179354     A.U. after    1 cycles

 The electronic state is 1-A.
 Alpha  occ. eigenvalues --  -19.21910 -19.16508 -14.39789 -14.38648 -10.29224
 Alpha  occ. eigenvalues --  -10.29056 -10.28000 -10.22138  -1.12882  -1.06906
 Alpha  occ. eigenvalues --   -1.03536  -0.83681  -0.74926  -0.70225  -0.63123
 Alpha  occ. eigenvalues --   -0.56458  -0.55372  -0.53136  -0.50125  -0.46309
 Alpha  occ. eigenvalues --   -0.45611  -0.41439  -0.41196  -0.40130  -0.38957
 Alpha  occ. eigenvalues --   -0.35980  -0.29310  -0.25080  -0.23819
 Alpha virt. eigenvalues --   -0.07991  -0.04418   0.03927   0.09700   0.10535
 Alpha virt. eigenvalues --    0.12007   0.13205   0.14741   0.18313   0.20859
 Alpha virt. eigenvalues --    0.25547   0.26625   0.29187   0.36105   0.37529

 Mulliken charges:
               1
     1  O   -0.231620
     2  C    0.160226
     3  C    0.009193
     4  N   -0.165778
     5  N   -0.098299
     6  C   -0.122898
     7  C    0.101085
     8  O   -0.182955
     9  H    0.109700
    10  H    0.137576
    11  H    0.130416
    12  H    0.153354
 Sum of Mulliken charges =  -0.00000

 Dipole moment (field-independent basis, Debye):
    X=              0.0136    Y=              1.1315    Z=              0.7725  Tot=              1.3701
 Quadrupole moment (field-independent basis, Debye-Ang):
   XX=            -46.7068   YY=            -45.1399   ZZ=            -44.0910
   XY=              9.0214   XZ=             -3.2353   YZ=             -0.5476

  Exact polarizability:  58.476   3.661  65.628  -7.428  -1.831  47.174
 Approx polarizability:  88.428  -2.885 125.529 -17.770  -2.298  82.957

                      1                      2                      3
                      A                      A                      A
 Frequencies --     99.9220               147.5040               222.2300
 Red. masses --      7.2845                 3.9958                 4.3734
 Frc consts  --      0.0429                 0.0512                 0.1273
 IR Inten    --      5.2528                12.0744                 8.4303

                      4                      5                      6
                      A                      A                      A
 Frequencies --    312.7777               388.8511               523.2217
 Red. masses --      5.2510                 3.3953                 9.6794
 Frc consts  --      0.3027                 0.3025                 1.5612
 IR Inten    --      2.9676                 1.7780                 4.1902

                      7                      8                      9
                      A                      A                      A
 Frequencies --    632.7702               678.4500               720.7304
 Red. masses --      6.7673                 6.0043                 4.3311
 Frc consts  --      1.5965                 1.6283                 1.3255
 IR Inten    --      2.7377                 6.9031                51.3712

                     10                     11                     12
                      A                      A                      A
 Frequencies --    768.8724               817.3021               867.4864
 Red. masses --      2.5746                 1.6030                 4.8779
 Frc consts  --      0.8968                 0.6309                 2.1628
 IR Inten    --     48.7433                 7.5975                 2.8417

                     13                     14                     15
                      A                      A                      A
 Frequencies --    921.4567               948.2483               990.1536
 Red. masses --      1.8616                 2.8312                 3.9976
 Frc consts  --      0.9313                 1.4999                 2.3092
 IR Inten    --      2.6504                10.4038                 6.8158

                     16                     17                     18
                      A                      A                      A
 Frequencies --   1053.9258              1117.7866              1137.0612
 Red. masses --      2.4433                 4.5295                 1.9867
 Frc consts  --      1.5990                 3.3344                 1.5134
 IR Inten    --     19.9748                12.2465                32.1509

                     19                     20                     21
                      A                      A                      A
 Frequencies --   1241.5946              1270.4942              1355.8644
 Red. masses --      1.2510                 1.6564                 1.2479
 Frc consts  --      1.1363                 1.5753                 1.3517
 IR Inten    --     32.8819                42.0309                 1.6201

                     22                     23                     24
                      A                      A                      A
 Frequencies --   1399.3402              1417.0043              1540.0743
 Red. masses --      1.2314                 1.8644                 4.8378
 Frc consts  --      1.4207                 2.2057                 6.7605
 IR Inten    --     11.3048                32.5979                97.9267

                     25                     26                     27
                      A                      A                      A
 Frequencies --   1641.0476              1836.9027              2910.1498
 Red. masses --      5.6753                10.3991                 1.0852
 Frc consts  --      9.0049                20.6738                 5.4147
 IR Inten    --     17.0205               116.4254                79.4403

                     28                     29                     30
                      A                      A                      A
 Frequencies --   3085.0719              3205.2302              3253.1248
 Red. masses --      1.0857                 1.0920                 1.0966
 Frc consts  --      6.0884                 6.6101                 6.8377
 IR Inten    --      9.5118                 3.0071                 2.9312

 - Thermochemistry -
 -------------------
 Temperature   298.150 Kelvin.  Pressure   1.00000 Atm.
 Atom     1 has atomic number  8 and mass  15.99491

 Molecular mass:   112.02728 amu.
 Principal axes and moments of inertia in atomic units:
                           1         2         3
     Eigenvalues --   515.19751 819.69652 960.01469
           X            0.99555   0.08969  -0.02887
           Y           -0.09085   0.99499  -0.04175
           Z            0.02498   0.04419   0.99871
 This molecule is an asymmetric top.
 Rotational symmetry number  1.
 Warning -- assumption of classical behavior for rotation
           may cause significant error
 Rotational temperatures (Kelvin)      0.16812     0.10567     0.09022
 Rotational constants (GHZ):           3.50301     2.20172     1.87991
 Zero-point vibrational energy     218346.3 (Joules/Mol)
                                   52.18602 (Kcal/Mol)
 Warning -- explicit consideration of   6 degrees of freedom as
           vibrations may cause significant error
 Vibrational temperatures:    143.77   212.23   319.74   450.02   559.47
          (Kelvin)            752.80   910.42   976.14  1036.97  1106.24
                             1175.92  1248.12  1325.77  1364.32  1424.61
                             1516.36  1608.25  1635.98  1786.38  1827.96
                             1950.79  2013.34  2038.75  2215.82  2361.10
                             2642.89  4187.06  4438.73  4611.61  4680.52

 Zero-point correction=                           0.083164 (Hartree/Particle)
 Thermal correction to Energy=                    0.089695
 Thermal correction to Enthalpy=                  0.090639
 Thermal correction to Gibbs Free Energy=         0.052213
 Sum of electronic and zero-point Energies=           -414.617016
 Sum of electronic and thermal Energies=              -414.610484
 Sum of electronic and thermal Enthalpies=            -414.609540
 Sum of electronic and thermal Free Energies=         -414.647967

                     E (Thermal)             CV                S
                      KCal/Mol        Cal/Mol-Kelvin    Cal/Mol-Kelvin
 Total                   56.284             23.399             80.876
 Electronic               0.000              0.000              0.000
 Translational            0.889              2.981             40.057
 Rotational               0.889              2.981             27.497
 Vibrational             54.507             17.438             13.323
 Vibration     1          0.604              1.949              3.456
 Vibration     2          0.617              1.905              2.704
 Vibration     3          0.648              1.807              1.941
 Vibration     4          0.701              1.649              1.348
 Vibration     5          0.757              1.494              1.005
 Vibration     6          0.878              1.199              0.603

 Optimization completed.
    -- Stationary point found.
 Normal termination of Gaussian 16 at Sun Jul  3 09:56:03 2022.
