 Gaussian 16, Revision A.03,
 Gaussian 16:  ES64L-G16RevA.03 25-Dec-2016

 -----------------------------
 # opt freq b3lyp/6-31g(2df,p)
 -----------------------------

 -------------------
 Title Card Required
 -------------------
 Symbolic Z-matrix:
 Charge =  0 Multiplicity = 1

 SCF Done:  E(RB3LYP) =  -365.239628589     A.U. after   13 cycles
 SCF Done:  E(RB3LYP) =  -365.242337949     A.U. after   12 cycles
 SCF Done:  E(RB3LYP) =  -365.236798804     A.U. after   13 cycles
 SCF Done:  E(RB3LYP) =  -365.243116894     A.U. after   12 cycles
 SCF Done:  E(RB3LYP) =  -365.243959939     A.U. after   13 cycles
 SCF Done:  E(RB3LYP) =  -365.180991825     A.U. after   14 cycles
 SCF Done:  E(RB3LYP) =  -365.245112102     A.U. after   13 cycles
 SCF Done:  E(RB3LYP) =  -365.239553157     A.U. after   13 cycles
 SCF Done:  E(RB3LYP) =  -365.246537214     A.U. after   13 cycles
 SCF Done:  E(RB3LYP) =  -365.247036947     A.U. after   12 cycles
 SCF Done:  E(RB3LYP) =  -365.247768062     A.U. after   13 cycles
 SCF Done:  E(RB3LYP) =  -365.248098673     A.U. after   15 cycles
 SCF Done:  E(RB3LYP) =  -365.248446558     A.U. after   15 cycles
 SCF Done:  E(RB3LYP) =  -365.248509499     A.U. after   10 cycles
 SCF Done:  E(RB3LYP) =  -365.248521628     A.U. after   12 cycles
 SCF Done:  E(RB3LYP) =  -365.248522566     A.U. after   12 cycles
 SCF Done:  E(RB3LYP) =  -365.248530608     A.U. after   10 cycles
 SCF Done:  E(RB3LYP) =  -365.248532732     A.U. after   10 cycles
 SCF Done:  E(RB3LYP) =  -365.248532967     A.U. after    8 cycles
 Optimization completed.
    -- Stationary point found.
 Normal termination of Gaussian 16 at Sun Jul  3 12:09:56 2022.

 ----------------------------------------------------------------------
 #N Geom=AllCheck Guess=TCheck SCRF=Check GenChk RB3LYP/6-31G(2df,p) Fr
 eq
 ----------------------------------------------------------------------

 Structure from the checkpoint file:  "OdCC1CCCCN1.chk"
 -------------------
 Title Card Required
 -------------------
 Charge =  0 Multiplicity = 1

                         Standard orientation:
 ---------------------------------------------------------------------
 Center     Atomic      Atomic             Coordinates (Angstroms)
 Number     Number       Type             X           Y           Z
 ---------------------------------------------------------------------
      1          8           0       -3.056344    0.157855    0.243719
      2          6           0       -2.056459   -0.208063   -0.317496
      3          6           0       -0.656715   -0.112715    0.262755
      4          6           0       -0.028925    1.215056   -0.215980
      5          6           0        1.441843    1.309784    0.210541
      6          6           0        2.220901    0.071855   -0.251355
      7          6           0        1.532330   -1.201698    0.242453
      8          7           0        0.143883   -1.233224   -0.223814
      9          1           0       -2.078907   -0.630798   -1.348616
     10          1           0       -0.750348   -0.076763    1.362936
     11          1           0       -0.612411    2.048711    0.186568
     12          1           0       -0.096880    1.259971   -1.310615
     13          1           0        1.496550    1.386846    1.304934
     14          1           0        1.890334    2.224222   -0.192330
     15          1           0        3.251271    0.102894    0.118388
     16          1           0        2.264577    0.049556   -1.346918
     17          1           0        1.605247   -1.241733    1.346311
     18          1           0        2.041610   -2.089679   -0.146361
     19          1           0       -0.285327   -2.108814    0.057137
 ---------------------------------------------------------------------

 SCF Done:  E(RB3LYP) =  -365.248532967     A.U. after    1 cycles

 The electronic state is 1-A.
 Alpha  occ. eigenvalues --  -19.13850 -14.32300 -10.26560 -10.21747 -10.21075
 Alpha  occ. eigenvalues --  -10.19072 -10.18711 -10.18369  -1.04530  -0.91934
 Alpha  occ. eigenvalues --   -0.79183  -0.76957  -0.66073  -0.63627  -0.57564
 Alpha  occ. eigenvalues --   -0.56084  -0.51769  -0.46860  -0.45604  -0.43753
 Alpha  occ. eigenvalues --   -0.43406  -0.41566  -0.41300  -0.40009  -0.37455
 Alpha  occ. eigenvalues --   -0.35159  -0.33597  -0.33288  -0.31768  -0.24723
 Alpha  occ. eigenvalues --   -0.23470
 Alpha virt. eigenvalues --   -0.02320   0.07802   0.10550   0.11871   0.12836
 Alpha virt. eigenvalues --    0.13698   0.15980   0.16406   0.16648   0.17158
 Alpha virt. eigenvalues --    0.17332   0.18095   0.19437   0.21561   0.23578

 Mulliken charges:
               1
     1  O   -0.252025
     2  C    0.139025
     3  C   -0.031581
     4  C   -0.179113
     5  C   -0.210702
     6  C   -0.170053
     7  C   -0.147502
     8  N   -0.311742
     9  H    0.082243
    10  H    0.073445
    11  H    0.111352
    12  H    0.103907
    13  H    0.098107
    14  H    0.098071
    15  H    0.093555
    16  H    0.103920
    17  H    0.079182
    18  H    0.099908
    19  H    0.220005
 Sum of Mulliken charges =  -0.00000

 Dipole moment (field-independent basis, Debye):
    X=              2.6522    Y=             -0.6393    Z=              0.0011  Tot=              2.7281
 Quadrupole moment (field-independent basis, Debye-Ang):
   XX=            -58.0486   YY=            -45.7437   ZZ=            -49.3104
   XY=              1.7696   XZ=              2.1957   YZ=             -1.3696

  Exact polarizability:  85.338  -0.932  68.846  -0.244   1.743  63.012
 Approx polarizability: 113.142  -3.012  96.722  -4.469   4.458  99.936

                      1                      2                      3
                      A                      A                      A
 Frequencies --     63.3106               115.5591               233.0163
 Red. masses --      4.0308                 3.3018                 1.9149
 Frc consts  --      0.0095                 0.0260                 0.0613
 IR Inten    --      7.3355                 2.2031                 1.1427

                      4                      5                      6
                      A                      A                      A
 Frequencies --    255.5342               310.8782               373.1954
 Red. masses --      2.4757                 1.8878                 4.5951
 Frc consts  --      0.0952                 0.1075                 0.3771
 IR Inten    --      1.9097                 2.2656                 0.3117

                      7                      8                      9
                      A                      A                      A
 Frequencies --    438.1816               447.6482               531.4480
 Red. masses --      2.2217                 3.2394                 2.4722
 Frc consts  --      0.2513                 0.3825                 0.4114
 IR Inten    --      4.3419                 3.3127                 0.0562

                     10                     11                     12
                      A                      A                      A
 Frequencies --    570.8055               773.6127               823.4369
 Red. masses --      2.0199                 1.5246                 2.1131
 Frc consts  --      0.3878                 0.5376                 0.8442
 IR Inten    --     42.7132                51.7165                 0.4800

                     13                     14                     15
                      A                      A                      A
 Frequencies --    852.2010               875.8428               899.6190
 Red. masses --      1.9352                 2.0231                 1.9425
 Frc consts  --      0.8281                 0.9144                 0.9262
 IR Inten    --      5.6432                 3.6989                 3.3065

                     16                     17                     18
                      A                      A                      A
 Frequencies --    935.5843               997.7221              1005.0956
 Red. masses --      1.9737                 1.9579                 1.5866
 Frc consts  --      1.0179                 1.1483                 0.9443
 IR Inten    --      5.6053                15.9190                 1.9404

                     19                     20                     21
                      A                      A                      A
 Frequencies --   1063.5367              1079.1597              1107.3128
 Red. masses --      1.8616                 2.0526                 2.0082
 Frc consts  --      1.2406                 1.4084                 1.4508
 IR Inten    --      0.9358                 7.3901                35.8655

                     22                     23                     24
                      A                      A                      A
 Frequencies --   1139.9773              1158.9282              1173.1143
 Red. masses --      3.0896                 2.2446                 1.3222
 Frc consts  --      2.3656                 1.7762                 1.0721
 IR Inten    --     16.7734                 6.0535                 1.4899

                     25                     26                     27
                      A                      A                      A
 Frequencies --   1227.8268              1265.5018              1292.5681
 Red. masses --      1.5306                 1.2635                 1.2400
 Frc consts  --      1.3595                 1.1922                 1.2206
 IR Inten    --      4.8869                 5.4002                 3.9930

                     28                     29                     30
                      A                      A                      A
 Frequencies --   1316.3504              1337.0060              1362.5542
 Red. masses --      1.2643                 1.2990                 1.3485
 Frc consts  --      1.2907                 1.3681                 1.4751
 IR Inten    --      4.6295                27.2232                14.6151

                     31                     32                     33
                      A                      A                      A
 Frequencies --   1373.6851              1381.8167              1398.7968
 Red. masses --      1.3789                 1.4549                 1.3631
 Frc consts  --      1.5330                 1.6368                 1.5714
 IR Inten    --      0.2883                 1.0518                 6.1838

                     34                     35                     36
                      A                      A                      A
 Frequencies --   1412.8112              1474.4169              1484.1682
 Red. masses --      1.2796                 1.0941                 1.0874
 Frc consts  --      1.5049                 1.4013                 1.4113
 IR Inten    --      2.4782                 2.0707                 5.9804

                     37                     38                     39
                      A                      A                      A
 Frequencies --   1491.6300              1495.8242              1507.1959
 Red. masses --      1.1208                 1.2694                 1.1005
 Frc consts  --      1.4693                 1.6734                 1.4730
 IR Inten    --      0.9021                 4.4985                 1.2547

                     40                     41                     42
                      A                      A                      A
 Frequencies --   1835.1585              2871.2291              2916.9223
 Red. masses --     10.4798                 1.0827                 1.0728
 Frc consts  --     20.7946                 5.2590                 5.3782
 IR Inten    --    173.2260                87.7255                68.5840

                     43                     44                     45
                      A                      A                      A
 Frequencies --   2942.1550              3017.0146              3026.9188
 Red. masses --      1.0813                 1.0660                 1.0622
 Frc consts  --      5.5149                 5.7168                 5.7341
 IR Inten    --     50.7882                20.3665                22.5525

                     46                     47                     48
                      A                      A                      A
 Frequencies --   3032.2779              3063.7587              3069.2830
 Red. masses --      1.0614                 1.0885                 1.0941
 Frc consts  --      5.7502                 6.0198                 6.0728
 IR Inten    --     17.5774                49.9627                41.3972

                     49                     50                     51
                      A                      A                      A
 Frequencies --   3080.5886              3087.6485              3514.1107
 Red. masses --      1.1034                 1.1012                 1.0743
 Frc consts  --      6.1695                 6.1852                 7.8162
 IR Inten    --     36.9620                34.2416                 0.2000

 - Thermochemistry -
 -------------------
 Temperature   298.150 Kelvin.  Pressure   1.00000 Atm.
 Atom     1 has atomic number  8 and mass  15.99491

 Molecular mass:   113.08406 amu.
 Principal axes and moments of inertia in atomic units:
                           1         2         3
     Eigenvalues --   424.255611315.302071617.14723
           X            0.99996   0.00457   0.00758
           Y           -0.00451   0.99996  -0.00791
           Z           -0.00762   0.00787   0.99994
 This molecule is an asymmetric top.
 Rotational symmetry number  1.
 Rotational temperatures (Kelvin)      0.20416     0.06585     0.05356
 Rotational constants (GHZ):           4.25390     1.37211     1.11600
 Zero-point vibrational energy     439651.2 (Joules/Mol)
                                  105.07916 (Kcal/Mol)
 Warning -- explicit consideration of  10 degrees of freedom as
           vibrations may cause significant error
 Vibrational temperatures:     91.09   166.26   335.26   367.66   447.28
          (Kelvin)            536.94   630.45   644.07   764.64   821.26
                             1113.06  1184.74  1226.13  1260.14  1294.35
                             1346.10  1435.50  1446.11  1530.19  1552.67
                             1593.18  1640.17  1667.44  1687.85  1766.57
                             1820.77  1859.72  1893.93  1923.65  1960.41
                             1976.43  1988.13  2012.56  2032.72  2121.36
                             2135.39  2146.12  2152.16  2168.52  2640.38
                             4131.06  4196.80  4233.10  4340.81  4355.06
                             4362.77  4408.07  4416.01  4432.28  4442.44
                             5056.02

 Zero-point correction=                           0.167454 (Hartree/Particle)
 Thermal correction to Energy=                    0.175173
 Thermal correction to Enthalpy=                  0.176117
 Thermal correction to Gibbs Free Energy=         0.135048
 Sum of electronic and zero-point Energies=           -365.081079
 Sum of electronic and thermal Energies=              -365.073360
 Sum of electronic and thermal Enthalpies=            -365.072416
 Sum of electronic and thermal Free Energies=         -365.113485

                     E (Thermal)             CV                S
                      KCal/Mol        Cal/Mol-Kelvin    Cal/Mol-Kelvin
 Total                  109.922             29.070             86.437
 Electronic               0.000              0.000              0.000
 Translational            0.889              2.981             40.085
 Rotational               0.889              2.981             28.292
 Vibrational            108.145             23.108             18.061
 Vibration     1          0.597              1.972              4.351
 Vibration     2          0.608              1.936              3.173
 Vibration     3          0.654              1.790              1.856
 Vibration     4          0.666              1.753              1.692
 Vibration     5          0.700              1.653              1.358
 Vibration     6          0.745              1.527              1.067
 Vibration     7          0.798              1.387              0.832
 Vibration     8          0.807              1.366              0.803
 Vibration     9          0.886              1.180              0.584
 Vibration    10          0.927              1.094              0.503

 Optimization completed.
    -- Stationary point found.
 Normal termination of Gaussian 16 at Sun Jul  3 12:35:01 2022.
