 Gaussian 16, Revision A.03,
 Gaussian 16:  ES64L-G16RevA.03 25-Dec-2016

 -----------------------------
 # opt freq b3lyp/6-31g(2df,p)
 -----------------------------

 -------------------
 Title Card Required
 -------------------
 Symbolic Z-matrix:
 Charge =  0 Multiplicity = 1

 SCF Done:  E(RB3LYP) =  -267.923081931     A.U. after   16 cycles
 SCF Done:  E(RB3LYP) =  -267.965942115     A.U. after   15 cycles
 SCF Done:  E(RB3LYP) =  -267.996126555     A.U. after   15 cycles
 SCF Done:  E(RB3LYP) =  -268.000835189     A.U. after   14 cycles
 SCF Done:  E(RB3LYP) =  -268.004637750     A.U. after   14 cycles
 SCF Done:  E(RB3LYP) =  -268.005303201     A.U. after   13 cycles
 SCF Done:  E(RB3LYP) =  -268.005520254     A.U. after   12 cycles
 SCF Done:  E(RB3LYP) =  -268.005591634     A.U. after   12 cycles
 SCF Done:  E(RB3LYP) =  -268.005606432     A.U. after   10 cycles
 SCF Done:  E(RB3LYP) =  -268.005614145     A.U. after   10 cycles
 SCF Done:  E(RB3LYP) =  -268.005615076     A.U. after    9 cycles
 SCF Done:  E(RB3LYP) =  -268.005615378     A.U. after    9 cycles
 Optimization completed.
    -- Stationary point found.
 Normal termination of Gaussian 16 at Thu Aug  4 06:08:47 2022.

 ----------------------------------------------------------------------
 #N Geom=AllCheck Guess=TCheck SCRF=Check GenChk RB3LYP/6-31G(2df,p) Fr
 eq
 ----------------------------------------------------------------------

 Structure from the checkpoint file:  "OdCC1dC2CC12.chk"
 -------------------
 Title Card Required
 -------------------
 Charge =  0 Multiplicity = 1

                         Standard orientation:
 ---------------------------------------------------------------------
 Center     Atomic      Atomic             Coordinates (Angstroms)
 Number     Number       Type             X           Y           Z
 ---------------------------------------------------------------------
      1          8           0        2.325768   -0.456066   -0.148066
      2          6           0        1.517930    0.426110    0.025583
      3          6           0        0.071011    0.221412   -0.006811
      4          6           0       -1.054984    0.974420    0.235488
      5          6           0       -2.068188   -0.126154   -0.263656
      6          6           0       -0.858893   -0.834816    0.175223
      7          1           0        1.818040    1.476268    0.216610
      8          1           0       -2.210896   -0.014754   -1.334866
      9          1           0       -3.005630   -0.270908    0.272700
     10          1           0       -0.848920   -1.507911    1.035109
 ---------------------------------------------------------------------

 SCF Done:  E(RB3LYP) =  -268.005615378     A.U. after    1 cycles

 The electronic state is 1-A.
 Alpha  occ. eigenvalues --  -19.15096 -10.28586 -10.24935 -10.23261 -10.23078
 Alpha  occ. eigenvalues --  -10.22776  -1.05619  -0.93062  -0.73075  -0.64239
 Alpha  occ. eigenvalues --   -0.61942  -0.53192  -0.48990  -0.45741  -0.43411
 Alpha  occ. eigenvalues --   -0.42076  -0.40481  -0.38486  -0.30783  -0.26853
 Alpha  occ. eigenvalues --   -0.23719
 Alpha virt. eigenvalues --   -0.08191  -0.03482   0.04446   0.11008   0.11760
 Alpha virt. eigenvalues --    0.13369   0.14245   0.17945   0.20938   0.22798
 Alpha virt. eigenvalues --    0.28121   0.30322   0.35506   0.40605   0.43495

 Mulliken charges:
               1
     1  O   -0.249457
     2  C    0.039441
     3  C    0.204232
     4  C   -0.152715
     5  C   -0.261191
     6  C   -0.120005
     7  H    0.101473
     8  H    0.162341
     9  H    0.133955
    10  H    0.141926
 Sum of Mulliken charges =  -0.00000

 Dipole moment (field-independent basis, Debye):
    X=             -2.2847    Y=             -0.3326    Z=             -0.0680  Tot=              2.3098
 Quadrupole moment (field-independent basis, Debye-Ang):
   XX=            -36.5730   YY=            -36.1066   ZZ=            -32.9501
   XY=              5.7943   XZ=              1.6862   YZ=             -2.5014

  Exact polarizability:  74.996  -0.667  54.113  -0.894   0.183  33.354
 Approx polarizability: 118.987 -18.546 116.888  -6.426   5.209  52.245

                      1                      2                      3
                      A                      A                      A
 Frequencies --    128.4820               188.8296               265.2497
 Red. masses --      4.0139                 5.8677                 2.2389
 Frc consts  --      0.0390                 0.1233                 0.0928
 IR Inten    --      8.8182                13.6832                 8.6784

                      4                      5                      6
                      A                      A                      A
 Frequencies --    508.1587               561.0406               609.5226
 Red. masses --      5.3914                 3.3152                 3.1079
 Frc consts  --      0.8203                 0.6148                 0.6803
 IR Inten    --      0.8186                18.7847                59.6484

                      7                      8                      9
                      A                      A                      A
 Frequencies --    684.5773               880.2374               931.9361
 Red. masses --      4.4022                 2.3480                 2.1521
 Frc consts  --      1.2155                 1.0719                 1.1012
 IR Inten    --     11.0914                78.6877                39.1125

                     10                     11                     12
                      A                      A                      A
 Frequencies --   1014.4266              1024.2736              1038.4738
 Red. masses --      1.6074                 1.8394                 1.5299
 Frc consts  --      0.9746                 1.1370                 0.9721
 IR Inten    --     18.7426                 2.0794                 1.3944

                     13                     14                     15
                      A                      A                      A
 Frequencies --   1100.1090              1162.9439              1286.3416
 Red. masses --      1.2873                 1.8812                 2.1277
 Frc consts  --      0.9179                 1.4990                 2.0743
 IR Inten    --      6.2002                 2.1131                 8.4665

                     16                     17                     18
                      A                      A                      A
 Frequencies --   1298.2551              1413.8822              1485.9114
 Red. masses --      2.5040                 1.2296                 1.1636
 Frc consts  --      2.4866                 1.4482                 1.5137
 IR Inten    --      4.1689                 2.3861                 2.3458

                     19                     20                     21
                      A                      A                      A
 Frequencies --   1592.7760              1786.7036              2931.3210
 Red. masses --      8.9343                10.3151                 1.0843
 Frc consts  --     13.3542                19.4012                 5.4896
 IR Inten    --     48.1671               209.7142                86.0752

                     22                     23                     24
                      A                      A                      A
 Frequencies --   3099.4156              3110.9885              3182.6420
 Red. masses --      1.0828                 1.0648                 1.1117
 Frc consts  --      6.1283                 6.0719                 6.6345
 IR Inten    --     13.9648                13.2772                 8.8794

 - Thermochemistry -
 -------------------
 Temperature   298.150 Kelvin.  Pressure   1.00000 Atm.
 Atom     1 has atomic number  8 and mass  15.99491

 Molecular mass:    80.02621 amu.
 Principal axes and moments of inertia in atomic units:
                           1         2         3
     Eigenvalues --   127.42653 753.23973 843.88352
           X            0.99959   0.02773   0.00691
           Y           -0.02736   0.99842  -0.04915
           Z           -0.00826   0.04894   0.99877
 This molecule is an asymmetric top.
 Rotational symmetry number  1.
 Rotational temperatures (Kelvin)      0.67972     0.11499     0.10264
 Rotational constants (GHZ):          14.16299     2.39597     2.13861
 Zero-point vibrational energy     187134.8 (Joules/Mol)
                                   44.72629 (Kcal/Mol)
 Warning -- explicit consideration of   6 degrees of freedom as
           vibrations may cause significant error
 Vibrational temperatures:    184.86   271.68   381.64   731.13   807.21
          (Kelvin)            876.97   984.95  1266.47  1340.85  1459.53
                             1473.70  1494.13  1582.81  1673.22  1850.76
                             1867.90  2034.26  2137.90  2291.65  2570.67
                             4217.52  4459.37  4476.02  4579.11

 Zero-point correction=                           0.071276 (Hartree/Particle)
 Thermal correction to Energy=                    0.076799
 Thermal correction to Enthalpy=                  0.077743
 Thermal correction to Gibbs Free Energy=         0.042375
 Sum of electronic and zero-point Energies=           -267.934339
 Sum of electronic and thermal Energies=              -267.928816
 Sum of electronic and thermal Enthalpies=            -267.927872
 Sum of electronic and thermal Free Energies=         -267.963240

                     E (Thermal)             CV                S
                      KCal/Mol        Cal/Mol-Kelvin    Cal/Mol-Kelvin
 Total                   48.192             18.807             74.438
 Electronic               0.000              0.000              0.000
 Translational            0.889              2.981             39.054
 Rotational               0.889              2.981             25.896
 Vibrational             46.415             12.845              9.488
 Vibration     1          0.611              1.925              2.969
 Vibration     2          0.633              1.855              2.239
 Vibration     3          0.671              1.737              1.627
 Vibration     4          0.863              1.232              0.638
 Vibration     5          0.917              1.116              0.522
 Vibration     6          0.968              1.012              0.434

 Optimization completed.
    -- Stationary point found.
 Normal termination of Gaussian 16 at Thu Aug  4 06:16:27 2022.
