 Gaussian 16, Revision A.03,
 Gaussian 16:  ES64L-G16RevA.03 25-Dec-2016

 -----------------------------
 # opt freq b3lyp/6-31g(2df,p)
 -----------------------------

 -------------------
 Title Card Required
 -------------------
 Symbolic Z-matrix:
 Charge =  0 Multiplicity = 1

 SCF Done:  E(RB3LYP) =  -439.109880522     A.U. after   14 cycles
 SCF Done:  E(RB3LYP) =  -439.151604917     A.U. after   12 cycles
 SCF Done:  E(RB3LYP) =  -439.180734688     A.U. after   13 cycles
 SCF Done:  E(RB3LYP) =  -439.184522217     A.U. after   12 cycles
 SCF Done:  E(RB3LYP) =  -439.185138165     A.U. after   12 cycles
 SCF Done:  E(RB3LYP) =  -439.184974885     A.U. after   13 cycles
 SCF Done:  E(RB3LYP) =  -439.186155556     A.U. after   11 cycles
 SCF Done:  E(RB3LYP) =  -439.186211551     A.U. after   11 cycles
 SCF Done:  E(RB3LYP) =  -439.186230500     A.U. after   11 cycles
 SCF Done:  E(RB3LYP) =  -439.186233990     A.U. after    9 cycles
 SCF Done:  E(RB3LYP) =  -439.186235097     A.U. after    8 cycles
 SCF Done:  E(RB3LYP) =  -439.186235285     A.U. after    7 cycles
 Optimization completed.
    -- Stationary point found.
 Normal termination of Gaussian 16 at Thu Aug  4 11:50:45 2022.

 ----------------------------------------------------------------------
 #N Geom=AllCheck Guess=TCheck SCRF=Check GenChk RB3LYP/6-31G(2df,p) Fr
 eq
 ----------------------------------------------------------------------

 Structure from the checkpoint file:  "OdCC1C2CNpCOpC12.chk"
 -------------------
 Title Card Required
 -------------------
 Charge =  0 Multiplicity = 1

                         Standard orientation:
 ---------------------------------------------------------------------
 Center     Atomic      Atomic             Coordinates (Angstroms)
 Number     Number       Type             X           Y           Z
 ---------------------------------------------------------------------
      1          8           0        3.027894   -0.648110   -0.491972
      2          6           0        2.334293   -0.731599    0.498112
      3          6           0        1.035215   -0.049336    0.661977
      4          6           0        0.796611    1.174944   -0.206693
      5          6           0       -0.596869    1.734347    0.097599
      6          7           0       -1.190190    0.441666   -0.358506
      7          6           0       -2.141660   -0.267630    0.469062
      8          8           0       -2.646114   -1.385684   -0.215328
      9          6           0        0.132157   -0.108541   -0.592364
     10          1           0        2.639159   -1.368663    1.357249
     11          1           0        0.578398   -0.113532    1.645878
     12          1           0        1.621264    1.681529   -0.687459
     13          1           0       -0.900640    2.567463   -0.543360
     14          1           0       -0.788095    1.996411    1.145830
     15          1           0       -2.928559    0.453090    0.744883
     16          1           0       -1.706882   -0.671541    1.398022
     17          1           0       -2.947538   -1.066765   -1.074495
     18          1           0        0.351515   -0.812414   -1.384763
 ---------------------------------------------------------------------

 SCF Done:  E(RB3LYP) =  -439.186235285     A.U. after    1 cycles

 The electronic state is 1-A.
 Alpha  occ. eigenvalues --  -19.14252 -19.13081 -14.33926 -10.26797 -10.25853
 Alpha  occ. eigenvalues --  -10.23610 -10.23046 -10.21235 -10.20678  -1.03895
 Alpha  occ. eigenvalues --   -1.03478  -0.97238  -0.82758  -0.72642  -0.67772
 Alpha  occ. eigenvalues --   -0.64667  -0.56394  -0.55737  -0.54170  -0.50323
 Alpha  occ. eigenvalues --   -0.48835  -0.47033  -0.45108  -0.42707  -0.41851
 Alpha  occ. eigenvalues --   -0.40295  -0.39339  -0.36560  -0.34466  -0.32324
 Alpha  occ. eigenvalues --   -0.30131  -0.27858  -0.25304  -0.22998
 Alpha virt. eigenvalues --   -0.02359   0.07474   0.08917   0.09956   0.10511
 Alpha virt. eigenvalues --    0.12510   0.13145   0.15145   0.15363   0.16334
 Alpha virt. eigenvalues --    0.17376   0.17712   0.19542   0.21001   0.22363

 Mulliken charges:
               1
     1  O   -0.278004
     2  C    0.122824
     3  C   -0.146064
     4  C   -0.073243
     5  C   -0.211671
     6  N   -0.100006
     7  C   -0.024114
     8  O   -0.405267
     9  C    0.002520
    10  H    0.077127
    11  H    0.092531
    12  H    0.122483
    13  H    0.122089
    14  H    0.108224
    15  H    0.091086
    16  H    0.094644
    17  H    0.281289
    18  H    0.123552
 Sum of Mulliken charges =  -0.00000

 Dipole moment (field-independent basis, Debye):
    X=             -1.8758    Y=              1.9285    Z=              1.2478  Tot=              2.9655
 Quadrupole moment (field-independent basis, Debye-Ang):
   XX=            -60.9550   YY=            -52.9833   ZZ=            -49.9487
   XY=             -1.8657   XZ=              5.4829   YZ=             -0.0339

  Exact polarizability:  92.408  -6.848  70.763   0.435  -2.504  65.150
 Approx polarizability: 126.856  -7.937 104.791  -1.723  -2.998 106.477

                      1                      2                      3
                      A                      A                      A
 Frequencies --     71.3506               102.2958               159.1137
 Red. masses --      5.7342                 4.2140                 2.9807
 Frc consts  --      0.0172                 0.0260                 0.0445
 IR Inten    --      1.0859                12.9256                 3.3438

                      4                      5                      6
                      A                      A                      A
 Frequencies --    197.8668               220.7520               255.0118
 Red. masses --      3.5711                 2.5510                 3.0936
 Frc consts  --      0.0824                 0.0732                 0.1185
 IR Inten    --      5.0551                 0.7549                 6.3959

                      7                      8                      9
                      A                      A                      A
 Frequencies --    345.8624               378.9808               458.9252
 Red. masses --      2.0929                 1.3521                 3.7099
 Frc consts  --      0.1475                 0.1144                 0.4604
 IR Inten    --     16.3337                97.6015                 7.4904

                     10                     11                     12
                      A                      A                      A
 Frequencies --    506.1321               685.2224               714.1912
 Red. masses --      2.7442                 4.5467                 4.1004
 Frc consts  --      0.4142                 1.2578                 1.2323
 IR Inten    --     42.2980                 2.3283                14.2920

                     13                     14                     15
                      A                      A                      A
 Frequencies --    809.5591               854.8155               887.6629
 Red. masses --      3.6032                 2.7138                 1.2522
 Frc consts  --      1.3913                 1.1683                 0.5813
 IR Inten    --     43.5782                20.3561                11.0077

                     16                     17                     18
                      A                      A                      A
 Frequencies --    889.4649               976.2621               991.0469
 Red. masses --      3.0865                 2.0305                 2.0183
 Frc consts  --      1.4387                 1.1402                 1.1679
 IR Inten    --     50.7495                 4.5497                27.0927

                     19                     20                     21
                      A                      A                      A
 Frequencies --   1026.3203              1040.0418              1054.6383
 Red. masses --      2.0792                 1.2979                 1.8040
 Frc consts  --      1.2903                 0.8272                 1.1822
 IR Inten    --     73.2794                29.6976                27.2099

                     22                     23                     24
                      A                      A                      A
 Frequencies --   1071.1562              1072.6342              1091.8548
 Red. masses --      2.0369                 1.7417                 2.2243
 Frc consts  --      1.3770                 1.1807                 1.5623
 IR Inten    --      6.1157                15.4149                71.9870

                     25                     26                     27
                      A                      A                      A
 Frequencies --   1132.4409              1159.8410              1181.7975
 Red. masses --      1.9928                 1.4868                 1.8061
 Frc consts  --      1.5057                 1.1784                 1.4862
 IR Inten    --     31.5339                13.4744                20.3220

                     28                     29                     30
                      A                      A                      A
 Frequencies --   1230.6575              1253.9081              1266.4336
 Red. masses --      1.8806                 1.4410                 1.4889
 Frc consts  --      1.6782                 1.3349                 1.4070
 IR Inten    --     18.9714                39.9146                18.7592

                     31                     32                     33
                      A                      A                      A
 Frequencies --   1273.8618              1321.0425              1385.1962
 Red. masses --      1.9383                 1.6715                 2.2797
 Frc consts  --      1.8532                 1.7187                 2.5772
 IR Inten    --     29.9334                 4.7458                89.0475

                     34                     35                     36
                      A                      A                      A
 Frequencies --   1389.0707              1428.3304              1443.2285
 Red. masses --      1.3784                 1.2400                 1.2410
 Frc consts  --      1.5670                 1.4905                 1.5230
 IR Inten    --     33.7240                 7.2763                85.6281

                     37                     38                     39
                      A                      A                      A
 Frequencies --   1504.0241              1521.4397              1790.9837
 Red. masses --      1.1023                 1.0930                 9.2155
 Frc consts  --      1.4692                 1.4907                17.4161
 IR Inten    --      2.3582                 0.1761               193.5869

                     40                     41                     42
                      A                      A                      A
 Frequencies --   2887.9867              2961.1353              2993.5155
 Red. masses --      1.0832                 1.0533                 1.1081
 Frc consts  --      5.3230                 5.4414                 5.8503
 IR Inten    --    139.5081                59.8508                48.9111

                     43                     44                     45
                      A                      A                      A
 Frequencies --   3022.4346              3080.0791              3145.1144
 Red. masses --      1.0600                 1.1058                 1.0893
 Frc consts  --      5.7053                 6.1810                 6.3486
 IR Inten    --     59.1351                24.9301                12.9312

                     46                     47                     48
                      A                      A                      A
 Frequencies --   3200.8689              3224.4500              3789.9978
 Red. masses --      1.0913                 1.0956                 1.0651
 Frc consts  --      6.5875                 6.7113                 9.0141
 IR Inten    --      5.6158                 3.0947                19.3804

 - Thermochemistry -
 -------------------
 Temperature   298.150 Kelvin.  Pressure   1.00000 Atm.
 Atom     1 has atomic number  8 and mass  15.99491

 Molecular mass:   127.06333 amu.
 Principal axes and moments of inertia in atomic units:
                           1         2         3
     Eigenvalues --   544.489391749.952802048.92030
           X            0.99998  -0.00654   0.00246
           Y            0.00656   0.99995  -0.00694
           Z           -0.00242   0.00696   0.99997
 This molecule is an asymmetric top.
 Rotational symmetry number  1.
 Warning -- assumption of classical behavior for rotation
           may cause significant error
 Rotational temperatures (Kelvin)      0.15907     0.04950     0.04227
 Rotational constants (GHZ):           3.31456     1.03131     0.88083
 Zero-point vibrational energy     385490.6 (Joules/Mol)
                                   92.13447 (Kcal/Mol)
 Warning -- explicit consideration of  10 degrees of freedom as
           vibrations may cause significant error
 Vibrational temperatures:    102.66   147.18   228.93   284.69   317.61
          (Kelvin)            366.91   497.62   545.27   660.29   728.21
                              985.88  1027.56  1164.78  1229.89  1277.15
                             1279.74  1404.62  1425.90  1476.65  1496.39
                             1517.39  1541.15  1543.28  1570.94  1629.33
                             1668.75  1700.34  1770.64  1804.09  1822.12
                             1832.80  1900.69  1992.99  1998.56  2055.05
                             2076.48  2163.96  2189.01  2576.83  4155.17
                             4260.41  4307.00  4348.61  4431.55  4525.12
                             4605.34  4639.26  5452.96

 Zero-point correction=                           0.146826 (Hartree/Particle)
 Thermal correction to Energy=                    0.155447
 Thermal correction to Enthalpy=                  0.156391
 Thermal correction to Gibbs Free Energy=         0.112996
 Sum of electronic and zero-point Energies=           -439.039410
 Sum of electronic and thermal Energies=              -439.030788
 Sum of electronic and thermal Enthalpies=            -439.029844
 Sum of electronic and thermal Free Energies=         -439.073239

                     E (Thermal)             CV                S
                      KCal/Mol        Cal/Mol-Kelvin    Cal/Mol-Kelvin
 Total                   97.545             31.542             91.333
 Electronic               0.000              0.000              0.000
 Translational            0.889              2.981             40.432
 Rotational               0.889              2.981             29.058
 Vibrational             95.767             25.580             21.843
 Vibration     1          0.598              1.968              4.116
 Vibration     2          0.604              1.947              3.410
 Vibration     3          0.621              1.892              2.560
 Vibration     4          0.637              1.843              2.153
 Vibration     5          0.647              1.809              1.953
 Vibration     6          0.665              1.754              1.696
 Vibration     7          0.724              1.584              1.185
 Vibration     8          0.749              1.515              1.043
 Vibration     9          0.817              1.341              0.769
 Vibration    10          0.861              1.236              0.643

                           ! Non-Optimized Parameters !
 Normal termination of Gaussian 16 at Thu Aug  4 12:16:51 2022.
