 Gaussian 16, Revision A.03,
 Gaussian 16:  ES64L-G16RevA.03 25-Dec-2016

 -----------------------------
 # opt freq b3lyp/6-31g(2df,p)
 -----------------------------

 -------------------
 Title Card Required
 -------------------
 Symbolic Z-matrix:
 Charge =  0 Multiplicity = 1

 SCF Done:  E(RB3LYP) =  -403.297899956     A.U. after   13 cycles
 SCF Done:  E(RB3LYP) =  -403.309294634     A.U. after   13 cycles
 SCF Done:  E(RB3LYP) =  -403.311537274     A.U. after   12 cycles
 SCF Done:  E(RB3LYP) =  -403.312585857     A.U. after   13 cycles
 SCF Done:  E(RB3LYP) =  -403.314541825     A.U. after   13 cycles
 SCF Done:  E(RB3LYP) =  -403.315511341     A.U. after   12 cycles
 SCF Done:  E(RB3LYP) =  -403.317666910     A.U. after   14 cycles
 SCF Done:  E(RB3LYP) =  -403.316593158     A.U. after   14 cycles
 SCF Done:  E(RB3LYP) =  -403.319091235     A.U. after   11 cycles
 SCF Done:  E(RB3LYP) =  -403.319267518     A.U. after   11 cycles
 SCF Done:  E(RB3LYP) =  -403.319305372     A.U. after   10 cycles
 SCF Done:  E(RB3LYP) =  -403.319307395     A.U. after    8 cycles
 SCF Done:  E(RB3LYP) =  -403.319307737     A.U. after    7 cycles
 Optimization completed.
    -- Stationary point found.
 Normal termination of Gaussian 16 at Thu Aug  4 05:57:05 2022.

 ----------------------------------------------------------------------
 #N Geom=AllCheck Guess=TCheck SCRF=Check GenChk RB3LYP/6-31G(2df,p) Fr
 eq
 ----------------------------------------------------------------------

 Structure from the checkpoint file:  "OdCC1CCC2NCC12.chk"
 -------------------
 Title Card Required
 -------------------
 Charge =  0 Multiplicity = 1

                         Standard orientation:
 ---------------------------------------------------------------------
 Center     Atomic      Atomic             Coordinates (Angstroms)
 Number     Number       Type             X           Y           Z
 ---------------------------------------------------------------------
      1          8           0        2.733992   -0.793739   -0.486715
      2          6           0        2.233376   -0.064765    0.332938
      3          6           0        0.754698    0.199733    0.476992
      4          6           0        0.400081    1.673719    0.116244
      5          6           0       -1.128862    1.655714   -0.106673
      6          6           0       -1.440980    0.222827   -0.590768
      7          7           0       -2.111407   -0.654711    0.408056
      8          6           0       -1.060076   -1.690429    0.256112
      9          6           0       -0.156018   -0.639043   -0.428787
     10          1           0        2.872171    0.500696    1.051093
     11          1           0        0.496549    0.045760    1.534451
     12          1           0        0.910838    1.946391   -0.815559
     13          1           0        0.718405    2.387315    0.881229
     14          1           0       -1.441155    2.427931   -0.815668
     15          1           0       -1.659095    1.827000    0.834527
     16          1           0       -1.894795    0.195451   -1.588693
     17          1           0       -3.050488   -0.951635    0.167628
     18          1           0       -1.323090   -2.511074   -0.424531
     19          1           0       -0.709685   -2.122846    1.201285
     20          1           0        0.374949   -0.958642   -1.324781
 ---------------------------------------------------------------------

 SCF Done:  E(RB3LYP) =  -403.319307737     A.U. after    1 cycles

 The electronic state is 1-A.
 Alpha  occ. eigenvalues --  -19.13814 -14.30986 -10.26793 -10.20899 -10.20514
 Alpha  occ. eigenvalues --  -10.19528 -10.19331 -10.18406 -10.17923  -1.04433
 Alpha  occ. eigenvalues --   -0.92733  -0.81770  -0.73715  -0.69729  -0.65440
 Alpha  occ. eigenvalues --   -0.60291  -0.56707  -0.53486  -0.51143  -0.47513
 Alpha  occ. eigenvalues --   -0.47027  -0.43902  -0.43317  -0.42387  -0.39519
 Alpha  occ. eigenvalues --   -0.38848  -0.35341  -0.34626  -0.33840  -0.32912
 Alpha  occ. eigenvalues --   -0.32215  -0.30247  -0.24894  -0.22487
 Alpha virt. eigenvalues --   -0.01868   0.07214   0.08700   0.10699   0.11136
 Alpha virt. eigenvalues --    0.13485   0.13764   0.15730   0.16020   0.16848
 Alpha virt. eigenvalues --    0.17724   0.18236   0.19583   0.20254   0.21334

 Mulliken charges:
               1
     1  O   -0.247353
     2  C    0.138790
     3  C   -0.087213
     4  C   -0.223472
     5  C   -0.220168
     6  C    0.013917
     7  N   -0.317052
     8  C   -0.185680
     9  C   -0.022361
    10  H    0.074317
    11  H    0.098649
    12  H    0.110256
    13  H    0.104779
    14  H    0.095594
    15  H    0.111181
    16  H    0.060265
    17  H    0.215055
    18  H    0.092775
    19  H    0.095935
    20  H    0.091789
 Sum of Mulliken charges =  -0.00000

 Dipole moment (field-independent basis, Debye):
    X=             -1.7650    Y=              1.0568    Z=              0.3092  Tot=              2.0803
 Quadrupole moment (field-independent basis, Debye-Ang):
   XX=            -58.1748   YY=            -52.9857   ZZ=            -53.8968
   XY=              5.1773   XZ=              6.1365   YZ=             -0.5861

  Exact polarizability:  86.825   0.148  82.152   2.224   2.011  67.953
 Approx polarizability: 116.230  -4.657 115.868  -2.701   6.312 110.386

                      1                      2                      3
                      A                      A                      A
 Frequencies --     64.3106               100.5966               137.5539
 Red. masses --      4.8292                 2.6356                 2.0851
 Frc consts  --      0.0118                 0.0157                 0.0232
 IR Inten    --      5.0245                 4.9975                 0.4837

                      4                      5                      6
                      A                      A                      A
 Frequencies --    197.4269               273.9128               375.8168
 Red. masses --      4.3297                 2.2566                 3.0104
 Frc consts  --      0.0994                 0.0998                 0.2505
 IR Inten    --      7.9801                 2.3168                 1.0305

                      7                      8                      9
                      A                      A                      A
 Frequencies --    406.9511               511.7395               617.5309
 Red. masses --      2.4198                 2.6098                 3.5205
 Frc consts  --      0.2361                 0.4027                 0.7910
 IR Inten    --      4.5593                 1.0515                28.0060

                     10                     11                     12
                      A                      A                      A
 Frequencies --    659.1418               685.9918               786.7760
 Red. masses --      2.6233                 2.5377                 2.4541
 Frc consts  --      0.6715                 0.7036                 0.8951
 IR Inten    --     23.4978                25.7527                21.5274

                     13                     14                     15
                      A                      A                      A
 Frequencies --    815.3601               840.4469               888.0907
 Red. masses --      2.0288                 1.7826                 1.9416
 Frc consts  --      0.7947                 0.7419                 0.9022
 IR Inten    --      6.8850                 2.5796                 7.0972

                     16                     17                     18
                      A                      A                      A
 Frequencies --    923.7683               955.0830               977.3955
 Red. masses --      2.0259                 1.7196                 2.1729
 Frc consts  --      1.0186                 0.9242                 1.2230
 IR Inten    --      2.9303                10.9573                 1.6525

                     19                     20                     21
                      A                      A                      A
 Frequencies --    982.1464               995.5457              1032.4808
 Red. masses --      1.9748                 2.1496                 2.2399
 Frc consts  --      1.1223                 1.2553                 1.4069
 IR Inten    --      1.3047                 0.6118                21.3065

                     22                     23                     24
                      A                      A                      A
 Frequencies --   1039.0233              1081.8202              1094.0690
 Red. masses --      2.5496                 2.1578                 1.6925
 Frc consts  --      1.6217                 1.4879                 1.1936
 IR Inten    --      5.4953                 5.8123                 2.4136

                     25                     26                     27
                      A                      A                      A
 Frequencies --   1129.3296              1162.3735              1173.8725
 Red. masses --      2.0247                 1.3664                 1.8626
 Frc consts  --      1.5214                 1.0877                 1.5122
 IR Inten    --      6.2246                 6.1714                 3.8514

                     28                     29                     30
                      A                      A                      A
 Frequencies --   1181.7414              1221.1940              1258.3989
 Red. masses --      1.4827                 1.3045                 1.3818
 Frc consts  --      1.2200                 1.1463                 1.2892
 IR Inten    --      7.1613                 4.1175                 1.2806

                     31                     32                     33
                      A                      A                      A
 Frequencies --   1282.3461              1284.6331              1307.7932
 Red. masses --      1.4055                 1.3430                 1.4204
 Frc consts  --      1.3617                 1.3058                 1.4313
 IR Inten    --      3.1518                 7.3377                 8.7899

                     34                     35                     36
                      A                      A                      A
 Frequencies --   1323.8402              1336.4498              1360.3778
 Red. masses --      1.4279                 1.2438                 1.4726
 Frc consts  --      1.4744                 1.3089                 1.6057
 IR Inten    --      2.4599                 1.8635                14.7110

                     37                     38                     39
                      A                      A                      A
 Frequencies --   1384.0959              1392.4423              1429.3685
 Red. masses --      1.4733                 1.5115                 1.2139
 Frc consts  --      1.6629                 1.7267                 1.4613
 IR Inten    --      3.0096                10.7420                 8.6387

                     40                     41                     42
                      A                      A                      A
 Frequencies --   1481.3986              1498.7617              1521.3943
 Red. masses --      1.0833                 1.0977                 1.1020
 Frc consts  --      1.4006                 1.4528                 1.5028
 IR Inten    --      2.9053                 2.2960                 1.3036

                     43                     44                     45
                      A                      A                      A
 Frequencies --   1823.5098              2857.9590              3003.3151
 Red. masses --     10.3589                 1.0821                 1.0578
 Frc consts  --     20.2946                 5.2074                 5.6215
 IR Inten    --    155.5674               140.0718                76.8002

                     46                     47                     48
                      A                      A                      A
 Frequencies --   3010.9269              3021.9059              3032.7493
 Red. masses --      1.0817                 1.0853                 1.0653
 Frc consts  --      5.7776                 5.8395                 5.7729
 IR Inten    --     11.3263                48.8174                24.9883

                     49                     50                     51
                      A                      A                      A
 Frequencies --   3045.5668              3054.3199              3089.2017
 Red. masses --      1.1073                 1.0611                 1.0986
 Frc consts  --      6.0511                 5.8320                 6.1769
 IR Inten    --     41.4198                33.7922                21.9380

                     52                     53                     54
                      A                      A                      A
 Frequencies --   3105.6819              3121.2449              3530.0691
 Red. masses --      1.1055                 1.0871                 1.0760
 Frc consts  --      6.2822                 6.2400                 7.9004
 IR Inten    --     30.4962                13.6858                 1.3337

 - Thermochemistry -
 -------------------
 Temperature   298.150 Kelvin.  Pressure   1.00000 Atm.
 Atom     1 has atomic number  8 and mass  15.99491

 Molecular mass:   125.08406 amu.
 Principal axes and moments of inertia in atomic units:
                           1         2         3
     Eigenvalues --   658.682631302.382501747.79678
           X            0.99943   0.02918   0.01675
           Y           -0.02919   0.99957   0.00064
           Z           -0.01673  -0.00112   0.99986
 This molecule is an asymmetric top.
 Rotational symmetry number  1.
 Warning -- assumption of classical behavior for rotation
           may cause significant error
 Rotational temperatures (Kelvin)      0.13150     0.06650     0.04956
 Rotational constants (GHZ):           2.73993     1.38572     1.03258
 Zero-point vibrational energy     453798.8 (Joules/Mol)
                                  108.46052 (Kcal/Mol)
 Warning -- explicit consideration of   9 degrees of freedom as
           vibrations may cause significant error
 Vibrational temperatures:     92.53   144.74   197.91   284.05   394.10
          (Kelvin)            540.72   585.51   736.28   888.49   948.36
                              986.99  1132.00  1173.12  1209.22  1277.76
                             1329.10  1374.15  1406.25  1413.09  1432.37
                             1485.51  1494.92  1556.50  1574.12  1624.85
                             1672.40  1688.94  1700.26  1757.03  1810.56
                             1845.01  1848.30  1881.62  1904.71  1922.85
                             1957.28  1991.41  2003.41  2056.54  2131.40
                             2156.38  2188.95  2623.62  4111.97  4321.10
                             4332.05  4347.85  4363.45  4381.89  4394.49
                             4444.67  4468.38  4490.78  5078.98

 Zero-point correction=                           0.172843 (Hartree/Particle)
 Thermal correction to Energy=                    0.180965
 Thermal correction to Enthalpy=                  0.181909
 Thermal correction to Gibbs Free Energy=         0.139473
 Sum of electronic and zero-point Energies=           -403.146465
 Sum of electronic and thermal Energies=              -403.138343
 Sum of electronic and thermal Enthalpies=            -403.137399
 Sum of electronic and thermal Free Energies=         -403.179834

                     E (Thermal)             CV                S
                      KCal/Mol        Cal/Mol-Kelvin    Cal/Mol-Kelvin
 Total                  113.557             30.764             89.313
 Electronic               0.000              0.000              0.000
 Translational            0.889              2.981             40.385
 Rotational               0.889              2.981             28.796
 Vibrational            111.780             24.802             20.132
 Vibration     1          0.597              1.971              4.320
 Vibration     2          0.604              1.949              3.443
 Vibration     3          0.614              1.916              2.838
 Vibration     4          0.637              1.843              2.157
 Vibration     5          0.676              1.721              1.571
 Vibration     6          0.747              1.522              1.056
 Vibration     7          0.772              1.455              0.937
 Vibration     8          0.867              1.224              0.629
 Vibration     9          0.977              0.995              0.420

                           ! Non-Optimized Parameters !
 Normal termination of Gaussian 16 at Thu Aug  4 06:32:10 2022.
