 Gaussian 16, Revision A.03,
 Gaussian 16:  ES64L-G16RevA.03 25-Dec-2016

 -----------------------------
 # opt freq b3lyp/6-31g(2df,p)
 -----------------------------

 -------------------
 Title Card Required
 -------------------
 Symbolic Z-matrix:
 Charge =  0 Multiplicity = 1

 SCF Done:  E(RB3LYP) =  -382.258409096     A.U. after   21 cycles
 SCF Done:  E(RB3LYP) =  -382.337175677     A.U. after   16 cycles
 SCF Done:  E(RB3LYP) =  -382.441460499     A.U. after   19 cycles
 SCF Done:  E(RB3LYP) =  -382.484903095     A.U. after   21 cycles
 SCF Done:  E(RB3LYP) =  -382.545904414     A.U. after   57 cycles
 SCF Done:  E(RB3LYP) =  -382.573247127     A.U. after   15 cycles
 SCF Done:  E(RB3LYP) =  -382.617652016     A.U. after   14 cycles
 SCF Done:  E(RB3LYP) =  -382.644553554     A.U. after   14 cycles
 SCF Done:  E(RB3LYP) =  -382.658617883     A.U. after   14 cycles
 SCF Done:  E(RB3LYP) =  -382.660383372     A.U. after   12 cycles
 SCF Done:  E(RB3LYP) =  -382.662829075     A.U. after   13 cycles
 SCF Done:  E(RB3LYP) =  -382.662984481     A.U. after   11 cycles
 SCF Done:  E(RB3LYP) =  -382.663188471     A.U. after   11 cycles
 SCF Done:  E(RB3LYP) =  -382.663568739     A.U. after   13 cycles
 SCF Done:  E(RB3LYP) =  -382.663775535     A.U. after   13 cycles
 SCF Done:  E(RB3LYP) =  -382.663846368     A.U. after   10 cycles
 SCF Done:  E(RB3LYP) =  -382.663863398     A.U. after   10 cycles
 SCF Done:  E(RB3LYP) =  -382.663864111     A.U. after    9 cycles
 SCF Done:  E(RB3LYP) =  -382.663864343     A.U. after    8 cycles
 Optimization completed.
    -- Stationary point found.
 Normal termination of Gaussian 16 at Thu Aug  4 06:49:35 2022.

 ----------------------------------------------------------------------
 #N Geom=AllCheck Guess=TCheck SCRF=Check GenChk RB3LYP/6-31G(2df,p) Fr
 eq
 ----------------------------------------------------------------------

 Structure from the checkpoint file:  "OdCC1dCC2OCC12.chk"
 -------------------
 Title Card Required
 -------------------
 Charge =  0 Multiplicity = 1

                         Standard orientation:
 ---------------------------------------------------------------------
 Center     Atomic      Atomic             Coordinates (Angstroms)
 Number     Number       Type             X           Y           Z
 ---------------------------------------------------------------------
      1          8           0       -2.897802   -0.398479    0.143970
      2          6           0       -2.054050    0.455598    0.006977
      3          6           0       -0.594702    0.198101   -0.089074
      4          6           0        0.342836    1.310917   -0.188695
      5          6           0        1.636969    1.069789    0.069216
      6          8           0        2.134085   -0.164209    0.315140
      7          6           0        1.363297   -1.267065   -0.198816
      8          6           0       -0.112498   -1.056604   -0.033719
      9          1           0       -2.335866    1.530237   -0.065766
     10          1           0       -0.003563    2.324256   -0.347420
     11          1           0        2.396386    1.836668    0.174943
     12          1           0        1.719552   -2.148011    0.340435
     13          1           0        1.617992   -1.401631   -1.265860
     14          1           0       -0.775888   -1.904433    0.095454
 ---------------------------------------------------------------------

 SCF Done:  E(RB3LYP) =  -382.663864343     A.U. after    1 cycles

 The electronic state is 1-A.
 Alpha  occ. eigenvalues --  -19.18298 -19.13822 -10.27170 -10.25639 -10.25013
 Alpha  occ. eigenvalues --  -10.20582 -10.20472 -10.18735  -1.07699  -1.04425
 Alpha  occ. eigenvalues --   -0.83064  -0.78332  -0.69177  -0.65628  -0.59151
 Alpha  occ. eigenvalues --   -0.52765  -0.51047  -0.49810  -0.47072  -0.45818
 Alpha  occ. eigenvalues --   -0.43265  -0.42228  -0.40008  -0.38051  -0.36611
 Alpha  occ. eigenvalues --   -0.33871  -0.30420  -0.25696  -0.21477
 Alpha virt. eigenvalues --   -0.07039   0.00883   0.09134   0.10248   0.11528
 Alpha virt. eigenvalues --    0.12112   0.14196   0.14887   0.16304   0.17326
 Alpha virt. eigenvalues --    0.23021   0.24081   0.25873   0.31267   0.32609

 Mulliken charges:
               1
     1  O   -0.261599
     2  C    0.093212
     3  C    0.214081
     4  C   -0.286296
     5  C    0.084874
     6  O   -0.234425
     7  C   -0.126954
     8  C   -0.172206
     9  H    0.072808
    10  H    0.104087
    11  H    0.129991
    12  H    0.133831
    13  H    0.116295
    14  H    0.132303
 Sum of Mulliken charges =  -0.00000

 Dipole moment (field-independent basis, Debye):
    X=              2.1488    Y=              0.7159    Z=             -0.6432  Tot=              2.3545
 Quadrupole moment (field-independent basis, Debye-Ang):
   XX=            -54.5072   YY=            -39.3229   ZZ=            -46.4097
   XY=             -3.0275   XZ=             -0.1162   YZ=              0.2341

  Exact polarizability:  86.584  -2.800  77.821   0.046  -0.714  36.773
 Approx polarizability: 136.301  -3.818 127.255   3.304  -2.237  58.966

                      1                      2                      3
                      A                      A                      A
 Frequencies --     99.1490               163.4890               208.6247
 Red. masses --      5.1183                 2.4917                 4.2146
 Frc consts  --      0.0296                 0.0392                 0.1081
 IR Inten    --      6.1245                 2.7844                 3.4055

                      4                      5                      6
                      A                      A                      A
 Frequencies --    230.0050               344.8370               411.2113
 Red. masses --      2.5205                 2.7457                 7.6189
 Frc consts  --      0.0786                 0.1924                 0.7591
 IR Inten    --      4.5235                17.5037                 1.3354

                      7                      8                      9
                      A                      A                      A
 Frequencies --    579.0459               623.3886               646.7510
 Red. masses --      5.4813                 4.2242                 6.0380
 Frc consts  --      1.0828                 0.9672                 1.4880
 IR Inten    --     14.0651                 2.3425                12.8980

                     10                     11                     12
                      A                      A                      A
 Frequencies --    770.9442               801.9563               833.6510
 Red. masses --      1.2991                 2.0856                 1.8577
 Frc consts  --      0.4549                 0.7903                 0.7607
 IR Inten    --     31.5839                12.5137                15.4985

                     13                     14                     15
                      A                      A                      A
 Frequencies --    867.8928               931.3683               973.6437
 Red. masses --      3.8486                 1.3094                 2.7467
 Frc consts  --      1.7080                 0.6692                 1.5341
 IR Inten    --     10.1786                 0.4538                19.7671

                     16                     17                     18
                      A                      A                      A
 Frequencies --   1020.3167              1044.1709              1064.0233
 Red. masses --      2.2760                 1.8681                 2.1329
 Frc consts  --      1.3960                 1.2001                 1.4228
 IR Inten    --     22.9192                 0.6357                 8.6021

                     19                     20                     21
                      A                      A                      A
 Frequencies --   1113.7823              1176.6283              1253.5978
 Red. masses --      2.3847                 2.8525                 1.4470
 Frc consts  --      1.7429                 2.3268                 1.3397
 IR Inten    --     20.3772                45.7793                65.9901

                     22                     23                     24
                      A                      A                      A
 Frequencies --   1275.7069              1309.1044              1396.5699
 Red. masses --      1.1800                 1.5212                 1.3528
 Frc consts  --      1.1315                 1.5360                 1.5546
 IR Inten    --     27.7066                 4.1902                 6.7297

                     25                     26                     27
                      A                      A                      A
 Frequencies --   1431.8946              1453.5903              1493.7659
 Red. masses --      1.3516                 1.7264                 1.1219
 Frc consts  --      1.6327                 2.1492                 1.4749
 IR Inten    --      2.0680                21.9172                 3.5677

                     28                     29                     30
                      A                      A                      A
 Frequencies --   1635.5226              1680.1962              1804.9594
 Red. masses --      6.4590                 6.4993                 9.8517
 Frc consts  --     10.1795                10.8102                18.9102
 IR Inten    --    120.0051                 5.3143               152.4010

                     31                     32                     33
                      A                      A                      A
 Frequencies --   2878.7338              2933.5322              3095.0374
 Red. masses --      1.0824                 1.0727                 1.0888
 Frc consts  --      5.2852                 5.4391                 6.1452
 IR Inten    --    130.5722                67.4964                20.3393

                     34                     35                     36
                      A                      A                      A
 Frequencies --   3194.2844              3202.5141              3216.6217
 Red. masses --      1.0870                 1.0907                 1.0979
 Frc consts  --      6.5346                 6.5908                 6.6929
 IR Inten    --      2.4024                 0.4810                10.6985

 - Thermochemistry -
 -------------------
 Temperature   298.150 Kelvin.  Pressure   1.00000 Atm.
 Atom     1 has atomic number  8 and mass  15.99491

 Molecular mass:   110.03678 amu.
 Principal axes and moments of inertia in atomic units:
                           1         2         3
     Eigenvalues --   354.457801215.713471535.37188
           X            0.99988  -0.01503  -0.00299
           Y            0.01504   0.99988   0.00313
           Z            0.00295  -0.00317   0.99999
 This molecule is an asymmetric top.
 Rotational symmetry number  1.
 Rotational temperatures (Kelvin)      0.24436     0.07125     0.05641
 Rotational constants (GHZ):           5.09155     1.48451     1.17544
 Zero-point vibrational energy     282082.5 (Joules/Mol)
                                   67.41934 (Kcal/Mol)
 Warning -- explicit consideration of   7 degrees of freedom as
           vibrations may cause significant error
 Vibrational temperatures:    142.65   235.22   300.16   330.93   496.14
          (Kelvin)            591.64   833.12   896.92   930.53  1109.22
                             1153.84  1199.44  1248.70  1340.03  1400.86
                             1468.01  1502.33  1530.89  1602.48  1692.91
                             1803.65  1835.46  1883.51  2009.35  2060.18
                             2091.39  2149.20  2353.15  2417.43  2596.93
                             4141.86  4220.70  4453.07  4595.86  4607.70
                             4628.00

 Zero-point correction=                           0.107440 (Hartree/Particle)
 Thermal correction to Energy=                    0.114400
 Thermal correction to Enthalpy=                  0.115344
 Thermal correction to Gibbs Free Energy=         0.076004
 Sum of electronic and zero-point Energies=           -382.556425
 Sum of electronic and thermal Energies=              -382.549464
 Sum of electronic and thermal Enthalpies=            -382.548520
 Sum of electronic and thermal Free Energies=         -382.587860

                     E (Thermal)             CV                S
                      KCal/Mol        Cal/Mol-Kelvin    Cal/Mol-Kelvin
 Total                   71.787             25.244             82.799
 Electronic               0.000              0.000              0.000
 Translational            0.889              2.981             40.003
 Rotational               0.889              2.981             27.983
 Vibrational             70.010             19.283             14.813
 Vibration     1          0.604              1.950              3.471
 Vibration     2          0.623              1.887              2.509
 Vibration     3          0.642              1.828              2.056
 Vibration     4          0.652              1.795              1.879
 Vibration     5          0.723              1.586              1.190
 Vibration     6          0.775              1.446              0.922
 Vibration     7          0.936              1.077              0.487

                           ! Non-Optimized Parameters !
 Normal termination of Gaussian 16 at Thu Aug  4 07:07:17 2022.
