 Gaussian 16, Revision A.03,
 Gaussian 16:  ES64L-G16RevA.03 25-Dec-2016

 -----------------------------
 # opt freq b3lyp/6-31g(2df,p)
 -----------------------------

 -------------------
 Title Card Required
 -------------------
 Symbolic Z-matrix:
 Charge =  0 Multiplicity = 1

 SCF Done:  E(RB3LYP) =  -362.657643030     A.U. after   14 cycles
 SCF Done:  E(RB3LYP) =  -362.691143940     A.U. after   13 cycles
 SCF Done:  E(RB3LYP) =  -362.708687976     A.U. after   13 cycles
 SCF Done:  E(RB3LYP) =  -362.714987804     A.U. after   12 cycles
 SCF Done:  E(RB3LYP) =  -362.718835089     A.U. after   13 cycles
 SCF Done:  E(RB3LYP) =  -362.720438875     A.U. after   13 cycles
 SCF Done:  E(RB3LYP) =  -362.721409246     A.U. after   13 cycles
 SCF Done:  E(RB3LYP) =  -362.722343081     A.U. after   13 cycles
 SCF Done:  E(RB3LYP) =  -362.722663890     A.U. after   13 cycles
 SCF Done:  E(RB3LYP) =  -362.723113684     A.U. after   13 cycles
 SCF Done:  E(RB3LYP) =  -362.723198421     A.U. after   12 cycles
 SCF Done:  E(RB3LYP) =  -362.723227739     A.U. after    9 cycles
 SCF Done:  E(RB3LYP) =  -362.723232561     A.U. after    9 cycles
 SCF Done:  E(RB3LYP) =  -362.723233694     A.U. after    9 cycles
 SCF Done:  E(RB3LYP) =  -362.723234007     A.U. after    7 cycles
 Optimization completed.
    -- Stationary point found.
 Normal termination of Gaussian 16 at Sun Jul  3 09:53:41 2022.

 ----------------------------------------------------------------------
 #N Geom=AllCheck Guess=TCheck SCRF=Check GenChk RB3LYP/6-31G(2df,p) Fr
 eq
 ----------------------------------------------------------------------

 Structure from the checkpoint file:  "OdCC12CC3NC1C32.chk"
 -------------------
 Title Card Required
 -------------------
 Charge =  0 Multiplicity = 1

                         Standard orientation:
 ---------------------------------------------------------------------
 Center     Atomic      Atomic             Coordinates (Angstroms)
 Number     Number       Type             X           Y           Z
 ---------------------------------------------------------------------
      1          8           0        2.619878   -0.405150    0.097480
      2          6           0        1.831694    0.444041   -0.264261
      3          6           0        0.387528    0.353333   -0.076838
      4          6           0       -0.726549    1.390487   -0.161592
      5          6           0       -1.640855    0.289786    0.457721
      6          7           0       -1.744067   -0.790946   -0.570624
      7          6           0       -0.341784   -1.051733   -0.325246
      8          6           0       -0.351887   -0.431544    1.009864
      9          1           0        2.179700    1.360533   -0.793993
     10          1           0       -1.024923    1.791552   -1.137777
     11          1           0       -0.559941    2.212161    0.540225
     12          1           0       -2.545438    0.538605    1.008080
     13          1           0       -1.961510   -0.446163   -1.507288
     14          1           0        0.224290   -1.887582   -0.713599
     15          1           0       -0.011613   -0.757500    1.980989
 ---------------------------------------------------------------------

 SCF Done:  E(RB3LYP) =  -362.723234007     A.U. after    1 cycles

 The electronic state is 1-A.
 Alpha  occ. eigenvalues --  -19.12424 -14.33680 -10.26308 -10.23916 -10.23788
 Alpha  occ. eigenvalues --  -10.21119 -10.20755 -10.20277  -1.03181  -0.99348
 Alpha  occ. eigenvalues --   -0.82306  -0.73794  -0.68866  -0.62204  -0.56098
 Alpha  occ. eigenvalues --   -0.55148  -0.53166  -0.47994  -0.46821  -0.43853
 Alpha  occ. eigenvalues --   -0.42408  -0.38679  -0.37988  -0.37393  -0.34509
 Alpha  occ. eigenvalues --   -0.31014  -0.28851  -0.24665  -0.23364
 Alpha virt. eigenvalues --   -0.02181   0.07589   0.10046   0.10747   0.11258
 Alpha virt. eigenvalues --    0.13340   0.13864   0.14525   0.15699   0.16884
 Alpha virt. eigenvalues --    0.17774   0.20441   0.21208   0.23900   0.25960

 Mulliken charges:
               1
     1  O   -0.284168
     2  C    0.018898
     3  C    0.234137
     4  C   -0.321088
     5  C   -0.028465
     6  N   -0.298307
     7  C   -0.034009
     8  C   -0.113925
     9  H    0.065764
    10  H    0.094583
    11  H    0.115553
    12  H    0.090784
    13  H    0.215046
    14  H    0.125387
    15  H    0.119811
 Sum of Mulliken charges =  -0.00000

 Dipole moment (field-independent basis, Debye):
    X=             -2.3424    Y=              1.8983    Z=             -0.5502  Tot=              3.0648
 Quadrupole moment (field-independent basis, Debye-Ang):
   XX=            -55.2242   YY=            -45.8937   ZZ=            -42.3755
   XY=             -0.2188   XZ=             -0.6200   YZ=              0.2570

  Exact polarizability:  81.923   0.337  64.019  -0.086  -2.216  56.006
 Approx polarizability: 125.603  -0.038 100.316   2.828  -3.452  89.673

                      1                      2                      3
                      A                      A                      A
 Frequencies --    116.3658               174.9958               214.9594
 Red. masses --      3.7663                 5.4238                 2.3968
 Frc consts  --      0.0300                 0.0979                 0.0653
 IR Inten    --      9.8842                 6.2509                 4.2879

                      4                      5                      6
                      A                      A                      A
 Frequencies --    422.3335               457.1434               514.0183
 Red. masses --      2.0643                 3.4227                 3.4909
 Frc consts  --      0.2169                 0.4214                 0.5434
 IR Inten    --      2.2872                 3.8817                 8.7754

                      7                      8                      9
                      A                      A                      A
 Frequencies --    622.3360               705.4563               786.4403
 Red. masses --      5.4345                 3.5090                 2.8684
 Frc consts  --      1.2401                 1.0289                 1.0453
 IR Inten    --     32.1433                44.4216                 5.9322

                     10                     11                     12
                      A                      A                      A
 Frequencies --    803.6416               858.4361               897.6825
 Red. masses --      2.4117                 2.4248                 1.3933
 Frc consts  --      0.9177                 1.0528                 0.6615
 IR Inten    --     23.7443                23.0530                28.6555

                     13                     14                     15
                      A                      A                      A
 Frequencies --    913.3507               947.9191               961.6792
 Red. masses --      2.3505                 2.3946                 1.6971
 Frc consts  --      1.1553                 1.2677                 0.9247
 IR Inten    --     14.3279                 4.3709                61.5800

                     16                     17                     18
                      A                      A                      A
 Frequencies --   1009.4133              1015.1151              1050.6626
 Red. masses --      1.5039                 3.0249                 1.9874
 Frc consts  --      0.9028                 1.8365                 1.2926
 IR Inten    --      1.3612                97.0211                48.9997

                     19                     20                     21
                      A                      A                      A
 Frequencies --   1066.2537              1093.6337              1132.2728
 Red. masses --      1.8963                 1.4123                 1.3788
 Frc consts  --      1.2702                 0.9952                 1.0415
 IR Inten    --      4.1852                11.2197                14.2431

                     22                     23                     24
                      A                      A                      A
 Frequencies --   1146.1883              1172.0093              1203.2509
 Red. masses --      1.7637                 1.6890                 1.5043
 Frc consts  --      1.3651                 1.3669                 1.2832
 IR Inten    --      5.1290                14.1063                 4.4343

                     25                     26                     27
                      A                      A                      A
 Frequencies --   1228.4088              1282.3217              1300.5335
 Red. masses --      1.8791                 1.8541                 2.3343
 Frc consts  --      1.6707                 1.7963                 2.3262
 IR Inten    --     16.1641                15.1447                11.3994

                     28                     29                     30
                      A                      A                      A
 Frequencies --   1355.1987              1390.6925              1435.7366
 Red. masses --      1.4139                 2.4356                 1.5201
 Frc consts  --      1.5300                 2.7753                 1.8461
 IR Inten    --     39.9915                22.0902                18.4070

                     31                     32                     33
                      A                      A                      A
 Frequencies --   1498.5160              1777.9509              2863.5040
 Red. masses --      1.1506                 9.8468                 1.0814
 Frc consts  --      1.5223                18.3395                 5.2245
 IR Inten    --      4.8744               231.5165               137.7975

                     34                     35                     36
                      A                      A                      A
 Frequencies --   3029.2787              3100.1867              3143.3446
 Red. masses --      1.0621                 1.1022                 1.0921
 Frc consts  --      5.7424                 6.2414                 6.3578
 IR Inten    --     49.0780                18.1546                35.6809

                     37                     38                     39
                      A                      A                      A
 Frequencies --   3217.0052              3239.3181              3429.4172
 Red. masses --      1.0919                 1.1009                 1.0739
 Frc consts  --      6.6578                 6.8061                 7.4415
 IR Inten    --      4.6133                 1.5699                 5.7002

 - Thermochemistry -
 -------------------
 Temperature   298.150 Kelvin.  Pressure   1.00000 Atm.
 Atom     1 has atomic number  8 and mass  15.99491

 Molecular mass:   109.05276 amu.
 Principal axes and moments of inertia in atomic units:
                           1         2         3
     Eigenvalues --   362.641271015.709371150.18770
           X            0.99998  -0.00617  -0.00276
           Y            0.00611   0.99971  -0.02309
           Z            0.00291   0.02307   0.99973
 This molecule is an asymmetric top.
 Rotational symmetry number  1.
 Rotational temperatures (Kelvin)      0.23884     0.08527     0.07530
 Rotational constants (GHZ):           4.97666     1.77683     1.56908
 Zero-point vibrational energy     314480.1 (Joules/Mol)
                                   75.16255 (Kcal/Mol)
 Warning -- explicit consideration of   6 degrees of freedom as
           vibrations may cause significant error
 Vibrational temperatures:    167.42   251.78   309.28   607.64   657.73
          (Kelvin)            739.56   895.40  1014.99  1131.51  1156.26
                             1235.10  1291.56  1314.11  1363.84  1383.64
                             1452.32  1460.52  1511.67  1534.10  1573.49
                             1629.09  1649.11  1686.26  1731.21  1767.41
                             1844.97  1871.18  1949.83  2000.90  2065.70
                             2156.03  2558.07  4119.94  4358.46  4460.48
                             4522.57  4628.55  4660.66  4934.17

 Zero-point correction=                           0.119779 (Hartree/Particle)
 Thermal correction to Energy=                    0.126189
 Thermal correction to Enthalpy=                  0.127134
 Thermal correction to Gibbs Free Energy=         0.089177
 Sum of electronic and zero-point Energies=           -362.603455
 Sum of electronic and thermal Energies=              -362.597045
 Sum of electronic and thermal Enthalpies=            -362.596100
 Sum of electronic and thermal Free Energies=         -362.634057

                     E (Thermal)             CV                S
                      KCal/Mol        Cal/Mol-Kelvin    Cal/Mol-Kelvin
 Total                   79.185             24.593             79.887
 Electronic               0.000              0.000              0.000
 Translational            0.889              2.981             39.976
 Rotational               0.889              2.981             27.540
 Vibrational             77.408             18.631             12.371
 Vibration     1          0.608              1.936              3.160
 Vibration     2          0.627              1.873              2.381
 Vibration     3          0.645              1.818              2.001
 Vibration     4          0.785              1.422              0.884
 Vibration     5          0.815              1.345              0.774
 Vibration     6          0.869              1.219              0.624

 Optimization completed.
    -- Stationary point found.
 Normal termination of Gaussian 16 at Sun Jul  3 10:13:23 2022.
