 Gaussian 16, Revision A.03,
 Gaussian 16:  ES64L-G16RevA.03 25-Dec-2016

 -----------------------------
 # opt freq b3lyp/6-31g(2df,p)
 -----------------------------

 -------------------
 Title Card Required
 -------------------
 Symbolic Z-matrix:
 Charge =  0 Multiplicity = 1

 SCF Done:  E(RB3LYP) =  -387.232888763     A.U. after   13 cycles
 SCF Done:  E(RB3LYP) =  -387.252857909     A.U. after   13 cycles
 SCF Done:  E(RB3LYP) =  -387.254531963     A.U. after   13 cycles
 SCF Done:  E(RB3LYP) =  -387.254770158     A.U. after   13 cycles
 SCF Done:  E(RB3LYP) =  -387.258601596     A.U. after   13 cycles
 SCF Done:  E(RB3LYP) =  -387.260047327     A.U. after   13 cycles
 SCF Done:  E(RB3LYP) =  -387.260606130     A.U. after   14 cycles
 SCF Done:  E(RB3LYP) =  -387.260762917     A.U. after   13 cycles
 SCF Done:  E(RB3LYP) =  -387.260826162     A.U. after   10 cycles
 SCF Done:  E(RB3LYP) =  -387.260839027     A.U. after    9 cycles
 SCF Done:  E(RB3LYP) =  -387.260840748     A.U. after    8 cycles
 SCF Done:  E(RB3LYP) =  -387.260840942     A.U. after    7 cycles
 Optimization completed.
    -- Stationary point found.
 Normal termination of Gaussian 16 at Thu Aug  4 00:36:57 2022.

 ----------------------------------------------------------------------
 #N Geom=AllCheck Guess=TCheck SCRF=Check GenChk RB3LYP/6-31G(2df,p) Fr
 eq
 ----------------------------------------------------------------------

 Structure from the checkpoint file:  "OdCC1CC2CCCC12.chk"
 -------------------
 Title Card Required
 -------------------
 Charge =  0 Multiplicity = 1

                         Standard orientation:
 ---------------------------------------------------------------------
 Center     Atomic      Atomic             Coordinates (Angstroms)
 Number     Number       Type             X           Y           Z
 ---------------------------------------------------------------------
      1          8           0        3.442637   -0.587863    0.049368
      2          6           0        2.398287   -0.214315   -0.421305
      3          6           0        1.171827    0.150217    0.360986
      4          6           0        0.529832    1.573812    0.091156
      5          6           0       -0.844318    0.880531    0.324162
      6          6           0       -2.230847    0.826082   -0.303023
      7          6           0       -2.562721   -0.712377   -0.110145
      8          6           0       -1.219259   -1.479225    0.240289
      9          6           0       -0.202982   -0.412269   -0.140436
     10          1           0        2.273453   -0.109119   -1.526963
     11          1           0        1.347507   -0.013799    1.426701
     12          1           0        0.683812    1.877727   -0.949564
     13          1           0        0.828418    2.386614    0.755300
     14          1           0       -0.964872    0.812274    1.415318
     15          1           0       -2.198947    1.080431   -1.367744
     16          1           0       -2.982189    1.464052    0.169624
     17          1           0       -3.011969   -1.121199   -1.018834
     18          1           0       -3.295221   -0.849049    0.689503
     19          1           0       -1.134012   -2.420805   -0.308086
     20          1           0       -1.176501   -1.709854    1.309440
     21          1           0       -0.149503   -0.369106   -1.239740
 ---------------------------------------------------------------------

 SCF Done:  E(RB3LYP) =  -387.260840942     A.U. after    1 cycles

 The electronic state is 1-A.
 Alpha  occ. eigenvalues --  -19.13449 -10.26522 -10.20233 -10.20194 -10.19199
 Alpha  occ. eigenvalues --  -10.18928 -10.18814 -10.18796 -10.18724  -1.04088
 Alpha  occ. eigenvalues --   -0.88066  -0.78992  -0.71752  -0.68056  -0.64771
 Alpha  occ. eigenvalues --   -0.58189  -0.57142  -0.55630  -0.48691  -0.46281
 Alpha  occ. eigenvalues --   -0.45556  -0.44357  -0.43414  -0.40499  -0.39013
 Alpha  occ. eigenvalues --   -0.38330  -0.37285  -0.35043  -0.33410  -0.32364
 Alpha  occ. eigenvalues --   -0.31982  -0.31549  -0.28836  -0.24262
 Alpha virt. eigenvalues --   -0.02159   0.07944   0.08269   0.10379   0.11582
 Alpha virt. eigenvalues --    0.11730   0.14038   0.14915   0.15538   0.16608
 Alpha virt. eigenvalues --    0.16925   0.17530   0.18574   0.19222   0.19984

 Mulliken charges:
               1
     1  O   -0.253776
     2  C    0.155384
     3  C   -0.134473
     4  C   -0.316855
     5  C    0.093554
     6  C   -0.285038
     7  C   -0.191889
     8  C   -0.288986
     9  C    0.076898
    10  H    0.061836
    11  H    0.093888
    12  H    0.109600
    13  H    0.111124
    14  H    0.079540
    15  H    0.099469
    16  H    0.096617
    17  H    0.106816
    18  H    0.107316
    19  H    0.099016
    20  H    0.104004
    21  H    0.075956
 Sum of Mulliken charges =  -0.00000

 Dipole moment (field-independent basis, Debye):
    X=             -2.9819    Y=              0.8274    Z=             -0.4295  Tot=              3.1242
 Quadrupole moment (field-independent basis, Debye-Ang):
   XX=            -67.3794   YY=            -54.8653   ZZ=            -52.7544
   XY=              3.6643   XZ=             -1.6731   YZ=              0.5137

  Exact polarizability: 103.719  -0.229  77.815   1.134  -0.242  73.508
 Approx polarizability: 137.949  -4.525 112.341   4.635  -0.902 118.130

                      1                      2                      3
                      A                      A                      A
 Frequencies --     66.3025               109.3397               142.6810
 Red. masses --      5.4203                 2.6331                 2.0176
 Frc consts  --      0.0140                 0.0185                 0.0242
 IR Inten    --      4.5866                 1.1189                 1.2698

                      4                      5                      6
                      A                      A                      A
 Frequencies --    233.8041               289.7405               355.1104
 Red. masses --      2.2001                 2.2259                 2.8121
 Frc consts  --      0.0709                 0.1101                 0.2089
 IR Inten    --      0.9175                 0.8626                 5.8289

                      7                      8                      9
                      A                      A                      A
 Frequencies --    403.9734               440.3496               507.5022
 Red. masses --      5.7038                 2.7786                 2.4456
 Frc consts  --      0.5484                 0.3174                 0.3711
 IR Inten    --      0.5683                 1.2286                 4.7205

                     10                     11                     12
                      A                      A                      A
 Frequencies --    610.9854               660.7039               760.2518
 Red. masses --      3.0216                 2.6763                 1.2135
 Frc consts  --      0.6646                 0.6883                 0.4132
 IR Inten    --      0.8982                 7.8263                 4.1305

                     13                     14                     15
                      A                      A                      A
 Frequencies --    784.8445               849.5097               856.3722
 Red. masses --      3.3123                 2.8893                 1.8868
 Frc consts  --      1.2021                 1.2285                 0.8153
 IR Inten    --      2.0789                 1.0812                 3.6941

                     16                     17                     18
                      A                      A                      A
 Frequencies --    888.3515               898.4746               950.6000
 Red. masses --      3.1997                 1.6122                 2.5531
 Frc consts  --      1.4877                 0.7668                 1.3593
 IR Inten    --      0.1389                 0.1569                 0.5344

                     19                     20                     21
                      A                      A                      A
 Frequencies --    985.0703              1003.8003              1042.9632
 Red. masses --      1.4568                 1.5074                 2.3438
 Frc consts  --      0.8329                 0.8949                 1.5022
 IR Inten    --      5.5092                 1.0859                 0.8724

                     22                     23                     24
                      A                      A                      A
 Frequencies --   1052.2582              1078.1457              1096.9565
 Red. masses --      1.8743                 1.9684                 1.8775
 Frc consts  --      1.2227                 1.3481                 1.3311
 IR Inten    --      0.3357                24.8917                 6.8752

                     25                     26                     27
                      A                      A                      A
 Frequencies --   1119.7107              1167.2487              1176.6673
 Red. masses --      2.6840                 2.0011                 1.4286
 Frc consts  --      1.9826                 1.6063                 1.1654
 IR Inten    --      0.4775                11.4853                 2.7742

                     28                     29                     30
                      A                      A                      A
 Frequencies --   1197.5670              1227.4974              1235.6198
 Red. masses --      1.7918                 1.4168                 1.2194
 Frc consts  --      1.5141                 1.2578                 1.0969
 IR Inten    --      9.9033                 0.1167                 0.0610

                     31                     32                     33
                      A                      A                      A
 Frequencies --   1243.4185              1262.1525              1267.5658
 Red. masses --      1.3634                 1.2388                 1.2925
 Frc consts  --      1.2419                 1.1627                 1.2235
 IR Inten    --      0.5024                 0.6848                 0.5661

                     34                     35                     36
                      A                      A                      A
 Frequencies --   1295.0485              1304.5263              1317.2862
 Red. masses --      1.3291                 1.3329                 1.3751
 Frc consts  --      1.3133                 1.3365                 1.4059
 IR Inten    --      1.8601                 1.4809                 0.1540

                     37                     38                     39
                      A                      A                      A
 Frequencies --   1323.5263              1410.7940              1417.7748
 Red. masses --      1.4506                 1.2816                 1.3195
 Frc consts  --      1.4972                 1.5029                 1.5627
 IR Inten    --      0.2600                 2.7139                 7.2743

                     40                     41                     42
                      A                      A                      A
 Frequencies --   1432.6318              1484.4953              1490.3942
 Red. masses --      1.2546                 1.0845                 1.1244
 Frc consts  --      1.5172                 1.4081                 1.4715
 IR Inten    --      5.2915                 0.5001                 2.3532

                     43                     44                     45
                      A                      A                      A
 Frequencies --   1500.1649              1511.5736              1826.7356
 Red. masses --      1.0954                 1.1075                10.4313
 Frc consts  --      1.4525                 1.4909                20.5089
 IR Inten    --      3.5187                 0.0456               231.8081

                     46                     47                     48
                      A                      A                      A
 Frequencies --   2832.8494              2975.7008              2996.9181
 Red. masses --      1.0807                 1.0797                 1.0828
 Frc consts  --      5.1100                 5.6327                 5.7297
 IR Inten    --     95.4527                 7.2210                25.5854

                     49                     50                     51
                      A                      A                      A
 Frequencies --   3045.8001              3050.8279              3054.7245
 Red. masses --      1.0607                 1.0601                 1.0598
 Frc consts  --      5.7975                 5.8137                 5.8264
 IR Inten    --     18.5363                36.5940                45.0240

                     52                     53                     54
                      A                      A                      A
 Frequencies --   3065.5013              3087.2913              3094.1062
 Red. masses --      1.0618                 1.1039                 1.0864
 Frc consts  --      5.8790                 6.1993                 6.1278
 IR Inten    --     41.8437                15.2224                10.6058

                     55                     56                     57
                      A                      A                      A
 Frequencies --   3097.3759              3114.7997              3124.0908
 Red. masses --      1.1044                 1.1062                 1.1056
 Frc consts  --      6.2423                 6.3232                 6.3575
 IR Inten    --     14.1763                53.0094                41.8369

 - Thermochemistry -
 -------------------
 Temperature   298.150 Kelvin.  Pressure   1.00000 Atm.
 Atom     1 has atomic number  8 and mass  15.99491

 Molecular mass:   124.08882 amu.
 Principal axes and moments of inertia in atomic units:
                           1         2         3
     Eigenvalues --   478.919531824.678622146.60990
           X            0.99986   0.01675  -0.00132
           Y           -0.01676   0.99985  -0.00446
           Z            0.00125   0.00448   0.99999
 This molecule is an asymmetric top.
 Rotational symmetry number  1.
 Warning -- assumption of classical behavior for rotation
           may cause significant error
 Rotational temperatures (Kelvin)      0.18085     0.04747     0.04035
 Rotational constants (GHZ):           3.76836     0.98907     0.84074
 Zero-point vibrational energy     483413.8 (Joules/Mol)
                                  115.53867 (Kcal/Mol)
 Warning -- explicit consideration of  10 degrees of freedom as
           vibrations may cause significant error
 Vibrational temperatures:     95.39   157.32   205.29   336.39   416.87
          (Kelvin)            510.92   581.23   633.56   730.18   879.07
                              950.61  1093.83  1129.22  1222.26  1232.13
                             1278.14  1292.70  1367.70  1417.30  1444.24
                             1500.59  1513.96  1551.21  1578.28  1611.01
                             1679.41  1692.96  1723.03  1766.10  1777.78
                             1789.00  1815.96  1823.74  1863.29  1876.92
                             1895.28  1904.26  2029.82  2039.86  2061.24
                             2135.86  2144.34  2158.40  2174.82  2628.27
                             4075.84  4281.37  4311.90  4382.23  4389.46
                             4395.07  4410.57  4441.92  4451.73  4456.43
                             4481.50  4494.87

 Zero-point correction=                           0.184123 (Hartree/Particle)
 Thermal correction to Energy=                    0.192386
 Thermal correction to Enthalpy=                  0.193330
 Thermal correction to Gibbs Free Energy=         0.150757
 Sum of electronic and zero-point Energies=           -387.076718
 Sum of electronic and thermal Energies=              -387.068455
 Sum of electronic and thermal Enthalpies=            -387.067511
 Sum of electronic and thermal Free Energies=         -387.110084

                     E (Thermal)             CV                S
                      KCal/Mol        Cal/Mol-Kelvin    Cal/Mol-Kelvin
 Total                  120.724             31.806             89.602
 Electronic               0.000              0.000              0.000
 Translational            0.889              2.981             40.361
 Rotational               0.889              2.981             29.019
 Vibrational            118.947             25.845             20.222
 Vibration     1          0.598              1.970              4.260
 Vibration     2          0.606              1.942              3.281
 Vibration     3          0.616              1.911              2.768
 Vibration     4          0.654              1.789              1.850
 Vibration     5          0.686              1.693              1.475
 Vibration     6          0.731              1.565              1.143
 Vibration     7          0.769              1.462              0.948
 Vibration     8          0.800              1.382              0.826
 Vibration     9          0.863              1.233              0.640
 Vibration    10          0.970              1.009              0.431

 Optimization completed.
    -- Stationary point found.
 Normal termination of Gaussian 16 at Thu Aug  4 01:15:39 2022.
