 Gaussian 16, Revision A.03,
 Gaussian 16:  ES64L-G16RevA.03 25-Dec-2016

 -----------------------------
 # opt freq b3lyp/6-31g(2df,p)
 -----------------------------

 -------------------
 Title Card Required
 -------------------
 Symbolic Z-matrix:
 Charge =  0 Multiplicity = 1

 SCF Done:  E(RB3LYP) =  -345.362561866     A.U. after   16 cycles
 SCF Done:  E(RB3LYP) =  -345.389229543     A.U. after   14 cycles
 SCF Done:  E(RB3LYP) =  -345.404382775     A.U. after   16 cycles
 SCF Done:  E(RB3LYP) =  -345.406665575     A.U. after   14 cycles
 SCF Done:  E(RB3LYP) =  -345.409622720     A.U. after   14 cycles
 SCF Done:  E(RB3LYP) =  -345.411898246     A.U. after   13 cycles
 SCF Done:  E(RB3LYP) =  -345.412497765     A.U. after   12 cycles
 SCF Done:  E(RB3LYP) =  -345.413312574     A.U. after   12 cycles
 SCF Done:  E(RB3LYP) =  -345.415627434     A.U. after   14 cycles
 SCF Done:  E(RB3LYP) =  -345.421100146     A.U. after   15 cycles
 SCF Done:  E(RB3LYP) =  -345.538617106     A.U. after   13 cycles
 SCF Done:  E(RB3LYP) =  -345.539007313     A.U. after   12 cycles
 SCF Done:  E(RB3LYP) =  -345.539064440     A.U. after   13 cycles
 SCF Done:  E(RB3LYP) =  -345.539209758     A.U. after   12 cycles
 SCF Done:  E(RB3LYP) =  -345.539316843     A.U. after   11 cycles
 SCF Done:  E(RB3LYP) =  -345.539332204     A.U. after   10 cycles
 SCF Done:  E(RB3LYP) =  -345.539339965     A.U. after   10 cycles
 SCF Done:  E(RB3LYP) =  -345.539341686     A.U. after    8 cycles
 SCF Done:  E(RB3LYP) =  -345.539342150     A.U. after    8 cycles
 Optimization completed.
    -- Stationary point found.
 Normal termination of Gaussian 16 at Thu Aug  4 11:37:12 2022.

 ----------------------------------------------------------------------
 #N Geom=AllCheck Guess=TCheck SCRF=Check GenChk RB3LYP/6-31G(2df,p) Fr
 eq
 ----------------------------------------------------------------------

 Structure from the checkpoint file:  "OdCC1dCCdC2CC12.chk"
 -------------------
 Title Card Required
 -------------------
 Charge =  0 Multiplicity = 1

                         Standard orientation:
 ---------------------------------------------------------------------
 Center     Atomic      Atomic             Coordinates (Angstroms)
 Number     Number       Type             X           Y           Z
 ---------------------------------------------------------------------
      1          8           0        2.816979   -0.855088    0.000463
      2          6           0        2.179125    0.175031   -0.000235
      3          6           0        0.712426    0.248967   -0.000500
      4          6           0       -0.084128    1.494077   -0.000127
      5          6           0       -1.395395    1.178600    0.000505
      6          6           0       -1.510457   -0.290057    0.000298
      7          6           0       -2.636017   -1.020853   -0.000178
      8          6           0       -0.140233   -0.810542   -0.000163
      9          1           0        2.693775    1.162405   -0.000284
     10          1           0        0.344783    2.488241   -0.001005
     11          1           0       -2.238759    1.854743    0.000620
     12          1           0       -3.616410   -0.555486    0.000449
     13          1           0       -2.607233   -2.105445   -0.001077
     14          1           0        0.136091   -1.855090   -0.000013
 ---------------------------------------------------------------------

 SCF Done:  E(RB3LYP) =  -345.539342150     A.U. after    1 cycles

 The electronic state is 1-A.
 Alpha  occ. eigenvalues --  -19.12965 -10.26451 -10.22019 -10.21364 -10.19970
 Alpha  occ. eigenvalues --  -10.19703 -10.19672 -10.19028  -1.03473  -0.87892
 Alpha  occ. eigenvalues --   -0.77614  -0.72721  -0.67424  -0.59794  -0.54975
 Alpha  occ. eigenvalues --   -0.53897  -0.50160  -0.45751  -0.43855  -0.41859
 Alpha  occ. eigenvalues --   -0.40422  -0.40391  -0.37887  -0.36628  -0.35861
 Alpha  occ. eigenvalues --   -0.27200  -0.24933  -0.23210
 Alpha virt. eigenvalues --   -0.09497  -0.01581   0.08829   0.10443   0.11343
 Alpha virt. eigenvalues --    0.11749   0.12883   0.14452   0.16549   0.16632
 Alpha virt. eigenvalues --    0.21631   0.23935   0.25122   0.31733   0.32285

 Mulliken charges:
               1
     1  O   -0.273556
     2  C    0.085521
     3  C    0.182411
     4  C   -0.184626
     5  C   -0.194328
     6  C    0.342894
     7  C   -0.375037
     8  C   -0.267582
     9  H    0.065898
    10  H    0.110311
    11  H    0.108337
    12  H    0.132795
    13  H    0.135117
    14  H    0.131844
 Sum of Mulliken charges =   0.00000

 Dipole moment (field-independent basis, Debye):
    X=             -3.3801    Y=              1.1199    Z=             -0.0016  Tot=              3.5608
 Quadrupole moment (field-independent basis, Debye-Ang):
   XX=            -47.1895   YY=            -42.0342   ZZ=            -47.6030
   XY=              6.6055   XZ=             -0.0037   YZ=              0.0005

  Exact polarizability: 122.044  15.025  81.271  -0.003   0.001  32.346
 Approx polarizability: 211.979  36.860 137.510  -0.005  -0.001  52.857

                      1                      2                      3
                      A                      A                      A
 Frequencies --    128.1025               161.1335               175.5792
 Red. masses --      4.4104                 2.6752                 5.2589
 Frc consts  --      0.0426                 0.0409                 0.0955
 IR Inten    --      2.9503                 7.6042                 4.3835

                      4                      5                      6
                      A                      A                      A
 Frequencies --    286.2599               349.3019               469.4040
 Red. masses --      2.9541                 2.5223                 6.3605
 Frc consts  --      0.1426                 0.1813                 0.8257
 IR Inten    --      0.0877                 2.8979                 0.0799

                      7                      8                      9
                      A                      A                      A
 Frequencies --    551.0799               659.6355               666.0674
 Red. masses --      1.9721                 2.5205                 4.8586
 Frc consts  --      0.3529                 0.6462                 1.2700
 IR Inten    --      5.7480                11.8811                 8.4959

                     10                     11                     12
                      A                      A                      A
 Frequencies --    698.2582               749.7751               792.9111
 Red. masses --      1.2528                 4.9799                 1.3603
 Frc consts  --      0.3599                 1.6494                 0.5039
 IR Inten    --      0.6524                43.8502                10.1341

                     13                     14                     15
                      A                      A                      A
 Frequencies --    882.3139               927.6908               927.7668
 Red. masses --      1.5513                 1.3711                 3.1810
 Frc consts  --      0.7115                 0.6952                 1.6132
 IR Inten    --     17.9490                 1.9415                19.5697

                     16                     17                     18
                      A                      A                      A
 Frequencies --    953.5337               967.2176               986.0413
 Red. masses --      3.0567                 1.5628                 1.3959
 Frc consts  --      1.6375                 0.8614                 0.7996
 IR Inten    --     14.4094                 2.7486                30.8753

                     19                     20                     21
                      A                      A                      A
 Frequencies --   1043.6875              1101.6333              1176.0969
 Red. masses --      1.8609                 1.1211                 2.5603
 Frc consts  --      1.1943                 0.8016                 2.0865
 IR Inten    --      0.0301                 6.1975                31.1779

                     22                     23                     24
                      A                      A                      A
 Frequencies --   1221.8794              1308.9426              1361.1217
 Red. masses --      1.4992                 3.9201                 1.9152
 Frc consts  --      1.3188                 3.9572                 2.0906
 IR Inten    --     17.4566                 4.9603                32.0485

                     25                     26                     27
                      A                      A                      A
 Frequencies --   1443.6129              1458.4216              1551.6480
 Red. masses --      1.3297                 1.2759                 6.1285
 Frc consts  --      1.6327                 1.5989                 8.6934
 IR Inten    --      1.3652                 0.6389               106.7162

                     28                     29                     30
                      A                      A                      A
 Frequencies --   1618.9465              1697.9563              1785.3443
 Red. masses --      6.5327                 5.7613                 9.7428
 Frc consts  --     10.0881                 9.7865                18.2970
 IR Inten    --     92.0484                15.1247               175.0313

                     31                     32                     33
                      A                      A                      A
 Frequencies --   2875.5862              3151.0014              3210.9208
 Red. masses --      1.0816                 1.0600                 1.0881
 Frc consts  --      5.2697                 6.2010                 6.6097
 IR Inten    --    152.4080                 3.6772                 3.0076

                     34                     35                     36
                      A                      A                      A
 Frequencies --   3238.4793              3238.5932              3245.7305
 Red. masses --      1.1090                 1.1091                 1.0958
 Frc consts  --      6.8529                 6.8540                 6.8013
 IR Inten    --      8.8622                 0.3695                 0.3336

 - Thermochemistry -
 -------------------
 Temperature   298.150 Kelvin.  Pressure   1.00000 Atm.
 Atom     1 has atomic number  8 and mass  15.99491

 Molecular mass:   106.04186 amu.
 Principal axes and moments of inertia in atomic units:
                           1         2         3
     Eigenvalues --   345.613471274.547131620.16049
           X            0.99964   0.02679  -0.00000
           Y           -0.02679   0.99964   0.00000
           Z            0.00000  -0.00000   1.00000
 This molecule is an asymmetric top.
 Rotational symmetry number  1.
 Rotational temperatures (Kelvin)      0.25061     0.06796     0.05346
 Rotational constants (GHZ):           5.22185     1.41599     1.11393
 Zero-point vibrational energy     281491.3 (Joules/Mol)
                                   67.27804 (Kcal/Mol)
 Warning -- explicit consideration of   7 degrees of freedom as
           vibrations may cause significant error
 Vibrational temperatures:    184.31   231.84   252.62   411.86   502.57
          (Kelvin)            675.37   792.88   949.07   958.32  1004.64
                             1078.76  1140.82  1269.45  1334.74  1334.85
                             1371.92  1391.61  1418.69  1501.63  1585.00
                             1692.14  1758.01  1883.28  1958.35  2077.04
                             2098.34  2232.48  2329.30  2442.98  2568.71
                             4137.33  4533.59  4619.80  4659.45  4659.61
                             4669.88

 Zero-point correction=                           0.107214 (Hartree/Particle)
 Thermal correction to Energy=                    0.114146
 Thermal correction to Enthalpy=                  0.115090
 Thermal correction to Gibbs Free Energy=         0.075984
 Sum of electronic and zero-point Energies=           -345.432128
 Sum of electronic and thermal Energies=              -345.425196
 Sum of electronic and thermal Enthalpies=            -345.424252
 Sum of electronic and thermal Free Energies=         -345.463358

                     E (Thermal)             CV                S
                      KCal/Mol        Cal/Mol-Kelvin    Cal/Mol-Kelvin
 Total                   71.628             25.746             82.307
 Electronic               0.000              0.000              0.000
 Translational            0.889              2.981             39.893
 Rotational               0.889              2.981             28.058
 Vibrational             69.850             19.785             14.356
 Vibration     1          0.611              1.925              2.974
 Vibration     2          0.622              1.890              2.536
 Vibration     3          0.628              1.872              2.375
 Vibration     4          0.684              1.699              1.496
 Vibration     5          0.727              1.577              1.169
 Vibration     6          0.827              1.318              0.739
 Vibration     7          0.906              1.137              0.542

                           ! Non-Optimized Parameters !
 Normal termination of Gaussian 16 at Thu Aug  4 11:54:18 2022.
