 Gaussian 16, Revision A.03,
 Gaussian 16:  ES64L-G16RevA.03 25-Dec-2016

 -----------------------------
 # opt freq b3lyp/6-31g(2df,p)
 -----------------------------

 -------------------
 Title Card Required
 -------------------
 Symbolic Z-matrix:
 Charge =  0 Multiplicity = 1

 SCF Done:  E(RB3LYP) =  -398.693415435     A.U. after   15 cycles
 SCF Done:  E(RB3LYP) =  -398.698556791     A.U. after   13 cycles
 SCF Done:  E(RB3LYP) =  -398.693990457     A.U. after   14 cycles
 SCF Done:  E(RB3LYP) =  -398.700450246     A.U. after   13 cycles
 SCF Done:  E(RB3LYP) =  -398.701718956     A.U. after   14 cycles
 SCF Done:  E(RB3LYP) =  -398.703239206     A.U. after   16 cycles
 SCF Done:  E(RB3LYP) =  -398.704356557     A.U. after   15 cycles
 SCF Done:  E(RB3LYP) =  -398.704796646     A.U. after   14 cycles
 SCF Done:  E(RB3LYP) =  -398.704872376     A.U. after   12 cycles
 SCF Done:  E(RB3LYP) =  -398.704900950     A.U. after   12 cycles
 SCF Done:  E(RB3LYP) =  -398.704910758     A.U. after   11 cycles
 SCF Done:  E(RB3LYP) =  -398.704926649     A.U. after   11 cycles
 SCF Done:  E(RB3LYP) =  -398.704952314     A.U. after   12 cycles
 SCF Done:  E(RB3LYP) =  -398.704964126     A.U. after   12 cycles
 SCF Done:  E(RB3LYP) =  -398.704983419     A.U. after   12 cycles
 SCF Done:  E(RB3LYP) =  -398.705003379     A.U. after   12 cycles
 SCF Done:  E(RB3LYP) =  -398.705015051     A.U. after   11 cycles
 SCF Done:  E(RB3LYP) =  -398.705016352     A.U. after    9 cycles
 SCF Done:  E(RB3LYP) =  -398.705016635     A.U. after    8 cycles
 Optimization completed.
    -- Stationary point found.
 Normal termination of Gaussian 16 at Sun Jul  3 16:53:06 2022.

 ----------------------------------------------------------------------
 #N Geom=AllCheck Guess=TCheck SCRF=Check GenChk RB3LYP/6-31G(2df,p) Fr
 eq
 ----------------------------------------------------------------------

 Structure from the checkpoint file:  "OdCC1CdCNdCO1.chk"
 -------------------
 Title Card Required
 -------------------
 Charge =  0 Multiplicity = 1

                         Standard orientation:
 ---------------------------------------------------------------------
 Center     Atomic      Atomic             Coordinates (Angstroms)
 Number     Number       Type             X           Y           Z
 ---------------------------------------------------------------------
      1          8           0        2.828651    0.248189   -0.171166
      2          6           0        1.817374   -0.376367   -0.336268
      3          6           0        0.560088   -0.164226    0.514612
      4          6           0       -0.045222    1.186047    0.240633
      5          6           0       -1.323399    1.283026   -0.123419
      6          7           0       -2.179021    0.170867   -0.257969
      7          6           0       -1.635756   -0.964126   -0.089679
      8          8           0       -0.349137   -1.244196    0.210209
      9          1           0        1.696402   -1.147235   -1.129349
     10          1           0        0.862286   -0.265311    1.568478
     11          1           0        0.608413    2.043342    0.345530
     12          1           0       -1.786488    2.241154   -0.332222
     13          1           0       -2.202078   -1.886088   -0.194262
 ---------------------------------------------------------------------

 SCF Done:  E(RB3LYP) =  -398.705016635     A.U. after    1 cycles

 The electronic state is 1-A.
 Alpha  occ. eigenvalues --  -19.20371 -19.16086 -14.32789 -10.29059 -10.28874
 Alpha  occ. eigenvalues --  -10.27438 -10.22653 -10.20421  -1.10270  -1.06814
 Alpha  occ. eigenvalues --   -0.93002  -0.82074  -0.72363  -0.66704  -0.61408
 Alpha  occ. eigenvalues --   -0.55523  -0.54000  -0.49725  -0.48092  -0.46675
 Alpha  occ. eigenvalues --   -0.44496  -0.43769  -0.41547  -0.38983  -0.35616
 Alpha  occ. eigenvalues --   -0.34063  -0.28493  -0.27779  -0.23231
 Alpha virt. eigenvalues --   -0.05285  -0.02869   0.06955   0.08444   0.11708
 Alpha virt. eigenvalues --    0.12754   0.13687   0.14366   0.16965   0.20033
 Alpha virt. eigenvalues --    0.23695   0.24343   0.25788   0.31090   0.34858

 Mulliken charges:
               1
     1  O   -0.234871
     2  C    0.136995
     3  C   -0.001179
     4  C   -0.121061
     5  C   -0.013194
     6  N   -0.284929
     7  C    0.150285
     8  O   -0.247447
     9  H    0.100976
    10  H    0.129151
    11  H    0.127406
    12  H    0.117914
    13  H    0.139955
 Sum of Mulliken charges =   0.00000

 Dipole moment (field-independent basis, Debye):
    X=             -0.4691    Y=             -0.6601    Z=              0.3933  Tot=              0.9002
 Quadrupole moment (field-independent basis, Debye-Ang):
   XX=            -56.4068   YY=            -41.0018   ZZ=            -44.1521
   XY=             -0.2811   XZ=             -0.0194   YZ=              0.5596

  Exact polarizability:  78.163   2.751  64.171   5.250   1.954  39.778
 Approx polarizability: 122.701   5.479 104.099  13.267   1.930  62.325

                      1                      2                      3
                      A                      A                      A
 Frequencies --     39.1590                67.1613               204.9937
 Red. masses --      6.1592                 3.2914                 3.2315
 Frc consts  --      0.0056                 0.0087                 0.0800
 IR Inten    --      1.8123                12.3353                 2.1299

                      4                      5                      6
                      A                      A                      A
 Frequencies --    305.3549               383.8148               449.7825
 Red. masses --      4.3066                 3.2952                 4.2088
 Frc consts  --      0.2366                 0.2860                 0.5017
 IR Inten    --      7.7578                 3.1612                 0.5151

                      7                      8                      9
                      A                      A                      A
 Frequencies --    568.2323               601.5712               673.6981
 Red. masses --      7.2495                 2.9766                 7.2319
 Frc consts  --      1.3791                 0.6347                 1.9339
 IR Inten    --     23.8289                44.4279                 0.8922

                     10                     11                     12
                      A                      A                      A
 Frequencies --    793.5870               858.4851               897.0070
 Red. masses --      1.5071                 3.4117                 4.8538
 Frc consts  --      0.5592                 1.4815                 2.3010
 IR Inten    --     13.3195                 4.4385                14.0420

                     13                     14                     15
                      A                      A                      A
 Frequencies --    962.4550               966.2322               990.1743
 Red. masses --      1.4038                 3.7989                 1.3569
 Frc consts  --      0.7662                 2.0896                 0.7838
 IR Inten    --      0.9674                 1.5806                 0.8802

                     16                     17                     18
                      A                      A                      A
 Frequencies --   1039.3971              1059.7176              1083.1279
 Red. masses --      2.8010                 2.3015                 3.7835
 Frc consts  --      1.7829                 1.5228                 2.6152
 IR Inten    --      0.6699                11.6903                22.6488

                     19                     20                     21
                      A                      A                      A
 Frequencies --   1177.3323              1219.9050              1288.6130
 Red. masses --      3.3372                 1.3105                 1.4146
 Frc consts  --      2.7254                 1.1490                 1.3840
 IR Inten    --    154.8686                40.1048                 4.6113

                     22                     23                     24
                      A                      A                      A
 Frequencies --   1336.5383              1383.3379              1397.8849
 Red. masses --      1.3138                 1.2455                 1.2967
 Frc consts  --      1.3827                 1.4043                 1.4929
 IR Inten    --      8.9934                 5.4035                 1.3070

                     25                     26                     27
                      A                      A                      A
 Frequencies --   1414.2060              1667.3381              1703.0240
 Red. masses --      1.3796                 7.9893                 6.7655
 Frc consts  --      1.6256                13.0860                11.5609
 IR Inten    --     15.5284                92.8609                81.6850

                     28                     29                     30
                      A                      A                      A
 Frequencies --   1843.5956              2896.3795              2980.2765
 Red. masses --     10.8523                 1.0859                 1.0825
 Frc consts  --     21.7322                 5.3673                 5.6650
 IR Inten    --    165.0222                75.8050                36.9252

                     31                     32                     33
                      A                      A                      A
 Frequencies --   3179.2574              3188.4664              3215.0388
 Red. masses --      1.0917                 1.0878                 1.0976
 Frc consts  --      6.5016                 6.5156                 6.6843
 IR Inten    --     15.1894                 7.2442                 4.8580

 - Thermochemistry -
 -------------------
 Temperature   298.150 Kelvin.  Pressure   1.00000 Atm.
 Atom     1 has atomic number  8 and mass  15.99491

 Molecular mass:   111.03203 amu.
 Principal axes and moments of inertia in atomic units:
                           1         2         3
     Eigenvalues --   363.736591131.031451411.70277
           X            0.99999  -0.00366   0.00220
           Y            0.00362   0.99988   0.01523
           Z           -0.00225  -0.01522   0.99988
 This molecule is an asymmetric top.
 Rotational symmetry number  1.
 Rotational temperatures (Kelvin)      0.23812     0.07658     0.06135
 Rotational constants (GHZ):           4.96167     1.59566     1.27841
 Zero-point vibrational energy     250229.7 (Joules/Mol)
                                   59.80634 (Kcal/Mol)
 Warning -- explicit consideration of   8 degrees of freedom as
           vibrations may cause significant error
 Vibrational temperatures:     56.34    96.63   294.94   439.34   552.22
          (Kelvin)            647.14   817.56   865.53   969.30  1141.79
                             1235.17  1290.59  1384.76  1390.19  1424.64
                             1495.46  1524.70  1558.38  1693.92  1755.17
                             1854.03  1922.98  1990.31  2011.24  2034.73
                             2398.93  2450.27  2652.52  4167.24  4287.95
                             4574.24  4587.49  4625.72

 Zero-point correction=                           0.095307 (Hartree/Particle)
 Thermal correction to Energy=                    0.102306
 Thermal correction to Enthalpy=                  0.103250
 Thermal correction to Gibbs Free Energy=         0.062738
 Sum of electronic and zero-point Energies=           -398.609709
 Sum of electronic and thermal Energies=              -398.602711
 Sum of electronic and thermal Enthalpies=            -398.601767
 Sum of electronic and thermal Free Energies=         -398.642278

                     E (Thermal)             CV                S
                      KCal/Mol        Cal/Mol-Kelvin    Cal/Mol-Kelvin
 Total                   64.198             24.296             85.264
 Electronic               0.000              0.000              0.000
 Translational            0.889              2.981             40.030
 Rotational               0.889              2.981             27.854
 Vibrational             62.420             18.335             17.380
 Vibration     1          0.594              1.981              5.301
 Vibration     2          0.598              1.970              4.235
 Vibration     3          0.640              1.833              2.088
 Vibration     4          0.696              1.664              1.387
 Vibration     5          0.753              1.505              1.024
 Vibration     6          0.809              1.361              0.796
 Vibration     7          0.924              1.100              0.508
 Vibration     8          0.960              1.028              0.447

 Optimization completed.
    -- Stationary point found.
 Normal termination of Gaussian 16 at Sun Jul  3 17:09:50 2022.
