 Gaussian 16, Revision A.03,
 Gaussian 16:  ES64L-G16RevA.03 25-Dec-2016

 -----------------------------
 # opt freq b3lyp/6-31g(2df,p)
 -----------------------------

 -------------------
 Title Card Required
 -------------------
 Symbolic Z-matrix:
 Charge =  0 Multiplicity = 1

 SCF Done:  E(RB3LYP) =  -423.160327673     A.U. after   14 cycles
 SCF Done:  E(RB3LYP) =  -423.175699930     A.U. after   13 cycles
 SCF Done:  E(RB3LYP) =  -423.179011922     A.U. after   13 cycles
 SCF Done:  E(RB3LYP) =  -423.179080380     A.U. after   13 cycles
 SCF Done:  E(RB3LYP) =  -423.181868056     A.U. after   12 cycles
 SCF Done:  E(RB3LYP) =  -423.182318422     A.U. after   11 cycles
 SCF Done:  E(RB3LYP) =  -423.182445244     A.U. after   11 cycles
 SCF Done:  E(RB3LYP) =  -423.182466801     A.U. after   11 cycles
 SCF Done:  E(RB3LYP) =  -423.182484349     A.U. after   11 cycles
 SCF Done:  E(RB3LYP) =  -423.182501815     A.U. after   10 cycles
 SCF Done:  E(RB3LYP) =  -423.188384519     A.U. after   12 cycles
 SCF Done:  E(RB3LYP) =  -423.188455615     A.U. after   13 cycles
 SCF Done:  E(RB3LYP) =  -423.188606783     A.U. after   12 cycles
 SCF Done:  E(RB3LYP) =  -423.188667035     A.U. after   11 cycles
 SCF Done:  E(RB3LYP) =  -423.188802711     A.U. after   10 cycles
 SCF Done:  E(RB3LYP) =  -423.188885288     A.U. after   11 cycles
 SCF Done:  E(RB3LYP) =  -423.188893044     A.U. after    8 cycles
 SCF Done:  E(RB3LYP) =  -423.188893260     A.U. after    8 cycles
 SCF Done:  E(RB3LYP) =  -423.188893419     A.U. after    8 cycles
 Optimization completed.
    -- Stationary point found.
 Normal termination of Gaussian 16 at Thu Aug  4 13:51:45 2022.

 ----------------------------------------------------------------------
 #N Geom=AllCheck Guess=TCheck SCRF=Check GenChk RB3LYP/6-31G(2df,p) Fr
 eq
 ----------------------------------------------------------------------

 Structure from the checkpoint file:  "OdCC1CC2CCC2O1.chk"
 -------------------
 Title Card Required
 -------------------
 Charge =  0 Multiplicity = 1

                         Standard orientation:
 ---------------------------------------------------------------------
 Center     Atomic      Atomic             Coordinates (Angstroms)
 Number     Number       Type             X           Y           Z
 ---------------------------------------------------------------------
      1          8           0        1.860337   -1.410346   -0.216554
      2          6           0        1.907351   -0.222129   -0.392294
      3          6           0        1.056566    0.827009    0.313839
      4          6           0        0.070057    1.521857   -0.666979
      5          6           0       -1.248365    0.783071   -0.415962
      6          6           0       -1.445506   -0.613569   -1.081423
      7          6           0       -1.337433   -1.297614    0.313245
      8          6           0       -1.054124    0.084614    0.963497
      9          8           0        0.288628    0.315712    1.377290
     10          1           0        2.624395    0.228721   -1.121231
     11          1           0        1.770779    1.555424    0.726217
     12          1           0        0.402073    1.468970   -1.708492
     13          1           0       -0.021652    2.578266   -0.401121
     14          1           0       -2.109749    1.447229   -0.499809
     15          1           0       -0.656690   -0.891891   -1.785272
     16          1           0       -2.406054   -0.737619   -1.585982
     17          1           0       -0.517194   -2.005114    0.431359
     18          1           0       -2.267655   -1.755743    0.658214
     19          1           0       -1.701244    0.369391    1.796693
 ---------------------------------------------------------------------

 SCF Done:  E(RB3LYP) =  -423.188893419     A.U. after    1 cycles

 The electronic state is 1-A.
 Alpha  occ. eigenvalues --  -19.14503 -19.14392 -10.27168 -10.24551 -10.22822
 Alpha  occ. eigenvalues --  -10.20041 -10.19251 -10.18183 -10.17148  -1.05818
 Alpha  occ. eigenvalues --   -1.03657  -0.83475  -0.78324  -0.69902  -0.64924
 Alpha  occ. eigenvalues --   -0.61681  -0.57589  -0.53090  -0.52479  -0.48918
 Alpha  occ. eigenvalues --   -0.46045  -0.45649  -0.43671  -0.42457  -0.40304
 Alpha  occ. eigenvalues --   -0.39626  -0.37061  -0.36068  -0.33579  -0.33069
 Alpha  occ. eigenvalues --   -0.31188  -0.29295  -0.26904  -0.24002
 Alpha virt. eigenvalues --   -0.02448   0.07084   0.09924   0.10835   0.11632
 Alpha virt. eigenvalues --    0.12507   0.13598   0.14348   0.16138   0.16592
 Alpha virt. eigenvalues --    0.18447   0.18539   0.19852   0.21229   0.22868

 Mulliken charges:
               1
     1  O   -0.239453
     2  C    0.155806
     3  C    0.006885
     4  C   -0.277941
     5  C   -0.021479
     6  C   -0.242990
     7  C   -0.235487
     8  C    0.108974
     9  O   -0.246549
    10  H    0.072353
    11  H    0.100617
    12  H    0.111505
    13  H    0.115677
    14  H    0.074358
    15  H    0.105214
    16  H    0.101373
    17  H    0.138651
    18  H    0.095835
    19  H    0.076652
 Sum of Mulliken charges =  -0.00000

 Dipole moment (field-independent basis, Debye):
    X=             -1.0357    Y=              2.5579    Z=             -1.3193  Tot=              3.0588
 Quadrupole moment (field-independent basis, Debye-Ang):
   XX=            -50.7062   YY=            -54.7816   ZZ=            -54.8551
   XY=              4.4908   XZ=             -1.4815   YZ=             -0.6772

  Exact polarizability:  79.570   3.748  76.562  -3.625  -1.702  66.664
 Approx polarizability: 107.693   2.710 117.894  -4.061  -3.618 101.427

                      1                      2                      3
                      A                      A                      A
 Frequencies --     88.2846               124.4528               130.4056
 Red. masses --      3.1167                 2.9903                 3.7456
 Frc consts  --      0.0143                 0.0273                 0.0375
 IR Inten    --      1.8195                 2.0475                 6.1693

                      4                      5                      6
                      A                      A                      A
 Frequencies --    238.3726               321.4274               350.4988
 Red. masses --      5.5381                 2.5282                 1.7830
 Frc consts  --      0.1854                 0.1539                 0.1291
 IR Inten    --      2.9482                 0.6398                 1.2149

                      7                      8                      9
                      A                      A                      A
 Frequencies --    404.9657               617.9644               658.4324
 Red. masses --      3.2261                 5.0188                 4.7011
 Frc consts  --      0.3117                 1.1292                 1.2008
 IR Inten    --      2.7528                 4.3141                14.8310

                     10                     11                     12
                      A                      A                      A
 Frequencies --    720.6818               734.9996               754.6261
 Red. masses --      2.2096                 1.6073                 1.9046
 Frc consts  --      0.6762                 0.5116                 0.6390
 IR Inten    --      2.4568                 3.8298                 1.1281

                     13                     14                     15
                      A                      A                      A
 Frequencies --    805.8361               847.6863               856.2047
 Red. masses --      4.9212                 2.5922                 2.2160
 Frc consts  --      1.8828                 1.0975                 0.9571
 IR Inten    --     27.4418                12.3171                 5.1346

                     16                     17                     18
                      A                      A                      A
 Frequencies --    910.3410               920.6581               956.4287
 Red. masses --      2.2630                 2.1418                 2.6560
 Frc consts  --      1.1050                 1.0696                 1.4315
 IR Inten    --     16.7633                 3.1064                 0.5365

                     19                     20                     21
                      A                      A                      A
 Frequencies --    975.2557               992.2302              1029.7568
 Red. masses --      1.9064                 2.0578                 2.1601
 Frc consts  --      1.0683                 1.1937                 1.3496
 IR Inten    --      5.2763                10.5681                10.9463

                     22                     23                     24
                      A                      A                      A
 Frequencies --   1065.5952              1089.9258              1127.3279
 Red. masses --      1.6554                 2.0730                 1.8874
 Frc consts  --      1.1075                 1.4509                 1.4132
 IR Inten    --     11.9343                 8.0638                13.1229

                     25                     26                     27
                      A                      A                      A
 Frequencies --   1159.1602              1198.6573              1210.6439
 Red. masses --      3.5438                 1.6080                 1.3362
 Frc consts  --      2.8055                 1.3612                 1.1538
 IR Inten    --     60.2218                 2.2335                 5.0668

                     28                     29                     30
                      A                      A                      A
 Frequencies --   1226.5579              1245.2378              1265.3820
 Red. masses --      1.3406                 1.2902                 1.4267
 Frc consts  --      1.1883                 1.1787                 1.3459
 IR Inten    --     16.4324                 1.5686                 2.8135

                     31                     32                     33
                      A                      A                      A
 Frequencies --   1276.8980              1284.2233              1315.4992
 Red. masses --      1.4991                 1.5438                 1.4448
 Frc consts  --      1.4401                 1.5001                 1.4731
 IR Inten    --      4.5967                 3.5574                 0.5510

                     34                     35                     36
                      A                      A                      A
 Frequencies --   1333.3357              1358.0885              1376.2625
 Red. masses --      1.4046                 1.2343                 1.4486
 Frc consts  --      1.4713                 1.3413                 1.6165
 IR Inten    --      0.6921                 8.4361                 2.0714

                     37                     38                     39
                      A                      A                      A
 Frequencies --   1419.2151              1465.5165              1487.5249
 Red. masses --      1.2191                 1.0857                 1.0987
 Frc consts  --      1.4467                 1.3738                 1.4324
 IR Inten    --      6.8869                 6.8775                 4.3580

                     40                     41                     42
                      A                      A                      A
 Frequencies --   1493.8718              1839.9196              2836.2755
 Red. masses --      1.1013                10.5139                 1.0818
 Frc consts  --      1.4481                20.9707                 5.1273
 IR Inten    --      3.6757               126.5261               128.0777

                     43                     44                     45
                      A                      A                      A
 Frequencies --   3000.4570              3054.4117              3061.8383
 Red. masses --      1.0832                 1.0599                 1.0589
 Frc consts  --      5.7455                 5.8262                 5.8491
 IR Inten    --     36.3330                24.3285                33.4942

                     46                     47                     48
                      A                      A                      A
 Frequencies --   3066.9432              3077.8972              3092.0547
 Red. masses --      1.0748                 1.0783                 1.0949
 Frc consts  --      5.9563                 6.0184                 6.1674
 IR Inten    --     20.6926                48.8122                 8.2023

                     49                     50                     51
                      A                      A                      A
 Frequencies --   3100.2848              3113.8297              3148.9342
 Red. masses --      1.1028                 1.1025                 1.1034
 Frc consts  --      6.2451                 6.2983                 6.4463
 IR Inten    --     24.6657                38.1878                10.3325

 - Thermochemistry -
 -------------------
 Temperature   298.150 Kelvin.  Pressure   1.00000 Atm.
 Atom     1 has atomic number  8 and mass  15.99491

 Molecular mass:   126.06808 amu.
 Principal axes and moments of inertia in atomic units:
                           1         2         3
     Eigenvalues --   736.544741087.758851235.36940
           X            0.99713   0.07518  -0.00931
           Y           -0.07555   0.99588  -0.05018
           Z            0.00550   0.05074   0.99870
 This molecule is an asymmetric top.
 Rotational symmetry number  1.
 Warning -- assumption of classical behavior for rotation
           may cause significant error
 Rotational temperatures (Kelvin)      0.11759     0.07963     0.07011
 Rotational constants (GHZ):           2.45028     1.65914     1.46089
 Zero-point vibrational energy     420076.3 (Joules/Mol)
                                  100.40065 (Kcal/Mol)
 Warning -- explicit consideration of   8 degrees of freedom as
           vibrations may cause significant error
 Vibrational temperatures:    127.02   179.06   187.62   342.97   462.46
          (Kelvin)            504.29   582.66   889.11   947.34  1036.90
                             1057.50  1085.74  1159.42  1219.63  1231.89
                             1309.78  1324.62  1376.09  1403.18  1427.60
                             1481.59  1533.15  1568.16  1621.97  1667.77
                             1724.60  1741.85  1764.74  1791.62  1820.60
                             1837.17  1847.71  1892.71  1918.37  1953.99
                             1980.13  2041.93  2108.55  2140.22  2149.35
                             2647.23  4080.77  4316.99  4394.62  4405.30
                             4412.65  4428.41  4448.78  4460.62  4480.11
                             4530.61

 Zero-point correction=                           0.159999 (Hartree/Particle)
 Thermal correction to Energy=                    0.167815
 Thermal correction to Enthalpy=                  0.168759
 Thermal correction to Gibbs Free Energy=         0.127379
 Sum of electronic and zero-point Energies=           -423.028895
 Sum of electronic and thermal Energies=              -423.021079
 Sum of electronic and thermal Enthalpies=            -423.020134
 Sum of electronic and thermal Free Energies=         -423.061515

                     E (Thermal)             CV                S
                      KCal/Mol        Cal/Mol-Kelvin    Cal/Mol-Kelvin
 Total                  105.305             29.920             87.093
 Electronic               0.000              0.000              0.000
 Translational            0.889              2.981             40.409
 Rotational               0.889              2.981             28.383
 Vibrational            103.528             23.958             18.301
 Vibration     1          0.601              1.957              3.698
 Vibration     2          0.610              1.929              3.030
 Vibration     3          0.612              1.923              2.940
 Vibration     4          0.656              1.782              1.815
 Vibration     5          0.707              1.632              1.303
 Vibration     6          0.727              1.574              1.164
 Vibration     7          0.770              1.459              0.945
 Vibration     8          0.978              0.994              0.420

 Optimization completed.
    -- Stationary point found.
 Normal termination of Gaussian 16 at Thu Aug  4 14:26:55 2022.
