 Gaussian 16, Revision A.03,
 Gaussian 16:  ES64L-G16RevA.03 25-Dec-2016

 -----------------------------
 # opt freq b3lyp/6-31g(2df,p)
 -----------------------------

 -------------------
 Title Card Required
 -------------------
 Symbolic Z-matrix:
 Charge =  0 Multiplicity = 1

 SCF Done:  E(RB3LYP) =  -363.574221313     A.U. after   19 cycles
 SCF Done:  E(RB3LYP) =  -363.638977094     A.U. after   16 cycles
 SCF Done:  E(RB3LYP) =  -363.729069293     A.U. after   16 cycles
 SCF Done:  E(RB3LYP) =  -363.777938444     A.U. after   15 cycles
 SCF Done:  E(RB3LYP) =  -363.792763150     A.U. after   13 cycles
 SCF Done:  E(RB3LYP) =  -363.837055724     A.U. after   15 cycles
 SCF Done:  E(RB3LYP) =  -363.866916753     A.U. after   15 cycles
 SCF Done:  E(RB3LYP) =  -363.894457510     A.U. after   15 cycles
 SCF Done:  E(RB3LYP) =  -363.903409978     A.U. after   14 cycles
 SCF Done:  E(RB3LYP) =  -363.915326121     A.U. after   14 cycles
 SCF Done:  E(RB3LYP) =  -363.993559460     A.U. after   11 cycles
 SCF Done:  E(RB3LYP) =  -363.993673586     A.U. after   12 cycles
 SCF Done:  E(RB3LYP) =  -363.993866607     A.U. after   13 cycles
 SCF Done:  E(RB3LYP) =  -363.993983690     A.U. after   12 cycles
 SCF Done:  E(RB3LYP) =  -363.994009403     A.U. after   10 cycles
 SCF Done:  E(RB3LYP) =  -363.994011768     A.U. after    8 cycles
 SCF Done:  E(RB3LYP) =  -363.994014460     A.U. after    9 cycles
 SCF Done:  E(RB3LYP) =  -363.994015090     A.U. after    8 cycles
 SCF Done:  E(RB3LYP) =  -363.994015247     A.U. after    7 cycles
 Optimization completed.
    -- Stationary point found.
 Normal termination of Gaussian 16 at Thu Aug  4 07:27:16 2022.

 ----------------------------------------------------------------------
 #N Geom=AllCheck Guess=TCheck SCRF=Check GenChk RB3LYP/6-31G(2df,p) Fr
 eq
 ----------------------------------------------------------------------

 Structure from the checkpoint file:  "OdCC1CC2CNC12.chk"
 -------------------
 Title Card Required
 -------------------
 Charge =  0 Multiplicity = 1

                         Standard orientation:
 ---------------------------------------------------------------------
 Center     Atomic      Atomic             Coordinates (Angstroms)
 Number     Number       Type             X           Y           Z
 ---------------------------------------------------------------------
      1          8           0        1.445585    1.688023   -0.643413
      2          6           0        1.666677    0.614199   -0.145428
      3          6           0        0.724939   -0.125174    0.793475
      4          6           0       -0.634184    0.597635    1.005234
      5          6           0       -1.484312    0.701119   -0.230924
      6          6           0       -2.651994    0.087726   -0.396075
      7          7           0        0.497635   -2.045594   -0.801246
      8          6           0        0.551403   -1.575829    0.375634
      9          1           0        2.627521    0.084460   -0.331534
     10          1           0        1.251649   -0.133582    1.762112
     11          1           0       -0.407448    1.603167    1.378682
     12          1           0       -1.184552    0.072965    1.793650
     13          1           0       -1.087709    1.335495   -1.018943
     14          1           0       -3.233686    0.202473   -1.304530
     15          1           0       -3.078101   -0.552154    0.372091
     16          1           0        0.593278   -1.308531   -1.507038
     17          1           0        0.435757   -2.287372    1.200051
 ---------------------------------------------------------------------

 SCF Done:  E(RB3LYP) =  -363.994015247     A.U. after    1 cycles

 The electronic state is 1-A.
 Alpha  occ. eigenvalues --  -19.15778 -14.32900 -10.28684 -10.24246 -10.21956
 Alpha  occ. eigenvalues --  -10.20448 -10.18895 -10.18002  -1.06414  -0.91550
 Alpha  occ. eigenvalues --   -0.81760  -0.76204  -0.67784  -0.62884  -0.57082
 Alpha  occ. eigenvalues --   -0.55178  -0.50983  -0.48947  -0.45836  -0.45745
 Alpha  occ. eigenvalues --   -0.43522  -0.41443  -0.39968  -0.38962  -0.37461
 Alpha  occ. eigenvalues --   -0.34635  -0.32176  -0.27726  -0.26381  -0.25862
 Alpha virt. eigenvalues --   -0.04102  -0.01622   0.01459   0.09057   0.10721
 Alpha virt. eigenvalues --    0.12380   0.12647   0.14383   0.15442   0.16521
 Alpha virt. eigenvalues --    0.17100   0.18922   0.20179   0.23707   0.24533

 Mulliken charges:
               1
     1  O   -0.239553
     2  C    0.142051
     3  C   -0.148331
     4  C   -0.257328
     5  C    0.027001
     6  C   -0.310039
     7  N   -0.370531
     8  C    0.041467
     9  H    0.097776
    10  H    0.110122
    11  H    0.126645
    12  H    0.106615
    13  H    0.112818
    14  H    0.116354
    15  H    0.105386
    16  H    0.227622
    17  H    0.111927
 Sum of Mulliken charges =  -0.00000

 Dipole moment (field-independent basis, Debye):
    X=              0.2488    Y=              0.0079    Z=              2.0858  Tot=              2.1006
 Quadrupole moment (field-independent basis, Debye-Ang):
   XX=            -46.0146   YY=            -58.0602   ZZ=            -44.9468
   XY=             -1.2517   XZ=              2.1841   YZ=             -1.8640

  Exact polarizability:  77.385   4.390  67.466   3.101  -2.135  67.533
 Approx polarizability: 105.871  10.016 106.415   5.434  -3.166 109.342

                      1                      2                      3
                      A                      A                      A
 Frequencies --     15.7275                74.0329                83.5544
 Red. masses --      2.7166                 4.3237                 2.4645
 Frc consts  --      0.0004                 0.0140                 0.0101
 IR Inten    --      0.0523                 7.5467                 0.3024

                      4                      5                      6
                      A                      A                      A
 Frequencies --    101.6915               204.3281               245.8989
 Red. masses --      3.1100                 3.0573                 2.7588
 Frc consts  --      0.0189                 0.0752                 0.0983
 IR Inten    --      0.2947                 7.2219                 4.9984

                      7                      8                      9
                      A                      A                      A
 Frequencies --    257.4591               364.2393               417.2836
 Red. masses --      2.6658                 2.4097                 2.0143
 Frc consts  --      0.1041                 0.1884                 0.2066
 IR Inten    --      0.7875                 3.6021                 5.7037

                     10                     11                     12
                      A                      A                      A
 Frequencies --    593.4104               623.9693               680.8060
 Red. masses --      3.1157                 1.8217                 2.9547
 Frc consts  --      0.6464                 0.4179                 0.8069
 IR Inten    --      9.9689                 8.2734                 2.7999

                     13                     14                     15
                      A                      A                      A
 Frequencies --    783.2661               838.0890               887.2059
 Red. masses --      2.3628                 2.5168                 1.7973
 Frc consts  --      0.8541                 1.0415                 0.8335
 IR Inten    --      2.1416                10.1238                16.6050

                     16                     17                     18
                      A                      A                      A
 Frequencies --    901.4447               958.1524               999.5712
 Red. masses --      2.0191                 1.3513                 1.7303
 Frc consts  --      0.9667                 0.7309                 1.0186
 IR Inten    --      9.7774                29.9532                 7.1152

                     19                     20                     21
                      A                      A                      A
 Frequencies --   1015.1551              1054.9176              1082.2657
 Red. masses --      1.7681                 1.1362                 1.9633
 Frc consts  --      1.0735                 0.7450                 1.3549
 IR Inten    --      1.2160                15.5277                15.5014

                     22                     23                     24
                      A                      A                      A
 Frequencies --   1140.1866              1150.5335              1217.8082
 Red. masses --      1.2325                 1.6249                 1.3813
 Frc consts  --      0.9440                 1.2673                 1.2070
 IR Inten    --     34.4895                12.9516                10.7100

                     25                     26                     27
                      A                      A                      A
 Frequencies --   1248.8645              1260.8960              1317.9329
 Red. masses --      1.2970                 1.3760                 1.2284
 Frc consts  --      1.1918                 1.2890                 1.2571
 IR Inten    --     77.2544                 5.8438                 0.2414

                     28                     29                     30
                      A                      A                      A
 Frequencies --   1339.7682              1358.0466              1421.2124
 Red. masses --      1.6155                 1.3432                 1.1948
 Frc consts  --      1.7085                 1.4596                 1.4218
 IR Inten    --     17.4541                 3.9713                12.6336

                     31                     32                     33
                      A                      A                      A
 Frequencies --   1431.6259              1453.4586              1476.1028
 Red. masses --      1.2126                 1.1494                 1.1342
 Frc consts  --      1.4643                 1.4307                 1.4560
 IR Inten    --     13.4469                 4.0125                11.1309

                     34                     35                     36
                      A                      A                      A
 Frequencies --   1714.7069              1718.9617              1825.8366
 Red. masses --      4.8168                 7.9032                10.5422
 Frc consts  --      8.3442                13.7590                20.7064
 IR Inten    --      3.2878                42.2459               128.4315

                     37                     38                     39
                      A                      A                      A
 Frequencies --   2886.6370              2980.2502              3034.6963
 Red. masses --      1.0835                 1.0800                 1.0592
 Frc consts  --      5.3196                 5.6518                 5.7470
 IR Inten    --    105.2760                17.1592                19.8335

                     40                     41                     42
                      A                      A                      A
 Frequencies --   3074.0063              3079.3262              3140.4319
 Red. masses --      1.0886                 1.1026                 1.0607
 Frc consts  --      6.0609                 6.1598                 6.1633
 IR Inten    --     30.2591                18.7263                 7.6233

                     43                     44                     45
                      A                      A                      A
 Frequencies --   3173.0121              3224.8570              3413.1587
 Red. masses --      1.0909                 1.1137                 1.0745
 Frc consts  --      6.4709                 6.8243                 7.3752
 IR Inten    --      2.1211                13.3772                 1.9010

 - Thermochemistry -
 -------------------
 Temperature   298.150 Kelvin.  Pressure   1.00000 Atm.
 Atom     1 has atomic number  8 and mass  15.99491

 Molecular mass:   111.06841 amu.
 Principal axes and moments of inertia in atomic units:
                           1         2         3
     Eigenvalues --   768.939291008.842211386.98127
           X            0.99905  -0.04141   0.01368
           Y            0.04149   0.99912  -0.00557
           Z           -0.01344   0.00613   0.99989
 This molecule is an asymmetric top.
 Rotational symmetry number  1.
 Warning -- assumption of classical behavior for rotation
           may cause significant error
 Rotational temperatures (Kelvin)      0.11264     0.08585     0.06245
 Rotational constants (GHZ):           2.34705     1.78892     1.30120
 Zero-point vibrational energy     366444.8 (Joules/Mol)
                                   87.58241 (Kcal/Mol)
 Warning -- explicit consideration of  10 degrees of freedom as
           vibrations may cause significant error
 Vibrational temperatures:     22.63   106.52   120.22   146.31   293.98
          (Kelvin)            353.79   370.43   524.06   600.38   853.79
                              897.75   979.53  1126.95  1205.82  1276.49
                             1296.98  1378.57  1438.16  1460.58  1517.79
                             1557.14  1640.47  1655.36  1752.15  1796.84
                             1814.15  1896.21  1927.63  1953.93  2044.81
                             2059.79  2091.20  2123.78  2467.08  2473.20
                             2626.97  4153.23  4287.92  4366.25  4422.81
                             4430.46  4518.38  4565.26  4639.85  4910.77

 Zero-point correction=                           0.139571 (Hartree/Particle)
 Thermal correction to Energy=                    0.148765
 Thermal correction to Enthalpy=                  0.149709
 Thermal correction to Gibbs Free Energy=         0.103580
 Sum of electronic and zero-point Energies=           -363.854444
 Sum of electronic and thermal Energies=              -363.845250
 Sum of electronic and thermal Enthalpies=            -363.844306
 Sum of electronic and thermal Free Energies=         -363.890435

                     E (Thermal)             CV                S
                      KCal/Mol        Cal/Mol-Kelvin    Cal/Mol-Kelvin
 Total                   93.351             30.984             97.087
 Electronic               0.000              0.000              0.000
 Translational            0.889              2.981             40.031
 Rotational               0.889              2.981             28.466
 Vibrational             91.574             25.022             28.590
 Vibration     1          0.593              1.986              7.111
 Vibration     2          0.599              1.966              4.043
 Vibration     3          0.600              1.960              3.806
 Vibration     4          0.604              1.948              3.422
 Vibration     5          0.640              1.834              2.094
 Vibration     6          0.660              1.770              1.760
 Vibration     7          0.667              1.750              1.679
 Vibration     8          0.738              1.546              1.104
 Vibration     9          0.780              1.433              0.901
 Vibration    10          0.951              1.046              0.461

                           ! Non-Optimized Parameters !
 Normal termination of Gaussian 16 at Thu Aug  4 07:49:38 2022.
