 Gaussian 16, Revision A.03,
 Gaussian 16:  ES64L-G16RevA.03 25-Dec-2016

 -----------------------------
 # opt freq b3lyp/6-31g(2df,p)
 -----------------------------

 -------------------
 Title Card Required
 -------------------
 Symbolic Z-matrix:
 Charge =  0 Multiplicity = 1

 SCF Done:  E(RB3LYP) =  -378.671108318     A.U. after   15 cycles
 SCF Done:  E(RB3LYP) =  -378.698432014     A.U. after   14 cycles
 SCF Done:  E(RB3LYP) =  -378.715862942     A.U. after   16 cycles
 SCF Done:  E(RB3LYP) =  -378.724901098     A.U. after   14 cycles
 SCF Done:  E(RB3LYP) =  -378.732455551     A.U. after   14 cycles
 SCF Done:  E(RB3LYP) =  -378.735315756     A.U. after   13 cycles
 SCF Done:  E(RB3LYP) =  -378.736436437     A.U. after   13 cycles
 SCF Done:  E(RB3LYP) =  -378.736594707     A.U. after   12 cycles
 SCF Done:  E(RB3LYP) =  -378.736629330     A.U. after   11 cycles
 SCF Done:  E(RB3LYP) =  -378.736632259     A.U. after    8 cycles
 SCF Done:  E(RB3LYP) =  -378.736634055     A.U. after    8 cycles
 Optimization completed.
    -- Stationary point found.
 Normal termination of Gaussian 16 at Sun Jul  3 10:29:43 2022.

 ----------------------------------------------------------------------
 #N Geom=AllCheck Guess=TCheck SCRF=Check GenChk RB3LYP/6-31G(2df,p) Fr
 eq
 ----------------------------------------------------------------------

 Structure from the checkpoint file:  "OdCC1dC2NN2CC1.chk"
 -------------------
 Title Card Required
 -------------------
 Charge =  0 Multiplicity = 1

                         Standard orientation:
 ---------------------------------------------------------------------
 Center     Atomic      Atomic             Coordinates (Angstroms)
 Number     Number       Type             X           Y           Z
 ---------------------------------------------------------------------
      1          8           0       -2.858884    0.004198    0.191325
      2          6           0       -1.863079   -0.663817   -0.009163
      3          6           0       -0.550187   -0.111507   -0.251169
      4          6           0        0.633612   -0.752484   -0.324040
      5          7           0        1.642819   -1.395674    0.386690
      6          7           0        1.778251    0.009251   -0.347587
      7          6           0        1.308842    1.238946    0.367885
      8          6           0       -0.146408    1.372225   -0.193335
      9          1           0       -1.904880   -1.775109   -0.012299
     10          1           0        2.225558   -1.984658   -0.213951
     11          1           0        1.978879    2.069540    0.137162
     12          1           0        1.296236    1.064121    1.449902
     13          1           0       -0.152506    1.867433   -1.171152
     14          1           0       -0.816387    1.929877    0.464956
 ---------------------------------------------------------------------

 SCF Done:  E(RB3LYP) =  -378.736634055     A.U. after    1 cycles

 The electronic state is 1-A.
 Alpha  occ. eigenvalues --  -19.12219 -14.41176 -14.38956 -10.27617 -10.26156
 Alpha  occ. eigenvalues --  -10.23840 -10.20855 -10.20529  -1.06917  -1.02766
 Alpha  occ. eigenvalues --   -0.86173  -0.77985  -0.71555  -0.64505  -0.60122
 Alpha  occ. eigenvalues --   -0.56250  -0.51942  -0.48896  -0.46886  -0.44095
 Alpha  occ. eigenvalues --   -0.41636  -0.40600  -0.39121  -0.37447  -0.36938
 Alpha  occ. eigenvalues --   -0.33187  -0.29536  -0.24630  -0.24298
 Alpha virt. eigenvalues --   -0.06967  -0.00155   0.03803   0.07922   0.09999
 Alpha virt. eigenvalues --    0.11856   0.13782   0.14526   0.15701   0.17053
 Alpha virt. eigenvalues --    0.19977   0.20947   0.25839   0.27081   0.31002

 Mulliken charges:
               1
     1  O   -0.290060
     2  C    0.058922
     3  C    0.103663
     4  C    0.154208
     5  N   -0.321074
     6  N   -0.118130
     7  C   -0.155674
     8  C   -0.311265
     9  H    0.065919
    10  H    0.279796
    11  H    0.127112
    12  H    0.136586
    13  H    0.125679
    14  H    0.144317
 Sum of Mulliken charges =  -0.00000

 Dipole moment (field-independent basis, Debye):
    X=              3.2410    Y=             -0.3670    Z=             -0.5009  Tot=              3.3000
 Quadrupole moment (field-independent basis, Debye-Ang):
   XX=            -55.7924   YY=            -39.4219   ZZ=            -46.5301
   XY=              0.1737   XZ=              0.6657   YZ=              2.3228

  Exact polarizability:  95.303  -5.105  72.052  -1.764  -0.568  43.316
 Approx polarizability: 170.301 -23.717 116.452  -9.381  -2.542  71.822

                      1                      2                      3
                      A                      A                      A
 Frequencies --    115.2588               168.9365               225.8525
 Red. masses --      5.9716                 5.3397                 2.0694
 Frc consts  --      0.0467                 0.0898                 0.0622
 IR Inten    --      3.4085                10.0704                 1.0087

                      4                      5                      6
                      A                      A                      A
 Frequencies --    296.1390               334.3556               477.8717
 Red. masses --      3.1536                 3.2773                 4.0361
 Frc consts  --      0.1629                 0.2159                 0.5430
 IR Inten    --      1.7782                11.5409                 3.0489

                      7                      8                      9
                      A                      A                      A
 Frequencies --    521.4768               567.6820               623.0484
 Red. masses --      5.8702                 3.6076                 4.0874
 Frc consts  --      0.9405                 0.6850                 0.9348
 IR Inten    --      2.6383                 5.7166                11.4091

                     10                     11                     12
                      A                      A                      A
 Frequencies --    719.7365               777.9722               849.1769
 Red. masses --      4.7032                 3.0005                 2.6637
 Frc consts  --      1.4355                 1.0700                 1.1317
 IR Inten    --     44.8607                 1.7881                10.3392

                     13                     14                     15
                      A                      A                      A
 Frequencies --    903.9836               922.8244              1016.2841
 Red. masses --      2.6178                 2.7090                 1.8680
 Frc consts  --      1.2604                 1.3593                 1.1367
 IR Inten    --      2.0725                16.5882                 7.6718

                     16                     17                     18
                      A                      A                      A
 Frequencies --   1024.4816              1064.7301              1116.8489
 Red. masses --      2.8597                 1.9615                 1.3456
 Frc consts  --      1.7684                 1.3101                 0.9889
 IR Inten    --     18.0124                21.5388                 8.6423

                     19                     20                     21
                      A                      A                      A
 Frequencies --   1148.1864              1169.0803              1200.7238
 Red. masses --      1.4114                 2.3701                 1.2523
 Frc consts  --      1.0963                 1.9086                 1.0638
 IR Inten    --     29.3488               175.2999                11.9453

                     22                     23                     24
                      A                      A                      A
 Frequencies --   1209.7025              1289.5143              1316.2677
 Red. masses --      1.7449                 1.3106                 1.4309
 Frc consts  --      1.5045                 1.2841                 1.4606
 IR Inten    --     59.9073                 3.6839                 0.6419

                     25                     26                     27
                      A                      A                      A
 Frequencies --   1332.3596              1430.4387              1478.1303
 Red. masses --      3.1112                 1.4311                 1.0927
 Frc consts  --      3.2540                 1.7252                 1.4066
 IR Inten    --      9.7922                 6.8544                 3.9652

                     28                     29                     30
                      A                      A                      A
 Frequencies --   1488.3377              1719.5083              1764.2121
 Red. masses --      1.0958                 8.3734                10.0082
 Frc consts  --      1.4302                14.5868                18.3529
 IR Inten    --      1.7031               339.9751               171.9062

                     31                     32                     33
                      A                      A                      A
 Frequencies --   2886.6462              3042.6983              3048.4040
 Red. masses --      1.0824                 1.0685                 1.0610
 Frc consts  --      5.3138                 5.8283                 5.8091
 IR Inten    --    111.2466                24.7610                22.3790

                     34                     35                     36
                      A                      A                      A
 Frequencies --   3113.3395              3125.3778              3434.6208
 Red. masses --      1.0957                 1.1045                 1.0762
 Frc consts  --      6.2575                 6.3565                 7.4801
 IR Inten    --      5.5108                21.1254                 9.6492

 - Thermochemistry -
 -------------------
 Temperature   298.150 Kelvin.  Pressure   1.00000 Atm.
 Atom     1 has atomic number  8 and mass  15.99491

 Molecular mass:   110.04801 amu.
 Principal axes and moments of inertia in atomic units:
                           1         2         3
     Eigenvalues --   401.766841110.273161424.74386
           X            0.99990   0.01322   0.00533
           Y           -0.01328   0.99985   0.01147
           Z           -0.00518  -0.01154   0.99992
 This molecule is an asymmetric top.
 Rotational symmetry number  1.
 Rotational temperatures (Kelvin)      0.21558     0.07801     0.06079
 Rotational constants (GHZ):           4.49201     1.62549     1.26671
 Zero-point vibrational energy     280669.1 (Joules/Mol)
                                   67.08152 (Kcal/Mol)
 Warning -- explicit consideration of   8 degrees of freedom as
           vibrations may cause significant error
 Vibrational temperatures:    165.83   243.06   324.95   426.08   481.06
          (Kelvin)            687.55   750.29   816.77   896.43  1035.54
                             1119.33  1221.78  1300.63  1327.74  1462.21
                             1474.00  1531.91  1606.90  1651.98  1682.05
                             1727.57  1740.49  1855.32  1893.82  1916.97
                             2058.08  2126.70  2141.39  2473.99  2538.31
                             4153.24  4377.76  4385.97  4479.40  4496.72
                             4941.65

 Zero-point correction=                           0.106901 (Hartree/Particle)
 Thermal correction to Energy=                    0.113755
 Thermal correction to Enthalpy=                  0.114699
 Thermal correction to Gibbs Free Energy=         0.075758
 Sum of electronic and zero-point Energies=           -378.629733
 Sum of electronic and thermal Energies=              -378.622879
 Sum of electronic and thermal Enthalpies=            -378.621935
 Sum of electronic and thermal Free Energies=         -378.660876

                     E (Thermal)             CV                S
                      KCal/Mol        Cal/Mol-Kelvin    Cal/Mol-Kelvin
 Total                   71.382             25.375             81.959
 Electronic               0.000              0.000              0.000
 Translational            0.889              2.981             40.003
 Rotational               0.889              2.981             27.943
 Vibrational             69.605             19.413             14.012
 Vibration     1          0.608              1.937              3.178
 Vibration     2          0.625              1.881              2.447
 Vibration     3          0.650              1.802              1.912
 Vibration     4          0.690              1.681              1.439
 Vibration     5          0.716              1.607              1.239
 Vibration     6          0.834              1.299              0.716
 Vibration     7          0.876              1.202              0.607
 Vibration     8          0.924              1.101              0.509

                           ! Non-Optimized Parameters !
 Normal termination of Gaussian 16 at Sun Jul  3 10:47:48 2022.
