 Gaussian 16, Revision A.03,
 Gaussian 16:  ES64L-G16RevA.03 25-Dec-2016

 -----------------------------
 # opt freq b3lyp/6-31g(2df,p)
 -----------------------------

 -------------------
 Title Card Required
 -------------------
 Symbolic Z-matrix:
 Charge =  0 Multiplicity = 1

 SCF Done:  E(RB3LYP) =  -399.850568145     A.U. after   14 cycles
 SCF Done:  E(RB3LYP) =  -399.860907347     A.U. after   13 cycles
 SCF Done:  E(RB3LYP) =  -399.862419672     A.U. after   14 cycles
 SCF Done:  E(RB3LYP) =  -399.864946859     A.U. after   14 cycles
 SCF Done:  E(RB3LYP) =  -399.867875041     A.U. after   13 cycles
 SCF Done:  E(RB3LYP) =  -399.868791916     A.U. after   15 cycles
 SCF Done:  E(RB3LYP) =  -399.868959588     A.U. after   12 cycles
 SCF Done:  E(RB3LYP) =  -399.868996474     A.U. after   10 cycles
 SCF Done:  E(RB3LYP) =  -399.869002387     A.U. after   10 cycles
 SCF Done:  E(RB3LYP) =  -399.869003343     A.U. after    9 cycles
 SCF Done:  E(RB3LYP) =  -399.869003646     A.U. after    8 cycles
 Optimization completed.
    -- Stationary point found.
 Normal termination of Gaussian 16 at Thu Aug  4 06:31:43 2022.

 ----------------------------------------------------------------------
 #N Geom=AllCheck Guess=TCheck SCRF=Check GenChk RB3LYP/6-31G(2df,p) Fr
 eq
 ----------------------------------------------------------------------

 Structure from the checkpoint file:  "OdCC1NC2pCC2pO1.chk"
 -------------------
 Title Card Required
 -------------------
 Charge =  0 Multiplicity = 1

                         Standard orientation:
 ---------------------------------------------------------------------
 Center     Atomic      Atomic             Coordinates (Angstroms)
 Number     Number       Type             X           Y           Z
 ---------------------------------------------------------------------
      1          8           0        2.447626    0.972402   -0.043397
      2          6           0        2.079732   -0.135512   -0.337022
      3          6           0        0.872236   -0.808712    0.303152
      4          7           0        0.037342    0.060669    1.134357
      5          6           0       -0.950823   -0.050720    0.062812
      6          6           0       -1.790533    1.012072   -0.550128
      7          6           0       -2.423389   -0.172598    0.193654
      8          8           0       -0.162045   -0.981441   -0.688675
      9          1           0        2.578572   -0.736555   -1.127126
     10          1           0        1.159526   -1.765559    0.764748
     11          1           0        0.456091    0.988205    1.185699
     12          1           0       -1.869176    1.026398   -1.631893
     13          1           0       -1.814249    1.989028   -0.077700
     14          1           0       -2.921391   -0.929105   -0.402906
     15          1           0       -2.858752    0.008037    1.170447
 ---------------------------------------------------------------------

 SCF Done:  E(RB3LYP) =  -399.869003646     A.U. after    1 cycles

 The electronic state is 1-A.
 Alpha  occ. eigenvalues --  -19.16477 -19.16072 -14.33281 -10.28720 -10.27868
 Alpha  occ. eigenvalues --  -10.27735 -10.19370 -10.18989  -1.09177  -1.06561
 Alpha  occ. eigenvalues --   -0.88150  -0.85531  -0.71853  -0.61766  -0.59005
 Alpha  occ. eigenvalues --   -0.56108  -0.53029  -0.51403  -0.50528  -0.46218
 Alpha  occ. eigenvalues --   -0.44701  -0.41835  -0.39648  -0.38439  -0.38020
 Alpha  occ. eigenvalues --   -0.35848  -0.30598  -0.29140  -0.27544  -0.22583
 Alpha virt. eigenvalues --   -0.04589   0.06262   0.09818   0.11157   0.12034
 Alpha virt. eigenvalues --    0.13116   0.13655   0.15460   0.16427   0.17475
 Alpha virt. eigenvalues --    0.21861   0.23338   0.24012   0.25341   0.27740

 Mulliken charges:
               1
     1  O   -0.237704
     2  C    0.145394
     3  C    0.058958
     4  N   -0.393576
     5  C    0.441400
     6  C   -0.340491
     7  C   -0.324042
     8  O   -0.312849
     9  H    0.100308
    10  H    0.103533
    11  H    0.242874
    12  H    0.131868
    13  H    0.125079
    14  H    0.130138
    15  H    0.129109
 Sum of Mulliken charges =  -0.00000

 Dipole moment (field-independent basis, Debye):
    X=             -0.5472    Y=             -0.5086    Z=             -0.2947  Tot=              0.8031
 Quadrupole moment (field-independent basis, Debye-Ang):
   XX=            -45.5165   YY=            -46.0088   ZZ=            -47.6309
   XY=             -5.6605   XZ=             -0.2151   YZ=              0.0745

  Exact polarizability:  74.907  -1.571  59.628  -1.408   0.889  51.478
 Approx polarizability:  94.819   2.303  95.392   0.344   5.023  78.587

                      1                      2                      3
                      A                      A                      A
 Frequencies --     64.6931               124.7421               199.1065
 Red. masses --      5.8380                 3.3292                 3.0160
 Frc consts  --      0.0144                 0.0305                 0.0704
 IR Inten    --      1.8949                 8.3079                 8.2101

                      4                      5                      6
                      A                      A                      A
 Frequencies --    289.4931               314.0814               346.0927
 Red. masses --      2.8444                 2.9844                 2.8734
 Frc consts  --      0.1404                 0.1735                 0.2028
 IR Inten    --      1.1600                 6.9562                 7.9827

                      7                      8                      9
                      A                      A                      A
 Frequencies --    489.5767               575.4873               679.3584
 Red. masses --      3.3220                 4.5353                 3.3321
 Frc consts  --      0.4691                 0.8850                 0.9061
 IR Inten    --      4.9275                 4.0115                 9.6683

                     10                     11                     12
                      A                      A                      A
 Frequencies --    745.2638               806.1652               837.2791
 Red. masses --      1.0448                 3.2333                 1.5834
 Frc consts  --      0.3419                 1.2381                 0.6540
 IR Inten    --      3.9654                54.8806                34.7449

                     13                     14                     15
                      A                      A                      A
 Frequencies --    857.0535               895.2169               949.9494
 Red. masses --      1.8518                 2.5766                 3.2563
 Frc consts  --      0.8014                 1.2166                 1.7313
 IR Inten    --     40.0282                 1.7586                30.3507

                     16                     17                     18
                      A                      A                      A
 Frequencies --    969.1469               995.5771              1040.9617
 Red. masses --      3.2896                 3.0649                 1.6382
 Frc consts  --      1.8204                 1.7899                 1.0459
 IR Inten    --     33.5168                 7.5377                 3.4479

                     19                     20                     21
                      A                      A                      A
 Frequencies --   1046.0132              1067.5499              1082.4473
 Red. masses --      2.2560                 1.5220                 2.2328
 Frc consts  --      1.4543                 1.0220                 1.5414
 IR Inten    --     57.0156                 5.1513                53.2523

                     22                     23                     24
                      A                      A                      A
 Frequencies --   1147.8316              1182.9212              1208.7579
 Red. masses --      2.5616                 1.2512                 1.6388
 Frc consts  --      1.9885                 1.0316                 1.4108
 IR Inten    --     37.4529                 0.0879                 4.0462

                     25                     26                     27
                      A                      A                      A
 Frequencies --   1287.9241              1313.6504              1386.8010
 Red. masses --      1.5521                 1.5279                 1.7054
 Frc consts  --      1.5168                 1.5535                 1.9325
 IR Inten    --      2.5758                 4.1213                95.9758

                     28                     29                     30
                      A                      A                      A
 Frequencies --   1407.7041              1411.3672              1441.7018
 Red. masses --      1.2892                 1.4293                 1.0970
 Frc consts  --      1.5052                 1.6775                 1.3434
 IR Inten    --      7.8912                35.7455                 4.5695

                     31                     32                     33
                      A                      A                      A
 Frequencies --   1506.9067              1830.6760              2911.6773
 Red. masses --      2.1456                10.4956                 1.0854
 Frc consts  --      2.8706                20.7244                 5.4216
 IR Inten    --     76.5166               106.8667                86.7302

                     34                     35                     36
                      A                      A                      A
 Frequencies --   2993.3366              3128.3147              3134.8745
 Red. masses --      1.0845                 1.0534                 1.0549
 Frc consts  --      5.7250                 6.0737                 6.1079
 IR Inten    --     73.9603                 6.0981                 3.7223

                     37                     38                     39
                      A                      A                      A
 Frequencies --   3214.8216              3230.5662              3482.0384
 Red. masses --      1.1183                 1.1157                 1.0738
 Frc consts  --      6.8095                 6.8606                 7.6706
 IR Inten    --      0.5989                 4.9222                12.9240

 - Thermochemistry -
 -------------------
 Temperature   298.150 Kelvin.  Pressure   1.00000 Atm.
 Atom     1 has atomic number  8 and mass  15.99491

 Molecular mass:   113.04768 amu.
 Principal axes and moments of inertia in atomic units:
                           1         2         3
     Eigenvalues --   362.493751245.142711323.93378
           X            0.99967  -0.02553  -0.00084
           Y            0.02548   0.99906  -0.03513
           Z            0.00174   0.03509   0.99938
 This molecule is an asymmetric top.
 Rotational symmetry number  1.
 Rotational temperatures (Kelvin)      0.23894     0.06956     0.06542
 Rotational constants (GHZ):           4.97868     1.44943     1.36317
 Zero-point vibrational energy     308619.4 (Joules/Mol)
                                   73.76180 (Kcal/Mol)
 Warning -- explicit consideration of   8 degrees of freedom as
           vibrations may cause significant error
 Vibrational temperatures:     93.08   179.48   286.47   416.52   451.89
          (Kelvin)            497.95   704.39   828.00   977.45  1072.27
                             1159.89  1204.66  1233.11  1288.02  1366.77
                             1394.39  1432.41  1497.71  1504.98  1535.97
                             1557.40  1651.47  1701.96  1739.13  1853.04
                             1890.05  1995.30  2025.37  2030.64  2074.29
                             2168.10  2633.93  4189.25  4306.74  4500.95
                             4510.39  4625.41  4648.06  5009.88

 Zero-point correction=                           0.117547 (Hartree/Particle)
 Thermal correction to Energy=                    0.124875
 Thermal correction to Enthalpy=                  0.125819
 Thermal correction to Gibbs Free Energy=         0.085536
 Sum of electronic and zero-point Energies=           -399.751457
 Sum of electronic and thermal Energies=              -399.744129
 Sum of electronic and thermal Enthalpies=            -399.743184
 Sum of electronic and thermal Free Energies=         -399.783467

                     E (Thermal)             CV                S
                      KCal/Mol        Cal/Mol-Kelvin    Cal/Mol-Kelvin
 Total                   78.360             26.851             84.782
 Electronic               0.000              0.000              0.000
 Translational            0.889              2.981             40.084
 Rotational               0.889              2.981             27.882
 Vibrational             76.583             20.890             16.817
 Vibration     1          0.597              1.971              4.309
 Vibration     2          0.610              1.928              3.026
 Vibration     3          0.637              1.841              2.141
 Vibration     4          0.686              1.693              1.477
 Vibration     5          0.702              1.647              1.341
 Vibration     6          0.724              1.583              1.184
 Vibration     7          0.845              1.273              0.685
 Vibration     8          0.932              1.084              0.494

                           ! Non-Optimized Parameters !
 Normal termination of Gaussian 16 at Thu Aug  4 06:50:33 2022.
