 Gaussian 16, Revision A.03,
 Gaussian 16:  ES64L-G16RevA.03 25-Dec-2016

 -----------------------------
 # opt freq b3lyp/6-31g(2df,p)
 -----------------------------

 -------------------
 Title Card Required
 -------------------
 Symbolic Z-matrix:
 Charge =  0 Multiplicity = 1

 SCF Done:  E(RB3LYP) =  -347.797894492     A.U. after   14 cycles
 SCF Done:  E(RB3LYP) =  -347.831262165     A.U. after   12 cycles
 SCF Done:  E(RB3LYP) =  -347.867015751     A.U. after   13 cycles
 SCF Done:  E(RB3LYP) =  -347.871074544     A.U. after   12 cycles
 SCF Done:  E(RB3LYP) =  -347.868686028     A.U. after   13 cycles
 SCF Done:  E(RB3LYP) =  -347.871685109     A.U. after   12 cycles
 SCF Done:  E(RB3LYP) =  -347.872942785     A.U. after   12 cycles
 SCF Done:  E(RB3LYP) =  -347.873040843     A.U. after   12 cycles
 SCF Done:  E(RB3LYP) =  -347.873062238     A.U. after   11 cycles
 SCF Done:  E(RB3LYP) =  -347.873064752     A.U. after    8 cycles
 SCF Done:  E(RB3LYP) =  -347.873065722     A.U. after    8 cycles
 Optimization completed.
    -- Stationary point found.
 Normal termination of Gaussian 16 at Wed Aug  3 23:52:23 2022.

 ----------------------------------------------------------------------
 #N Geom=AllCheck Guess=TCheck SCRF=Check GenChk RB3LYP/6-31G(2df,p) Fr
 eq
 ----------------------------------------------------------------------

 Structure from the checkpoint file:  "OdCC1CC2CCC12.chk"
 -------------------
 Title Card Required
 -------------------
 Charge =  0 Multiplicity = 1

                         Standard orientation:
 ---------------------------------------------------------------------
 Center     Atomic      Atomic             Coordinates (Angstroms)
 Number     Number       Type             X           Y           Z
 ---------------------------------------------------------------------
      1          8           0        1.908831   -1.334381   -0.471041
      2          6           0        2.025192   -0.219173   -0.025997
      3          6           0        0.955533    0.551157    0.693410
      4          6           0        0.270765    1.674808   -0.257688
      5          6           0       -0.762837    0.547291   -0.581637
      6          6           0       -2.208288   -0.047865   -0.487111
      7          6           0       -1.517431   -1.174178    0.413512
      8          6           0       -0.487486   -0.048774    0.761300
      9          1           0        2.984539    0.339622   -0.137467
     10          1           0        1.385139    0.946524    1.621982
     11          1           0        0.873409    2.083544   -1.073743
     12          1           0       -0.115048    2.489648    0.359076
     13          1           0       -0.258007   -0.086750   -1.320055
     14          1           0       -2.700826   -0.361906   -1.410614
     15          1           0       -2.895368    0.556995    0.111167
     16          1           0       -1.092551   -1.965143   -0.206538
     17          1           0       -2.105545   -1.607529    1.226138
     18          1           0       -0.999073    0.580447    1.503654
 ---------------------------------------------------------------------

 SCF Done:  E(RB3LYP) =  -347.873065722     A.U. after    1 cycles

 The electronic state is 1-A.
 Alpha  occ. eigenvalues --  -19.13845 -10.26995 -10.21023 -10.20803 -10.19411
 Alpha  occ. eigenvalues --  -10.19159 -10.18428 -10.18256  -1.04445  -0.88292
 Alpha  occ. eigenvalues --   -0.78012  -0.68264  -0.64566  -0.61402  -0.57861
 Alpha  occ. eigenvalues --   -0.54064  -0.47804  -0.46807  -0.44173  -0.43408
 Alpha  occ. eigenvalues --   -0.42801  -0.39978  -0.38375  -0.36243  -0.35035
 Alpha  occ. eigenvalues --   -0.31862  -0.31581  -0.31288  -0.25822  -0.23883
 Alpha virt. eigenvalues --   -0.02278   0.07568   0.08686   0.10525   0.11457
 Alpha virt. eigenvalues --    0.11816   0.13801   0.14513   0.15966   0.17105
 Alpha virt. eigenvalues --    0.18025   0.19132   0.20001   0.21118   0.21265

 Mulliken charges:
               1
     1  O   -0.247619
     2  C    0.158970
     3  C   -0.181489
     4  C   -0.317875
     5  C    0.075728
     6  C   -0.289774
     7  C   -0.286609
     8  C    0.080732
     9  H    0.073652
    10  H    0.089329
    11  H    0.107351
    12  H    0.116612
    13  H    0.106124
    14  H    0.101143
    15  H    0.107206
    16  H    0.131555
    17  H    0.097206
    18  H    0.077760
 Sum of Mulliken charges =  -0.00000

 Dipole moment (field-independent basis, Debye):
    X=             -0.5824    Y=              2.1440    Z=              0.8619  Tot=              2.3830
 Quadrupole moment (field-independent basis, Debye-Ang):
   XX=            -48.0675   YY=            -50.7507   ZZ=            -47.7011
   XY=              4.4998   XZ=              1.2459   YZ=             -0.2081

  Exact polarizability:  85.773   6.368  74.562  -0.453   2.572  62.650
 Approx polarizability: 113.002   6.990 117.377  -0.902   8.068  99.676

                      1                      2                      3
                      A                      A                      A
 Frequencies --     92.9124               131.6895               224.9935
 Red. masses --      3.8091                 4.9973                 2.1697
 Frc consts  --      0.0194                 0.0511                 0.0647
 IR Inten    --      4.8484                 4.4830                 1.2273

                      4                      5                      6
                      A                      A                      A
 Frequencies --    320.9401               338.6843               419.2638
 Red. masses --      3.3202                 2.0550                 2.9751
 Frc consts  --      0.2015                 0.1389                 0.3081
 IR Inten    --      1.4980                 0.5650                 4.3788

                      7                      8                      9
                      A                      A                      A
 Frequencies --    466.5062               640.2539               682.8256
 Red. masses --      2.4599                 2.4867                 3.1316
 Frc consts  --      0.3154                 0.6006                 0.8603
 IR Inten    --      2.6313                 7.5401                 0.3330

                     10                     11                     12
                      A                      A                      A
 Frequencies --    729.2672               794.9112               798.8869
 Red. masses --      3.2572                 1.9726                 3.0709
 Frc consts  --      1.0206                 0.7344                 1.1548
 IR Inten    --      0.7672                 6.1010                 4.3686

                     13                     14                     15
                      A                      A                      A
 Frequencies --    847.1491               863.6880               892.5408
 Red. masses --      1.7208                 2.8182                 1.8491
 Frc consts  --      0.7276                 1.2386                 0.8679
 IR Inten    --     11.6608                 0.1913                 8.6323

                     16                     17                     18
                      A                      A                      A
 Frequencies --    958.2282               979.6679              1025.6302
 Red. masses --      1.6525                 1.3641                 1.4272
 Frc consts  --      0.8940                 0.7713                 0.8845
 IR Inten    --     10.5450                 6.1581                 4.4364

                     19                     20                     21
                      A                      A                      A
 Frequencies --   1055.0973              1074.3555              1112.4958
 Red. masses --      1.9151                 2.3487                 1.8269
 Frc consts  --      1.2561                 1.5972                 1.3322
 IR Inten    --      4.5095                 0.2615                 3.1724

                     22                     23                     24
                      A                      A                      A
 Frequencies --   1121.2724              1151.1873              1164.5920
 Red. masses --      2.0744                 1.9953                 1.4959
 Frc consts  --      1.5366                 1.5580                 1.1953
 IR Inten    --      0.8005                 2.1527                 2.6907

                     25                     26                     27
                      A                      A                      A
 Frequencies --   1189.8920              1209.1503              1218.9240
 Red. masses --      1.4289                 1.3167                 1.3274
 Frc consts  --      1.1920                 1.1342                 1.1620
 IR Inten    --      8.4347                 1.9554                 3.8241

                     28                     29                     30
                      A                      A                      A
 Frequencies --   1225.0418              1231.5219              1298.1482
 Red. masses --      1.3909                 1.4346                 1.3878
 Frc consts  --      1.2298                 1.2819                 1.3779
 IR Inten    --      0.9237                 0.4970                 2.9916

                     31                     32                     33
                      A                      A                      A
 Frequencies --   1335.7828              1411.2990              1430.1649
 Red. masses --      1.7127                 1.1719                 1.2072
 Frc consts  --      1.8005                 1.3753                 1.4548
 IR Inten    --      8.4931                17.7077                 1.2260

                     34                     35                     36
                      A                      A                      A
 Frequencies --   1443.3765              1483.8850              1484.7931
 Red. masses --      1.1570                 1.1139                 1.0941
 Frc consts  --      1.4201                 1.4451                 1.4212
 IR Inten    --      1.2777                 0.3934                 3.7865

                     37                     38                     39
                      A                      A                      A
 Frequencies --   1495.0666              1816.5526              2851.4906
 Red. masses --      1.1218                10.2833                 1.0815
 Frc consts  --      1.4774                19.9930                 5.1812
 IR Inten    --      0.0570               133.8966               141.6371

                     40                     41                     42
                      A                      A                      A
 Frequencies --   2987.9047              3033.0660              3038.0250
 Red. masses --      1.0811                 1.0820                 1.0830
 Frc consts  --      5.6867                 5.8646                 5.8895
 IR Inten    --     22.0107                10.3869                39.1256

                     43                     44                     45
                      A                      A                      A
 Frequencies --   3055.7731              3057.7433              3069.5818
 Red. masses --      1.0576                 1.0583                 1.0592
 Frc consts  --      5.8186                 5.8299                 5.8802
 IR Inten    --     58.4981                52.4134                45.0547

                     46                     47                     48
                      A                      A                      A
 Frequencies --   3116.6975              3122.7658              3141.6243
 Red. masses --      1.1101                 1.1087                 1.1077
 Frc consts  --      6.3531                 6.3700                 6.4411
 IR Inten    --     15.7593                26.0708                34.5136

 - Thermochemistry -
 -------------------
 Temperature   298.150 Kelvin.  Pressure   1.00000 Atm.
 Atom     1 has atomic number  8 and mass  15.99491

 Molecular mass:   110.07317 amu.
 Principal axes and moments of inertia in atomic units:
                           1         2         3
     Eigenvalues --   509.121461026.276331266.83070
           X            0.99847   0.05524   0.00382
           Y           -0.05525   0.99847   0.00281
           Z           -0.00366  -0.00301   0.99999
 This molecule is an asymmetric top.
 Rotational symmetry number  1.
 Warning -- assumption of classical behavior for rotation
           may cause significant error
 Rotational temperatures (Kelvin)      0.17012     0.08440     0.06837
 Rotational constants (GHZ):           3.54481     1.75853     1.42461
 Zero-point vibrational energy     404549.0 (Joules/Mol)
                                   96.68953 (Kcal/Mol)
 Warning -- explicit consideration of   7 degrees of freedom as
           vibrations may cause significant error
 Vibrational temperatures:    133.68   189.47   323.72   461.76   487.29
          (Kelvin)            603.23   671.20   921.18   982.43  1049.25
                             1143.70  1149.42  1218.86  1242.65  1284.17
                             1378.68  1409.52  1475.65  1518.05  1545.76
                             1600.63  1613.26  1656.30  1675.59  1711.99
                             1739.70  1753.76  1762.56  1771.89  1867.75
                             1921.89  2030.54  2057.69  2076.70  2134.98
                             2136.29  2151.07  2613.61  4102.66  4298.93
                             4363.91  4371.04  4396.58  4399.41  4416.44
                             4484.23  4492.96  4520.10

 Zero-point correction=                           0.154085 (Hartree/Particle)
 Thermal correction to Energy=                    0.161273
 Thermal correction to Enthalpy=                  0.162217
 Thermal correction to Gibbs Free Energy=         0.122561
 Sum of electronic and zero-point Energies=           -347.718981
 Sum of electronic and thermal Energies=              -347.711793
 Sum of electronic and thermal Enthalpies=            -347.710849
 Sum of electronic and thermal Free Energies=         -347.750505

                     E (Thermal)             CV                S
                      KCal/Mol        Cal/Mol-Kelvin    Cal/Mol-Kelvin
 Total                  101.200             27.764             83.463
 Electronic               0.000              0.000              0.000
 Translational            0.889              2.981             40.004
 Rotational               0.889              2.981             27.984
 Vibrational             99.423             21.802             15.475
 Vibration     1          0.602              1.954              3.598
 Vibration     2          0.612              1.922              2.921
 Vibration     3          0.650              1.803              1.919
 Vibration     4          0.706              1.633              1.305
 Vibration     5          0.719              1.598              1.218
 Vibration     6          0.782              1.428              0.894
 Vibration     7          0.824              1.324              0.747

 Optimization completed.
    -- Stationary point found.
 Normal termination of Gaussian 16 at Thu Aug  4 00:16:57 2022.
