 Gaussian 16, Revision A.03,
 Gaussian 16:  ES64L-G16RevA.03 25-Dec-2016

 -----------------------------
 # opt freq b3lyp/6-31g(2df,p)
 -----------------------------

 -------------------
 Title Card Required
 -------------------
 Symbolic Z-matrix:
 Charge =  0 Multiplicity = 1

 SCF Done:  E(RB3LYP) =  -345.414206354     A.U. after   14 cycles
 SCF Done:  E(RB3LYP) =  -345.439994744     A.U. after   14 cycles
 SCF Done:  E(RB3LYP) =  -345.454235390     A.U. after   14 cycles
 SCF Done:  E(RB3LYP) =  -345.453879521     A.U. after   13 cycles
 SCF Done:  E(RB3LYP) =  -345.460504665     A.U. after   14 cycles
 SCF Done:  E(RB3LYP) =  -345.461130472     A.U. after   13 cycles
 SCF Done:  E(RB3LYP) =  -345.461268216     A.U. after   12 cycles
 SCF Done:  E(RB3LYP) =  -345.461280808     A.U. after   11 cycles
 SCF Done:  E(RB3LYP) =  -345.461290634     A.U. after    9 cycles
 SCF Done:  E(RB3LYP) =  -345.461290932     A.U. after    7 cycles
 Optimization completed.
    -- Stationary point found.
 Normal termination of Gaussian 16 at Thu Aug  4 04:28:05 2022.

 ----------------------------------------------------------------------
 #N Geom=AllCheck Guess=TCheck SCRF=Check GenChk RB3LYP/6-31G(2df,p) Fr
 eq
 ----------------------------------------------------------------------

 Structure from the checkpoint file:  "OdCC1dCC2CdCC12.chk"
 -------------------
 Title Card Required
 -------------------
 Charge =  0 Multiplicity = 1

                         Standard orientation:
 ---------------------------------------------------------------------
 Center     Atomic      Atomic             Coordinates (Angstroms)
 Number     Number       Type             X           Y           Z
 ---------------------------------------------------------------------
      1          8           0       -2.927367    0.080815   -0.369928
      2          6           0       -1.971586   -0.541369    0.038066
      3          6           0       -0.631324    0.025315    0.216682
      4          6           0       -0.100509    1.233131   -0.053689
      5          6           0        1.300476    0.845553    0.402378
      6          6           0        2.177138    0.104497   -0.611101
      7          6           0        1.662711   -1.097533   -0.332576
      8          6           0        0.690325   -0.570746    0.722782
      9          1           0       -2.062780   -1.616162    0.314376
     10          1           0       -0.506230    2.138915   -0.487425
     11          1           0        1.782432    1.450887    1.171450
     12          1           0        2.902547    0.467338   -1.328904
     13          1           0        1.817319   -2.091279   -0.735069
     14          1           0        0.722255   -0.989296    1.729746
 ---------------------------------------------------------------------

 SCF Done:  E(RB3LYP) =  -345.461290932     A.U. after    1 cycles

 The electronic state is 1-A.
 Alpha  occ. eigenvalues --  -19.13328 -10.26719 -10.21088 -10.20992 -10.20764
 Alpha  occ. eigenvalues --  -10.19997 -10.19866 -10.19749  -1.03774  -0.90869
 Alpha  occ. eigenvalues --   -0.78472  -0.68897  -0.64820  -0.61312  -0.54686
 Alpha  occ. eigenvalues --   -0.51577  -0.50301  -0.49926  -0.44141  -0.42447
 Alpha  occ. eigenvalues --   -0.39517  -0.38386  -0.36061  -0.33421  -0.32073
 Alpha  occ. eigenvalues --   -0.27072  -0.25643  -0.24737
 Alpha virt. eigenvalues --   -0.06750   0.00372   0.07312   0.10908   0.11886
 Alpha virt. eigenvalues --    0.12576   0.13644   0.15013   0.15502   0.17482
 Alpha virt. eigenvalues --    0.18629   0.18704   0.25155   0.28045   0.29292

 Mulliken charges:
               1
     1  O   -0.256387
     2  C    0.042751
     3  C    0.258800
     4  C   -0.185196
     5  C   -0.090673
     6  C   -0.090130
     7  C   -0.090444
     8  C   -0.200360
     9  H    0.067183
    10  H    0.130917
    11  H    0.098362
    12  H    0.109730
    13  H    0.109983
    14  H    0.095464
 Sum of Mulliken charges =   0.00000

 Dipole moment (field-independent basis, Debye):
    X=              2.9568    Y=             -0.3705    Z=              0.6581  Tot=              3.0517
 Quadrupole moment (field-independent basis, Debye-Ang):
   XX=            -54.3779   YY=            -41.3234   ZZ=            -44.6131
   XY=              2.3856   XZ=             -2.7049   YZ=             -0.3207

  Exact polarizability:  86.510   5.282  73.354  -2.391  -3.515  48.895
 Approx polarizability: 130.777  16.840 131.587  -2.040 -10.583  76.960

                      1                      2                      3
                      A                      A                      A
 Frequencies --    102.8076               168.6745               193.9417
 Red. masses --      4.9137                 3.0937                 3.4586
 Frc consts  --      0.0306                 0.0519                 0.0766
 IR Inten    --      5.1974                 3.9228                 4.5188

                      4                      5                      6
                      A                      A                      A
 Frequencies --    348.7219               413.5378               452.9649
 Red. masses --      2.7833                 3.9652                 3.3110
 Frc consts  --      0.1994                 0.3995                 0.4003
 IR Inten    --      2.4882                 1.3217                 8.9844

                      7                      8                      9
                      A                      A                      A
 Frequencies --    545.2686               762.5682               788.3048
 Red. masses --      3.1147                 2.5404                 1.6279
 Frc consts  --      0.5456                 0.8704                 0.5960
 IR Inten    --      3.6693                18.0705                71.7136

                     10                     11                     12
                      A                      A                      A
 Frequencies --    836.4045               862.0088               878.1703
 Red. masses --      1.8536                 2.5356                 1.7978
 Frc consts  --      0.7640                 1.1101                 0.8169
 IR Inten    --      4.9477                30.8925                10.1710

                     13                     14                     15
                      A                      A                      A
 Frequencies --    917.8673               945.7585               957.1093
 Red. masses --      1.8090                 2.6780                 2.1472
 Frc consts  --      0.8980                 1.4113                 1.1589
 IR Inten    --     15.3019                 1.2708                 5.2628

                     16                     17                     18
                      A                      A                      A
 Frequencies --    965.2702               993.2402              1039.6730
 Red. masses --      1.8732                 2.5779                 1.8638
 Frc consts  --      1.0283                 1.4984                 1.1870
 IR Inten    --      1.1194                 8.7203                 0.2434

                     19                     20                     21
                      A                      A                      A
 Frequencies --   1051.4687              1122.7648              1149.1554
 Red. masses --      1.4485                 1.8901                 1.6534
 Frc consts  --      0.9435                 1.4039                 1.2865
 IR Inten    --      7.0065                 4.4203                 1.0359

                     22                     23                     24
                      A                      A                      A
 Frequencies --   1177.2524              1200.1782              1210.4263
 Red. masses --      1.6192                 1.4196                 1.9339
 Frc consts  --      1.3222                 1.2047                 1.6694
 IR Inten    --      2.3567                 0.6855                 6.4547

                     25                     26                     27
                      A                      A                      A
 Frequencies --   1245.1032              1288.7009              1433.5523
 Red. masses --      2.1413                 1.7306                 1.2756
 Frc consts  --      1.9559                 1.6933                 1.5446
 IR Inten    --     22.0328                27.2960                 2.6266

                     28                     29                     30
                      A                      A                      A
 Frequencies --   1618.7917              1645.1269              1782.6187
 Red. masses --      5.8591                 7.8396                 9.9514
 Frc consts  --      9.0462                12.5009                18.6317
 IR Inten    --     34.7792                92.8311               161.8493

                     31                     32                     33
                      A                      A                      A
 Frequencies --   2875.5729              3102.6410              3109.3881
 Red. masses --      1.0816                 1.0860                 1.0875
 Frc consts  --      5.2695                 6.1593                 6.1946
 IR Inten    --    130.2851                12.6886                23.8491

                     34                     35                     36
                      A                      A                      A
 Frequencies --   3189.5972              3212.1707              3222.4856
 Red. masses --      1.0838                 1.0992                 1.1152
 Frc consts  --      6.4967                 6.6821                 6.8233
 IR Inten    --      9.2626                 8.2794                20.2745

 - Thermochemistry -
 -------------------
 Temperature   298.150 Kelvin.  Pressure   1.00000 Atm.
 Atom     1 has atomic number  8 and mass  15.99491

 Molecular mass:   106.04186 amu.
 Principal axes and moments of inertia in atomic units:
                           1         2         3
     Eigenvalues --   313.475751244.378051387.47438
           X            0.99995   0.00614  -0.00742
           Y           -0.00626   0.99985  -0.01640
           Z            0.00732   0.01644   0.99984
 This molecule is an asymmetric top.
 Rotational symmetry number  1.
 Rotational temperatures (Kelvin)      0.27630     0.06960     0.06243
 Rotational constants (GHZ):           5.75720     1.45032     1.30074
 Zero-point vibrational energy     279981.7 (Joules/Mol)
                                   66.91724 (Kcal/Mol)
 Warning -- explicit consideration of   7 degrees of freedom as
           vibrations may cause significant error
 Vibrational temperatures:    147.92   242.68   279.04   501.73   594.99
          (Kelvin)            651.72   784.52  1097.17  1134.19  1203.40
                             1240.24  1263.49  1320.61  1360.74  1377.07
                             1388.81  1429.05  1495.86  1512.83  1615.41
                             1653.38  1693.80  1726.79  1741.53  1791.43
                             1854.15  2062.56  2329.08  2366.97  2564.79
                             4137.31  4464.01  4473.72  4589.12  4621.60
                             4636.44

 Zero-point correction=                           0.106639 (Hartree/Particle)
 Thermal correction to Energy=                    0.113272
 Thermal correction to Enthalpy=                  0.114216
 Thermal correction to Gibbs Free Energy=         0.075663
 Sum of electronic and zero-point Energies=           -345.354652
 Sum of electronic and thermal Energies=              -345.348019
 Sum of electronic and thermal Enthalpies=            -345.347075
 Sum of electronic and thermal Free Energies=         -345.385628

                     E (Thermal)             CV                S
                      KCal/Mol        Cal/Mol-Kelvin    Cal/Mol-Kelvin
 Total                   71.079             24.699             81.142
 Electronic               0.000              0.000              0.000
 Translational            0.889              2.981             39.893
 Rotational               0.889              2.981             27.784
 Vibrational             69.302             18.737             13.465
 Vibration     1          0.605              1.947              3.400
 Vibration     2          0.625              1.881              2.450
 Vibration     3          0.635              1.848              2.190
 Vibration     4          0.726              1.578              1.172
 Vibration     5          0.777              1.441              0.914
 Vibration     6          0.812              1.354              0.787
 Vibration     7          0.900              1.150              0.554

 Optimization completed.
    -- Stationary point found.
 Normal termination of Gaussian 16 at Thu Aug  4 04:49:45 2022.
