 Gaussian 16, Revision A.03,
 Gaussian 16:  ES64L-G16RevA.03 25-Dec-2016

 -----------------------------
 # opt freq b3lyp/6-31g(2df,p)
 -----------------------------

 -------------------
 Title Card Required
 -------------------
 Symbolic Z-matrix:
 Charge =  0 Multiplicity = 1

 SCF Done:  E(RB3LYP) =  -455.187199575     A.U. after   14 cycles
 SCF Done:  E(RB3LYP) =  -455.198339809     A.U. after   12 cycles
 SCF Done:  E(RB3LYP) =  -455.198247460     A.U. after   13 cycles
 SCF Done:  E(RB3LYP) =  -455.203663470     A.U. after   13 cycles
 SCF Done:  E(RB3LYP) =  -455.206601181     A.U. after   13 cycles
 SCF Done:  E(RB3LYP) =  -455.208792831     A.U. after   15 cycles
 SCF Done:  E(RB3LYP) =  -455.209251077     A.U. after   12 cycles
 SCF Done:  E(RB3LYP) =  -455.209565433     A.U. after   12 cycles
 SCF Done:  E(RB3LYP) =  -455.209648523     A.U. after   12 cycles
 SCF Done:  E(RB3LYP) =  -455.209716272     A.U. after   11 cycles
 SCF Done:  E(RB3LYP) =  -455.209734243     A.U. after   10 cycles
 SCF Done:  E(RB3LYP) =  -455.209734969     A.U. after    8 cycles
 Optimization completed.
    -- Stationary point found.
 Normal termination of Gaussian 16 at Sun Jul  3 17:23:03 2022.

 ----------------------------------------------------------------------
 #N Geom=AllCheck Guess=TCheck SCRF=Check GenChk RB3LYP/6-31G(2df,p) Fr
 eq
 ----------------------------------------------------------------------

 Structure from the checkpoint file:  "OdCC1NCCN2OC12.chk"
 -------------------
 Title Card Required
 -------------------
 Charge =  0 Multiplicity = 1

                         Standard orientation:
 ---------------------------------------------------------------------
 Center     Atomic      Atomic             Coordinates (Angstroms)
 Number     Number       Type             X           Y           Z
 ---------------------------------------------------------------------
      1          8           0        2.710952    0.307568   -0.608789
      2          6           0        2.069424   -0.541359   -0.046707
      3          6           0        0.733128   -0.280766    0.635201
      4          7           0        0.432637    1.135556    0.642229
      5          6           0       -0.968688    1.472207    0.415054
      6          6           0       -1.562469    0.765165   -0.804761
      7          7           0       -1.391675   -0.700163   -0.814734
      8          8           0       -1.593331   -1.228379    0.577604
      9          6           0       -0.321317   -1.192945   -0.004040
     10          1           0        2.424507   -1.592514    0.015037
     11          1           0        0.858867   -0.671667    1.664203
     12          1           0        1.037831    1.586646   -0.037558
     13          1           0       -1.044790    2.555563    0.284365
     14          1           0       -1.551117    1.209042    1.303116
     15          1           0       -1.079799    1.107358   -1.729936
     16          1           0       -2.635565    0.961571   -0.900206
     17          1           0        0.061891   -2.171070   -0.310500
 ---------------------------------------------------------------------

 SCF Done:  E(RB3LYP) =  -455.209734969     A.U. after    1 cycles

 The electronic state is 1-A.
 Alpha  occ. eigenvalues --  -19.18168 -19.16630 -14.39344 -14.32567 -10.29312
 Alpha  occ. eigenvalues --  -10.28251 -10.24222 -10.22034 -10.21629  -1.12266
 Alpha  occ. eigenvalues --   -1.07367  -0.92424  -0.83225  -0.77891  -0.69895
 Alpha  occ. eigenvalues --   -0.66067  -0.60948  -0.57547  -0.52799  -0.50373
 Alpha  occ. eigenvalues --   -0.49256  -0.47597  -0.46068  -0.44751  -0.42368
 Alpha  occ. eigenvalues --   -0.41322  -0.40632  -0.38901  -0.36266  -0.33908
 Alpha  occ. eigenvalues --   -0.32348  -0.28108  -0.25849  -0.22822
 Alpha virt. eigenvalues --   -0.04411   0.03962   0.07872   0.08679   0.10014
 Alpha virt. eigenvalues --    0.12217   0.13389   0.14134   0.14734   0.15809
 Alpha virt. eigenvalues --    0.16902   0.17276   0.20256   0.21879   0.23451

 Mulliken charges:
               1
     1  O   -0.240041
     2  C    0.147313
     3  C   -0.082353
     4  N   -0.316235
     5  C   -0.170408
     6  C   -0.133704
     7  N   -0.085453
     8  O   -0.263901
     9  C    0.106902
    10  H    0.099252
    11  H    0.117878
    12  H    0.235117
    13  H    0.110950
    14  H    0.129194
    15  H    0.117762
    16  H    0.122912
    17  H    0.104815
 Sum of Mulliken charges =  -0.00000

 Dipole moment (field-independent basis, Debye):
    X=              0.2029    Y=              0.0296    Z=              0.0523  Tot=              0.2116
 Quadrupole moment (field-independent basis, Debye-Ang):
   XX=            -58.8329   YY=            -49.9302   ZZ=            -53.8257
   XY=             -8.7684   XZ=              2.3532   YZ=             -2.4718

  Exact polarizability:  76.722  -5.560  72.082  -0.743  -4.808  57.232
 Approx polarizability: 109.071   0.710 107.387  -7.240 -13.946  97.534

                      1                      2                      3
                      A                      A                      A
 Frequencies --     70.0657               117.3791               252.9823
 Red. masses --      3.8818                 4.9310                 3.4036
 Frc consts  --      0.0112                 0.0400                 0.1283
 IR Inten    --      3.4256                 8.4119                 9.8456

                      4                      5                      6
                      A                      A                      A
 Frequencies --    287.1563               299.4627               361.5989
 Red. masses --      3.1055                 2.7858                 2.7071
 Frc consts  --      0.1509                 0.1472                 0.2086
 IR Inten    --      0.3552                 8.9919                 2.3439

                      7                      8                      9
                      A                      A                      A
 Frequencies --    401.2629               476.7357               572.1587
 Red. masses --      6.0852                 4.9384                 3.3248
 Frc consts  --      0.5773                 0.6613                 0.6413
 IR Inten    --      3.7443                 2.2989                 4.6792

                     10                     11                     12
                      A                      A                      A
 Frequencies --    662.0334               714.3630               729.4867
 Red. masses --      2.3359                 4.0716                 2.4748
 Frc consts  --      0.6032                 1.2242                 0.7759
 IR Inten    --     10.9301                20.7684                68.1153

                     13                     14                     15
                      A                      A                      A
 Frequencies --    757.4306               789.9381               852.3404
 Red. masses --      3.8126                 3.7279                 1.8517
 Frc consts  --      1.2887                 1.3706                 0.7926
 IR Inten    --     14.9167                25.2357                17.8753

                     16                     17                     18
                      A                      A                      A
 Frequencies --    903.3875               929.7414               976.2370
 Red. masses --      2.6433                 2.5582                 2.6858
 Frc consts  --      1.2710                 1.3029                 1.5081
 IR Inten    --      4.9256                19.6437                 6.8434

                     19                     20                     21
                      A                      A                      A
 Frequencies --   1013.0832              1066.6774              1071.1353
 Red. masses --      1.9469                 2.6862                 2.3598
 Frc consts  --      1.1773                 1.8008                 1.5952
 IR Inten    --      0.8801                 9.1097                 9.6976

                     22                     23                     24
                      A                      A                      A
 Frequencies --   1139.7420              1173.8658              1215.5469
 Red. masses --      2.4041                 1.4226                 2.7549
 Frc consts  --      1.8400                 1.1549                 2.3983
 IR Inten    --     18.2853                 1.1846                12.0365

                     25                     26                     27
                      A                      A                      A
 Frequencies --   1247.7629              1272.6813              1306.0880
 Red. masses --      1.4168                 1.4110                 1.5141
 Frc consts  --      1.2997                 1.3465                 1.5218
 IR Inten    --     11.4715                 7.1472                 2.8313

                     28                     29                     30
                      A                      A                      A
 Frequencies --   1323.4449              1328.1723              1369.6999
 Red. masses --      1.5978                 1.5484                 1.3303
 Frc consts  --      1.6489                 1.6094                 1.4705
 IR Inten    --      6.2426                 6.6601                 3.6165

                     31                     32                     33
                      A                      A                      A
 Frequencies --   1390.5725              1415.6364              1436.7476
 Red. masses --      1.2976                 1.4025                 1.5119
 Frc consts  --      1.4784                 1.6560                 1.8388
 IR Inten    --      5.3389                22.0085                17.7406

                     34                     35                     36
                      A                      A                      A
 Frequencies --   1472.1082              1484.4065              1511.7918
 Red. masses --      1.1011                 1.0920                 1.2219
 Frc consts  --      1.4059                 1.4177                 1.6454
 IR Inten    --      6.6254                 2.6581                28.4781

                     37                     38                     39
                      A                      A                      A
 Frequencies --   1829.1797              2900.0722              2919.6964
 Red. masses --     10.1180                 1.0821                 1.0824
 Frc consts  --     19.9460                 5.3623                 5.4367
 IR Inten    --    146.6100                35.9541                87.8182

                     40                     41                     42
                      A                      A                      A
 Frequencies --   3028.4561              3055.5096              3061.4052
 Red. masses --      1.0620                 1.0618                 1.0865
 Frc consts  --      5.7386                 5.8405                 5.9997
 IR Inten    --     21.9547                28.1490                40.0889

                     43                     44                     45
                      A                      A                      A
 Frequencies --   3080.2092              3101.8598              3511.9484
 Red. masses --      1.0988                 1.1064                 1.0734
 Frc consts  --      6.1421                 6.2721                 7.8001
 IR Inten    --     33.4358                16.9193                21.8488

 - Thermochemistry -
 -------------------
 Temperature   298.150 Kelvin.  Pressure   1.00000 Atm.
 Atom     1 has atomic number  8 and mass  15.99491

 Molecular mass:   128.05858 amu.
 Principal axes and moments of inertia in atomic units:
                           1         2         3
     Eigenvalues --   622.907421275.526481544.91065
           X            0.99806  -0.06083   0.01340
           Y            0.06103   0.99802  -0.01511
           Z           -0.01245   0.01589   0.99980
 This molecule is an asymmetric top.
 Rotational symmetry number  1.
 Warning -- assumption of classical behavior for rotation
           may cause significant error
 Rotational temperatures (Kelvin)      0.13905     0.06790     0.05606
 Rotational constants (GHZ):           2.89729     1.41490     1.16818
 Zero-point vibrational energy     358169.5 (Joules/Mol)
                                   85.60456 (Kcal/Mol)
 Warning -- explicit consideration of   9 degrees of freedom as
           vibrations may cause significant error
 Vibrational temperatures:    100.81   168.88   363.99   413.15   430.86
          (Kelvin)            520.26   577.33   685.92   823.21   952.52
                             1027.81  1049.57  1089.77  1136.54  1226.33
                             1299.77  1337.69  1404.59  1457.60  1534.71
                             1541.12  1639.83  1688.93  1748.90  1795.25
                             1831.10  1879.17  1904.14  1910.94  1970.69
                             2000.72  2036.79  2067.16  2118.04  2135.73
                             2175.13  2631.78  4172.56  4200.79  4357.27
                             4396.20  4404.68  4431.73  4462.88  5052.91

 Zero-point correction=                           0.136420 (Hartree/Particle)
 Thermal correction to Energy=                    0.144129
 Thermal correction to Enthalpy=                  0.145073
 Thermal correction to Gibbs Free Energy=         0.103837
 Sum of electronic and zero-point Energies=           -455.073315
 Sum of electronic and thermal Energies=              -455.065606
 Sum of electronic and thermal Enthalpies=            -455.064662
 Sum of electronic and thermal Free Energies=         -455.105898

                     E (Thermal)             CV                S
                      KCal/Mol        Cal/Mol-Kelvin    Cal/Mol-Kelvin
 Total                   90.442             29.282             86.790
 Electronic               0.000              0.000              0.000
 Translational            0.889              2.981             40.455
 Rotational               0.889              2.981             28.597
 Vibrational             88.665             23.320             17.738
 Vibration     1          0.598              1.968              4.152
 Vibration     2          0.608              1.935              3.143
 Vibration     3          0.664              1.758              1.710
 Vibration     4          0.684              1.698              1.491
 Vibration     5          0.692              1.675              1.420
 Vibration     6          0.736              1.551              1.115
 Vibration     7          0.767              1.467              0.958
 Vibration     8          0.833              1.302              0.719
 Vibration     9          0.928              1.091              0.500

 Optimization completed.
    -- Stationary point found.
 Normal termination of Gaussian 16 at Sun Jul  3 17:48:10 2022.
