 Gaussian 16, Revision A.03,
 Gaussian 16:  ES64L-G16RevA.03 25-Dec-2016

 -----------------------------
 # opt freq b3lyp/6-31g(2df,p)
 -----------------------------

 -------------------
 Title Card Required
 -------------------
 Symbolic Z-matrix:
 Charge =  0 Multiplicity = 1

 SCF Done:  E(RB3LYP) =  -435.605269966     A.U. after   18 cycles
 SCF Done:  E(RB3LYP) =  -435.655637204     A.U. after   15 cycles
 SCF Done:  E(RB3LYP) =  -435.703990264     A.U. after   15 cycles
 SCF Done:  E(RB3LYP) =  -435.723820663     A.U. after   15 cycles
 SCF Done:  E(RB3LYP) =  -435.731751142     A.U. after   15 cycles
 SCF Done:  E(RB3LYP) =  -435.731711657     A.U. after   15 cycles
 SCF Done:  E(RB3LYP) =  -435.736657218     A.U. after   15 cycles
 SCF Done:  E(RB3LYP) =  -435.740648016     A.U. after   15 cycles
 SCF Done:  E(RB3LYP) =  -435.746045556     A.U. after   15 cycles
 SCF Done:  E(RB3LYP) =  -435.752359747     A.U. after   15 cycles
 SCF Done:  E(RB3LYP) =  -435.774230800     A.U. after   13 cycles
 SCF Done:  E(RB3LYP) =  -435.774542892     A.U. after   11 cycles
 SCF Done:  E(RB3LYP) =  -435.774748655     A.U. after   13 cycles
 SCF Done:  E(RB3LYP) =  -435.774780941     A.U. after   11 cycles
 SCF Done:  E(RB3LYP) =  -435.774795388     A.U. after    9 cycles
 SCF Done:  E(RB3LYP) =  -435.774810053     A.U. after   10 cycles
 SCF Done:  E(RB3LYP) =  -435.774812086     A.U. after    9 cycles
 SCF Done:  E(RB3LYP) =  -435.774813252     A.U. after    8 cycles
 SCF Done:  E(RB3LYP) =  -435.774813643     A.U. after    8 cycles
 Optimization completed.
    -- Stationary point found.
 Normal termination of Gaussian 16 at Sun Jul  3 16:33:00 2022.

 ----------------------------------------------------------------------
 #N Geom=AllCheck Guess=TCheck SCRF=Check GenChk RB3LYP/6-31G(2df,p) Fr
 eq
 ----------------------------------------------------------------------

 Structure from the checkpoint file:  "OdCC1NC2OC12O.chk"
 -------------------
 Title Card Required
 -------------------
 Charge =  0 Multiplicity = 1

                         Standard orientation:
 ---------------------------------------------------------------------
 Center     Atomic      Atomic             Coordinates (Angstroms)
 Number     Number       Type             X           Y           Z
 ---------------------------------------------------------------------
      1          8           0        0.317811   -2.059708   -0.678106
      2          6           0       -0.560230   -1.459901   -0.114665
      3          6           0       -0.312708   -0.259031    0.800332
      4          7           0        1.095890    0.046933    0.933777
      5          6           0        1.681145    0.734207   -0.085896
      6          8           0        1.054047    1.289449   -0.964748
      7          6           0       -1.067457    1.052087    0.483757
      8          8           0       -2.079395    0.745007   -0.305213
      9          1           0       -1.625450   -1.747319   -0.221462
     10          1           0       -0.713152   -0.516853    1.794442
     11          1           0        1.675992   -0.586729    1.461900
     12          1           0        2.783143    0.762720   -0.016361
     13          1           0       -2.575963    1.557496   -0.471595
 ---------------------------------------------------------------------

 SCF Done:  E(RB3LYP) =  -435.774813643     A.U. after    1 cycles

 The electronic state is 1-A.
 Alpha  occ. eigenvalues --  -19.21846 -19.14951 -19.12209 -14.36674 -10.28605
 Alpha  occ. eigenvalues --  -10.27763 -10.25150 -10.24171  -1.10584  -1.05820
 Alpha  occ. eigenvalues --   -1.04416  -0.93587  -0.77235  -0.65548  -0.62495
 Alpha  occ. eigenvalues --   -0.58184  -0.54973  -0.50829  -0.48067  -0.46210
 Alpha  occ. eigenvalues --   -0.44645  -0.43544  -0.41582  -0.40745  -0.39237
 Alpha  occ. eigenvalues --   -0.37752  -0.28554  -0.27421  -0.26129  -0.20723
 Alpha virt. eigenvalues --   -0.03802  -0.02677   0.01653   0.06100   0.07795
 Alpha virt. eigenvalues --    0.12401   0.13280   0.14148   0.18407   0.22770
 Alpha virt. eigenvalues --    0.24788   0.27064   0.31536   0.33040   0.33513

 Mulliken charges:
               1
     1  O   -0.250335
     2  C    0.163549
     3  C   -0.125998
     4  N   -0.251586
     5  C    0.174525
     6  O   -0.308295
     7  C   -0.053451
     8  O   -0.264847
     9  H    0.098391
    10  H    0.131590
    11  H    0.256547
    12  H    0.098743
    13  H    0.331166
 Sum of Mulliken charges =  -0.00000

 Dipole moment (field-independent basis, Debye):
    X=             -1.4094    Y=             -0.7579    Z=              2.7231  Tot=              3.1585
 Quadrupole moment (field-independent basis, Debye-Ang):
   XX=            -33.4875   YY=            -50.8337   ZZ=            -45.4474
   XY=             -2.5094   XZ=              4.7118   YZ=             -4.6924

  Exact polarizability:  71.836  -3.087  57.030  -0.518  -3.044  49.005
 Approx polarizability: 104.125  -9.597  86.269  -3.331  -8.599  87.463

                      1                      2                      3
                      A                      A                      A
 Frequencies --     59.8669                94.3353               125.3291
 Red. masses --      6.8179                 6.3710                 6.5225
 Frc consts  --      0.0144                 0.0334                 0.0604
 IR Inten    --     10.2468                 4.4111                10.2173

                      4                      5                      6
                      A                      A                      A
 Frequencies --    202.8927               242.5268               267.5372
 Red. masses --      2.6597                 9.2026                 3.4341
 Frc consts  --      0.0645                 0.3189                 0.1448
 IR Inten    --     45.7167                 8.0377                 7.3363

                      7                      8                      9
                      A                      A                      A
 Frequencies --    379.7851               462.2547               507.8453
 Red. masses --      5.4537                 5.6572                 1.2406
 Frc consts  --      0.4635                 0.7122                 0.1885
 IR Inten    --      9.3594                19.4162                59.3782

                     10                     11                     12
                      A                      A                      A
 Frequencies --    544.2906               668.9994               750.5131
 Red. masses --      3.7529                 4.2360                 2.1910
 Frc consts  --      0.6550                 1.1170                 0.7271
 IR Inten    --     15.6809                10.3677                94.9992

                     13                     14                     15
                      A                      A                      A
 Frequencies --    796.2466               880.8032               955.9939
 Red. masses --      1.7428                 3.0133                 2.1848
 Frc consts  --      0.6510                 1.3774                 1.1765
 IR Inten    --     33.9292                 5.8028                14.2181

                     16                     17                     18
                      A                      A                      A
 Frequencies --   1004.7972              1024.9056              1059.3688
 Red. masses --      2.2836                 1.6449                 2.3328
 Frc consts  --      1.3584                 1.0180                 1.5425
 IR Inten    --     40.5655                 1.1719                34.3402

                     19                     20                     21
                      A                      A                      A
 Frequencies --   1180.2716              1219.3071              1277.9206
 Red. masses --      1.4006                 2.0781                 2.1497
 Frc consts  --      1.1495                 1.8203                 2.0684
 IR Inten    --     17.1293                44.0272               125.1692

                     22                     23                     24
                      A                      A                      A
 Frequencies --   1313.7908              1352.6040              1410.0052
 Red. masses --      3.5481                 1.3926                 1.2179
 Frc consts  --      3.6083                 1.5011                 1.4266
 IR Inten    --     80.4890                41.3020                13.4605

                     25                     26                     27
                      A                      A                      A
 Frequencies --   1416.1643              1506.2920              1783.2204
 Red. masses --      1.2535                 1.8311                 8.0830
 Frc consts  --      1.4812                 2.4479                15.1437
 IR Inten    --     13.1303                95.1702               195.1550

                     28                     29                     30
                      A                      A                      A
 Frequencies --   1826.0821              2930.6209              2978.6680
 Red. masses --     10.1163                 1.0850                 1.0872
 Frc consts  --     19.8752                 5.4901                 5.6836
 IR Inten    --    131.7785                84.0774               102.8520

                     31                     32                     33
                      A                      A                      A
 Frequencies --   2996.3078              3627.8021              3751.2554
 Red. masses --      1.0805                 1.0775                 1.0665
 Frc consts  --      5.7153                 8.3550                 8.8424
 IR Inten    --      8.3160                27.4716               115.2558

 - Thermochemistry -
 -------------------
 Temperature   298.150 Kelvin.  Pressure   1.00000 Atm.
 Atom     1 has atomic number  8 and mass  15.99491

 Molecular mass:   115.02694 amu.
 Principal axes and moments of inertia in atomic units:
                           1         2         3
     Eigenvalues --   744.39573 823.679581195.25031
           X            0.99963   0.01737   0.02103
           Y           -0.01694   0.99965  -0.02050
           Z           -0.02138   0.02014   0.99957
 This molecule is an asymmetric top.
 Rotational symmetry number  1.
 Warning -- assumption of classical behavior for rotation
           may cause significant error
 Rotational temperatures (Kelvin)      0.11635     0.10515     0.07247
 Rotational constants (GHZ):           2.42444     2.19107     1.50993
 Zero-point vibrational energy     242833.6 (Joules/Mol)
                                   58.03862 (Kcal/Mol)
 Warning -- explicit consideration of  10 degrees of freedom as
           vibrations may cause significant error
 Vibrational temperatures:     86.14   135.73   180.32   291.92   348.94
          (Kelvin)            384.93   546.43   665.08   730.68   783.11
                              962.54  1079.82  1145.62  1267.28  1375.46
                             1445.68  1474.61  1524.20  1698.15  1754.31
                             1838.64  1890.25  1946.10  2028.68  2037.54
                             2167.22  2565.66  2627.32  4216.51  4285.64
                             4311.02  5219.60  5397.22

 Zero-point correction=                           0.092490 (Hartree/Particle)
 Thermal correction to Energy=                    0.100667
 Thermal correction to Enthalpy=                  0.101612
 Thermal correction to Gibbs Free Energy=         0.059184
 Sum of electronic and zero-point Energies=           -435.682323
 Sum of electronic and thermal Energies=              -435.674146
 Sum of electronic and thermal Enthalpies=            -435.673202
 Sum of electronic and thermal Free Energies=         -435.715629

                     E (Thermal)             CV                S
                      KCal/Mol        Cal/Mol-Kelvin    Cal/Mol-Kelvin
 Total                   63.170             27.830             89.296
 Electronic               0.000              0.000              0.000
 Translational            0.889              2.981             40.135
 Rotational               0.889              2.981             28.085
 Vibrational             61.392             21.868             21.076
 Vibration     1          0.597              1.973              4.462
 Vibration     2          0.603              1.953              3.568
 Vibration     3          0.610              1.928              3.017
 Vibration     4          0.639              1.836              2.107
 Vibration     5          0.659              1.775              1.784
 Vibration     6          0.673              1.733              1.612
 Vibration     7          0.750              1.513              1.040
 Vibration     8          0.820              1.334              0.760
 Vibration     9          0.863              1.233              0.639
 Vibration    10          0.899              1.152              0.556

                           ! Non-Optimized Parameters !
 Normal termination of Gaussian 16 at Sun Jul  3 16:49:38 2022.
