 Gaussian 16, Revision A.03,
 Gaussian 16:  ES64L-G16RevA.03 25-Dec-2016

 -----------------------------
 # opt freq b3lyp/6-31g(2df,p)
 -----------------------------

 -------------------
 Title Card Required
 -------------------
 Symbolic Z-matrix:
 Charge =  0 Multiplicity = 1

 SCF Done:  E(RB3LYP) =  -423.172179124     A.U. after   13 cycles
 SCF Done:  E(RB3LYP) =  -423.180716387     A.U. after   13 cycles
 SCF Done:  E(RB3LYP) =  -423.183517850     A.U. after   13 cycles
 SCF Done:  E(RB3LYP) =  -423.182613324     A.U. after   13 cycles
 SCF Done:  E(RB3LYP) =  -423.185382073     A.U. after   13 cycles
 SCF Done:  E(RB3LYP) =  -423.186568207     A.U. after   13 cycles
 SCF Done:  E(RB3LYP) =  -423.187121291     A.U. after   15 cycles
 SCF Done:  E(RB3LYP) =  -423.187360999     A.U. after   13 cycles
 SCF Done:  E(RB3LYP) =  -423.187523515     A.U. after   11 cycles
 SCF Done:  E(RB3LYP) =  -423.187655361     A.U. after   11 cycles
 SCF Done:  E(RB3LYP) =  -423.187692692     A.U. after   10 cycles
 SCF Done:  E(RB3LYP) =  -423.187836816     A.U. after   13 cycles
 SCF Done:  E(RB3LYP) =  -423.187840144     A.U. after   11 cycles
 SCF Done:  E(RB3LYP) =  -423.187841715     A.U. after    8 cycles
 SCF Done:  E(RB3LYP) =  -423.187843111     A.U. after   10 cycles
 SCF Done:  E(RB3LYP) =  -423.187843169     A.U. after    7 cycles
 Optimization completed.
    -- Stationary point found.
 Normal termination of Gaussian 16 at Thu Aug  4 07:05:25 2022.

 ----------------------------------------------------------------------
 #N Geom=AllCheck Guess=TCheck SCRF=Check GenChk RB3LYP/6-31G(2df,p) Fr
 eq
 ----------------------------------------------------------------------

 Structure from the checkpoint file:  "OdCC1CCC2OCC12.chk"
 -------------------
 Title Card Required
 -------------------
 Charge =  0 Multiplicity = 1

                         Standard orientation:
 ---------------------------------------------------------------------
 Center     Atomic      Atomic             Coordinates (Angstroms)
 Number     Number       Type             X           Y           Z
 ---------------------------------------------------------------------
      1          8           0       -3.120765   -0.589142   -0.303513
      2          6           0       -2.185161   -0.170094    0.326154
      3          6           0       -0.805010    0.098011   -0.222898
      4          6           0       -0.414057    1.594509   -0.108047
      5          6           0        1.127015    1.601210   -0.189770
      6          6           0        1.551987    0.288601    0.487123
      7          8           0        2.214127   -0.657458   -0.389063
      8          6           0        1.176245   -1.640527   -0.188053
      9          6           0        0.304394   -0.626577    0.577232
     10          1           0       -2.284581    0.065505    1.414716
     11          1           0       -0.793279   -0.213229   -1.271944
     12          1           0       -0.737775    1.980301    0.867993
     13          1           0       -0.894378    2.209934   -0.873009
     14          1           0        1.563529    2.488126    0.276803
     15          1           0        1.461276    1.569231   -1.231215
     16          1           0        2.127484    0.436186    1.408184
     17          1           0        1.530679   -2.483464    0.418669
     18          1           0        0.775239   -2.023283   -1.134012
     19          1           0       -0.027577   -0.927308    1.573971
 ---------------------------------------------------------------------

 SCF Done:  E(RB3LYP) =  -423.187843169     A.U. after    1 cycles

 The electronic state is 1-A.
 Alpha  occ. eigenvalues --  -19.14215 -19.13684 -10.27309 -10.23962 -10.23672
 Alpha  occ. eigenvalues --  -10.20494 -10.20357 -10.20205 -10.19058  -1.04947
 Alpha  occ. eigenvalues --   -1.04240  -0.84332  -0.75484  -0.71754  -0.67449
 Alpha  occ. eigenvalues --   -0.60953  -0.58282  -0.54548  -0.51082  -0.49731
 Alpha  occ. eigenvalues --   -0.46404  -0.45447  -0.44143  -0.43493  -0.41734
 Alpha  occ. eigenvalues --   -0.40020  -0.36770  -0.36467  -0.34813  -0.34219
 Alpha  occ. eigenvalues --   -0.32197  -0.30664  -0.25677  -0.25122
 Alpha virt. eigenvalues --   -0.02493   0.06508   0.08170   0.09198   0.10360
 Alpha virt. eigenvalues --    0.12289   0.13589   0.14753   0.15704   0.16404
 Alpha virt. eigenvalues --    0.16986   0.17666   0.19117   0.20285   0.22096

 Mulliken charges:
               1
     1  O   -0.248804
     2  C    0.145846
     3  C   -0.071767
     4  C   -0.229572
     5  C   -0.244109
     6  C    0.136889
     7  O   -0.293052
     8  C   -0.088340
     9  C   -0.092727
    10  H    0.067903
    11  H    0.098696
    12  H    0.104845
    13  H    0.117980
    14  H    0.103999
    15  H    0.123094
    16  H    0.077098
    17  H    0.103171
    18  H    0.109483
    19  H    0.079367
 Sum of Mulliken charges =  -0.00000

 Dipole moment (field-independent basis, Debye):
    X=              1.0559    Y=              1.1248    Z=              1.6041  Tot=              2.2256
 Quadrupole moment (field-independent basis, Debye-Ang):
   XX=            -68.7382   YY=            -50.2954   ZZ=            -51.5895
   XY=             -1.6569   XZ=             -0.3374   YZ=             -0.7595

  Exact polarizability:  83.625   2.384  76.840   2.182   1.897  66.918
 Approx polarizability: 117.521   6.646 106.745   5.681   5.591 106.615

                      1                      2                      3
                      A                      A                      A
 Frequencies --     62.6794                78.4727               130.5437
 Red. masses --      5.3895                 4.0785                 2.3039
 Frc consts  --      0.0125                 0.0148                 0.0231
 IR Inten    --      3.9786                 6.6003                 1.2439

                      4                      5                      6
                      A                      A                      A
 Frequencies --    266.8290               282.0156               393.8896
 Red. masses --      2.3621                 2.2876                 4.1003
 Frc consts  --      0.0991                 0.1072                 0.3748
 IR Inten    --      2.3247                 0.6204                 1.6601

                      7                      8                      9
                      A                      A                      A
 Frequencies --    405.8453               439.3304               576.4608
 Red. masses --      2.7492                 3.6634                 2.2946
 Frc consts  --      0.2668                 0.4166                 0.4493
 IR Inten    --      4.0381                 4.4695                 6.3686

                     10                     11                     12
                      A                      A                      A
 Frequencies --    646.6752               779.3071               819.8957
 Red. masses --      3.8713                 2.6946                 2.1194
 Frc consts  --      0.9539                 0.9642                 0.8394
 IR Inten    --      9.2570                 1.4948                 1.5362

                     13                     14                     15
                      A                      A                      A
 Frequencies --    854.5729               898.3186               909.2828
 Red. masses --      1.6652                 3.0237                 2.1046
 Frc consts  --      0.7165                 1.4376                 1.0252
 IR Inten    --      1.9316                11.8489                 1.8148

                     16                     17                     18
                      A                      A                      A
 Frequencies --    935.4235               959.8690              1002.2166
 Red. masses --      2.4774                 2.5381                 2.0210
 Frc consts  --      1.2772                 1.3778                 1.1960
 IR Inten    --     11.3292                 5.4692                13.4951

                     19                     20                     21
                      A                      A                      A
 Frequencies --   1018.2436              1032.8425              1059.8583
 Red. masses --      1.9182                 3.7725                 3.1130
 Frc consts  --      1.1718                 2.3711                 2.0603
 IR Inten    --     18.0927                63.1198                22.2767

                     22                     23                     24
                      A                      A                      A
 Frequencies --   1082.4917              1106.3894              1115.3708
 Red. masses --      2.1924                 2.5144                 2.0880
 Frc consts  --      1.5136                 1.8134                 1.5305
 IR Inten    --     16.1679                 2.7075                 8.2650

                     25                     26                     27
                      A                      A                      A
 Frequencies --   1160.5408              1182.4887              1194.4952
 Red. masses --      1.2585                 1.4455                 1.5649
 Frc consts  --      0.9987                 1.1909                 1.3155
 IR Inten    --      0.7233                 6.9353                 5.9300

                     28                     29                     30
                      A                      A                      A
 Frequencies --   1229.7828              1261.9912              1271.5647
 Red. masses --      1.4677                 1.3454                 1.3732
 Frc consts  --      1.3078                 1.2625                 1.3081
 IR Inten    --      3.5954                 1.8610                 1.5915

                     31                     32                     33
                      A                      A                      A
 Frequencies --   1294.9871              1318.3069              1337.3262
 Red. masses --      1.3140                 1.4171                 1.2380
 Frc consts  --      1.2983                 1.4511                 1.3045
 IR Inten    --      0.1963                 0.7020                 3.3486

                     34                     35                     36
                      A                      A                      A
 Frequencies --   1343.1447              1362.5711              1373.7947
 Red. masses --      1.4217                 1.3447                 1.5657
 Frc consts  --      1.5111                 1.4709                 1.7410
 IR Inten    --      3.8623                 7.3818                 3.5025

                     37                     38                     39
                      A                      A                      A
 Frequencies --   1427.9072              1483.0714              1496.7108
 Red. masses --      1.1949                 1.0824                 1.0972
 Frc consts  --      1.4354                 1.4027                 1.4481
 IR Inten    --      3.1621                 3.8476                 2.7560

                     40                     41                     42
                      A                      A                      A
 Frequencies --   1524.4187              1835.2845              2828.1313
 Red. masses --      1.1003                10.4805                 1.0807
 Frc consts  --      1.5065                20.7987                 5.0929
 IR Inten    --      0.4132               219.1750                99.1851

                     43                     44                     45
                      A                      A                      A
 Frequencies --   3012.4875              3022.1175              3034.3158
 Red. masses --      1.0566                 1.0684                 1.0859
 Frc consts  --      5.6493                 5.7491                 5.8908
 IR Inten    --     74.5735                22.1407                41.6530

                     46                     47                     48
                      A                      A                      A
 Frequencies --   3058.1775              3058.7388              3065.8856
 Red. masses --      1.1010                 1.0670                 1.0845
 Frc consts  --      6.0670                 5.8817                 6.0061
 IR Inten    --     24.4552                18.4274                 7.5232

                     49                     50                     51
                      A                      A                      A
 Frequencies --   3080.1348              3098.1600              3110.1863
 Red. masses --      1.0886                 1.0954                 1.1052
 Frc consts  --      6.0848                 6.1949                 6.2991
 IR Inten    --     43.3105                18.8414                31.3050

 - Thermochemistry -
 -------------------
 Temperature   298.150 Kelvin.  Pressure   1.00000 Atm.
 Atom     1 has atomic number  8 and mass  15.99491

 Molecular mass:   126.06808 amu.
 Principal axes and moments of inertia in atomic units:
                           1         2         3
     Eigenvalues --   598.192031460.094891870.18828
           X            0.99998  -0.00652  -0.00193
           Y            0.00651   0.99996  -0.00553
           Z            0.00197   0.00552   0.99998
 This molecule is an asymmetric top.
 Rotational symmetry number  1.
 Warning -- assumption of classical behavior for rotation
           may cause significant error
 Rotational temperatures (Kelvin)      0.14479     0.05932     0.04631
 Rotational constants (GHZ):           3.01699     1.23604     0.96501
 Zero-point vibrational energy     420628.2 (Joules/Mol)
                                  100.53256 (Kcal/Mol)
 Warning -- explicit consideration of   9 degrees of freedom as
           vibrations may cause significant error
 Vibrational temperatures:     90.18   112.90   187.82   383.91   405.76
          (Kelvin)            566.72   583.92   632.10   829.40   930.42
                             1121.25  1179.65  1229.54  1292.48  1308.26
                             1345.87  1381.04  1441.97  1465.03  1486.03
                             1524.90  1557.46  1591.85  1604.77  1669.76
                             1701.34  1718.61  1769.38  1815.72  1829.50
                             1863.20  1896.75  1924.11  1932.49  1960.44
                             1976.58  2054.44  2133.81  2153.43  2193.30
                             2640.57  4069.05  4334.30  4348.15  4365.70
                             4400.04  4400.84  4411.13  4431.63  4457.56
                             4474.86

 Zero-point correction=                           0.160209 (Hartree/Particle)
 Thermal correction to Energy=                    0.168213
 Thermal correction to Enthalpy=                  0.169157
 Thermal correction to Gibbs Free Energy=         0.126714
 Sum of electronic and zero-point Energies=           -423.027634
 Sum of electronic and thermal Energies=              -423.019630
 Sum of electronic and thermal Enthalpies=            -423.018686
 Sum of electronic and thermal Free Energies=         -423.061129

                     E (Thermal)             CV                S
                      KCal/Mol        Cal/Mol-Kelvin    Cal/Mol-Kelvin
 Total                  105.555             29.869             89.329
 Electronic               0.000              0.000              0.000
 Translational            0.889              2.981             40.409
 Rotational               0.889              2.981             28.881
 Vibrational            103.778             23.908             20.040
 Vibration     1          0.597              1.972              4.371
 Vibration     2          0.600              1.964              3.929
 Vibration     3          0.612              1.923              2.938
 Vibration     4          0.672              1.734              1.617
 Vibration     5          0.681              1.707              1.521
 Vibration     6          0.761              1.483              0.985
 Vibration     7          0.771              1.458              0.941
 Vibration     8          0.799              1.384              0.829
 Vibration     9          0.933              1.082              0.492

 Optimization completed.
    -- Stationary point found.
 Normal termination of Gaussian 16 at Thu Aug  4 07:39:20 2022.
