 Gaussian 16, Revision A.03,
 Gaussian 16:  ES64L-G16RevA.03 25-Dec-2016

 -----------------------------
 # opt freq b3lyp/6-31g(2df,p)
 -----------------------------

 -------------------
 Title Card Required
 -------------------
 Symbolic Z-matrix:
 Charge =  0 Multiplicity = 1

 SCF Done:  E(RB3LYP) =  -433.927246589     A.U. after   17 cycles
 SCF Done:  E(RB3LYP) =  -433.963972426     A.U. after   15 cycles
 SCF Done:  E(RB3LYP) =  -433.988607952     A.U. after   15 cycles
 SCF Done:  E(RB3LYP) =  -433.992583715     A.U. after   15 cycles
 SCF Done:  E(RB3LYP) =  -433.991124580     A.U. after   15 cycles
 SCF Done:  E(RB3LYP) =  -433.996028690     A.U. after   15 cycles
 SCF Done:  E(RB3LYP) =  -433.996716084     A.U. after   15 cycles
 SCF Done:  E(RB3LYP) =  -433.997514382     A.U. after   17 cycles
 SCF Done:  E(RB3LYP) =  -433.997678643     A.U. after   15 cycles
 SCF Done:  E(RB3LYP) =  -433.998157507     A.U. after   14 cycles
 SCF Done:  E(RB3LYP) =  -433.998469653     A.U. after   14 cycles
 SCF Done:  E(RB3LYP) =  -433.998635691     A.U. after   14 cycles
 SCF Done:  E(RB3LYP) =  -433.998651962     A.U. after   11 cycles
 SCF Done:  E(RB3LYP) =  -433.998648876     A.U. after   13 cycles
 SCF Done:  E(RB3LYP) =  -433.998656132     A.U. after   12 cycles
 SCF Done:  E(RB3LYP) =  -433.998656277     A.U. after    9 cycles
 SCF Done:  E(RB3LYP) =  -433.998656353     A.U. after    9 cycles
 SCF Done:  E(RB3LYP) =  -433.998656437     A.U. after    8 cycles
 Optimization completed.
    -- Stationary point found.
 Normal termination of Gaussian 16 at Thu Aug  4 00:40:30 2022.

 ----------------------------------------------------------------------
 #N Geom=AllCheck Guess=TCheck SCRF=Check GenChk RB3LYP/6-31G(2df,p) Fr
 eq
 ----------------------------------------------------------------------

 Structure from the checkpoint file:  "OdCC1NC2dCC1NN2.chk"
 -------------------
 Title Card Required
 -------------------
 Charge =  0 Multiplicity = 1

                         Standard orientation:
 ---------------------------------------------------------------------
 Center     Atomic      Atomic             Coordinates (Angstroms)
 Number     Number       Type             X           Y           Z
 ---------------------------------------------------------------------
      1          8           0        2.953800   -0.334623    0.130112
      2          6           0        2.075890    0.467716   -0.036440
      3          6           0        0.716853    0.130292   -0.632986
      4          7           0        0.192003   -1.215677   -0.166405
      5          6           0       -0.854639   -0.748038    0.642997
      6          6           0       -0.572907    0.462508    1.291421
      7          6           0       -0.390351    1.054915   -0.092892
      8          7           0       -1.760102    0.645956   -0.776023
      9          7           0       -2.136386   -0.630857    0.064161
     10          1           0        2.207885    1.545184    0.211983
     11          1           0        0.786518    0.110670   -1.724611
     12          1           0       -0.150339   -1.749667   -0.957478
     13          1           0       -1.406860    0.866451    1.860674
     14          1           0       -0.235360    2.126339   -0.236549
     15          1           0       -2.446672    1.319831   -0.435189
     16          1           0       -2.303267   -1.342128   -0.644461
 ---------------------------------------------------------------------

 SCF Done:  E(RB3LYP) =  -433.998656437     A.U. after    1 cycles

 The electronic state is 1-A.
 Alpha  occ. eigenvalues --  -19.13938 -14.38087 -14.36592 -14.35788 -10.28221
 Alpha  occ. eigenvalues --  -10.27225 -10.25173 -10.24613 -10.17225  -1.04863
 Alpha  occ. eigenvalues --   -1.02524  -0.91938  -0.83206  -0.77111  -0.73126
 Alpha  occ. eigenvalues --   -0.61696  -0.58280  -0.57008  -0.54958  -0.51244
 Alpha  occ. eigenvalues --   -0.47621  -0.45103  -0.44093  -0.41529  -0.41186
 Alpha  occ. eigenvalues --   -0.39997  -0.39539  -0.36251  -0.33949  -0.29635
 Alpha  occ. eigenvalues --   -0.25870  -0.23977  -0.19926
 Alpha virt. eigenvalues --   -0.09903  -0.02546   0.05648   0.07750   0.09469
 Alpha virt. eigenvalues --    0.11261   0.11809   0.12738   0.15137   0.16156
 Alpha virt. eigenvalues --    0.17593   0.18893   0.20432   0.23957   0.25781

 Mulliken charges:
               1
     1  O   -0.241657
     2  C    0.174249
     3  C   -0.073965
     4  N   -0.256985
     5  C    0.185874
     6  C   -0.240090
     7  C   -0.040212
     8  N   -0.326420
     9  N   -0.292848
    10  H    0.079986
    11  H    0.122946
    12  H    0.233060
    13  H    0.100161
    14  H    0.094278
    15  H    0.241897
    16  H    0.239727
 Sum of Mulliken charges =  -0.00000

 Dipole moment (field-independent basis, Debye):
    X=             -2.7284    Y=              1.0479    Z=             -2.2863  Tot=              3.7107
 Quadrupole moment (field-independent basis, Debye-Ang):
   XX=            -60.9351   YY=            -46.3739   ZZ=            -53.3848
   XY=              4.3805   XZ=             -2.1191   YZ=              2.4916

  Exact polarizability:  85.700   0.928  72.389  -0.645   6.239  62.301
 Approx polarizability: 127.610   2.174 141.170   2.379  20.930 114.078

                      1                      2                      3
                      A                      A                      A
 Frequencies --     74.7535               118.8673               188.2637
 Red. masses --      4.9081                 2.8532                 5.8151
 Frc consts  --      0.0162                 0.0238                 0.1214
 IR Inten    --      5.9778                 6.8762                 6.2900

                      4                      5                      6
                      A                      A                      A
 Frequencies --    276.9195               363.1496               427.4477
 Red. masses --      4.0163                 5.4823                 5.1243
 Frc consts  --      0.1815                 0.4260                 0.5516
 IR Inten    --      3.2911                 9.7214                46.1570

                      7                      8                      9
                      A                      A                      A
 Frequencies --    523.1496               590.2548               611.0800
 Red. masses --      3.7533                 4.7477                 2.7649
 Frc consts  --      0.6052                 0.9746                 0.6083
 IR Inten    --     11.1451                42.3219                25.8703

                     10                     11                     12
                      A                      A                      A
 Frequencies --    637.5081               690.5987               733.2328
 Red. masses --      7.4489                 3.1262                 4.1878
 Frc consts  --      1.7837                 0.8784                 1.3266
 IR Inten    --      2.6434                13.3594               111.9241

                     13                     14                     15
                      A                      A                      A
 Frequencies --    786.7499               802.9518               869.8972
 Red. masses --      3.1298                 4.8004                 2.4423
 Frc consts  --      1.1414                 1.8235                 1.0889
 IR Inten    --     31.0768                42.7476                94.1458

                     16                     17                     18
                      A                      A                      A
 Frequencies --    918.6803               933.4206               971.5860
 Red. masses --      1.7752                 1.8050                 2.1822
 Frc consts  --      0.8827                 0.9266                 1.2137
 IR Inten    --     43.9675                34.9386                14.9572

                     19                     20                     21
                      A                      A                      A
 Frequencies --    992.1593              1009.2832              1031.7799
 Red. masses --      1.6759                 1.9564                 2.0023
 Frc consts  --      0.9720                 1.1742                 1.2559
 IR Inten    --     11.4304                18.2630                72.3936

                     22                     23                     24
                      A                      A                      A
 Frequencies --   1085.5426              1110.4501              1137.2125
 Red. masses --      2.1370                 1.6417                 2.3841
 Frc consts  --      1.4837                 1.1927                 1.8166
 IR Inten    --     14.5442                97.0352                20.3428

                     25                     26                     27
                      A                      A                      A
 Frequencies --   1190.4339              1203.4251              1251.7637
 Red. masses --      1.5663                 1.3165                 1.3937
 Frc consts  --      1.3078                 1.1233                 1.2866
 IR Inten    --      7.9390                18.5648                10.0717

                     28                     29                     30
                      A                      A                      A
 Frequencies --   1273.5154              1296.9814              1305.3974
 Red. masses --      1.3735                 1.4034                 1.4284
 Frc consts  --      1.3125                 1.3909                 1.4341
 IR Inten    --     12.7664                 2.1704                18.4098

                     31                     32                     33
                      A                      A                      A
 Frequencies --   1382.6847              1408.2610              1418.6691
 Red. masses --      1.3090                 1.5886                 1.2174
 Frc consts  --      1.4745                 1.8563                 1.4436
 IR Inten    --      4.0976                46.2984                 1.0532

                     34                     35                     36
                      A                      A                      A
 Frequencies --   1490.3418              1836.4564              2874.7491
 Red. masses --      2.1616                10.8094                 1.0827
 Frc consts  --      2.8288                21.4789                 5.2718
 IR Inten    --     10.7959               196.1629                80.2388

                     37                     38                     39
                      A                      A                      A
 Frequencies --   3073.6377              3098.2389              3140.5231
 Red. masses --      1.0840                 1.0882                 1.0882
 Frc consts  --      6.0337                 6.1547                 6.3233
 IR Inten    --      5.0870                26.9833                16.1207

                     40                     41                     42
                      A                      A                      A
 Frequencies --   3456.8425              3474.5301              3537.4238
 Red. masses --      1.0757                 1.0762                 1.0754
 Frc consts  --      7.5733                 7.6547                 7.9287
 IR Inten    --      0.4886                 2.1628                 4.1635

 - Thermochemistry -
 -------------------
 Temperature   298.150 Kelvin.  Pressure   1.00000 Atm.
 Atom     1 has atomic number  8 and mass  15.99491

 Molecular mass:   125.05891 amu.
 Principal axes and moments of inertia in atomic units:
                           1         2         3
     Eigenvalues --   431.452271376.487371473.86111
           X            0.99997   0.00708  -0.00166
           Y           -0.00684   0.99324   0.11591
           Z            0.00247  -0.11590   0.99326
 This molecule is an asymmetric top.
 Rotational symmetry number  1.
 Rotational temperatures (Kelvin)      0.20075     0.06292     0.05877
 Rotational constants (GHZ):           4.18295     1.31112     1.22450
 Zero-point vibrational energy     326573.4 (Joules/Mol)
                                   78.05292 (Kcal/Mol)
 Warning -- explicit consideration of   9 degrees of freedom as
           vibrations may cause significant error
 Vibrational temperatures:    107.55   171.02   270.87   398.43   522.49
          (Kelvin)            615.00   752.70   849.24   879.21   917.23
                              993.62  1054.96  1131.96  1155.27  1251.59
                             1321.78  1342.98  1397.90  1427.50  1452.13
                             1484.50  1561.85  1597.69  1636.20  1712.77
                             1731.46  1801.01  1832.30  1866.07  1878.18
                             1989.37  2026.17  2041.15  2144.27  2642.25
                             4136.12  4422.28  4457.67  4518.51  4973.63
                             4999.07  5089.56

 Zero-point correction=                           0.124385 (Hartree/Particle)
 Thermal correction to Energy=                    0.131893
 Thermal correction to Enthalpy=                  0.132837
 Thermal correction to Gibbs Free Energy=         0.092121
 Sum of electronic and zero-point Energies=           -433.874271
 Sum of electronic and thermal Energies=              -433.866764
 Sum of electronic and thermal Enthalpies=            -433.865820
 Sum of electronic and thermal Free Energies=         -433.906536

                     E (Thermal)             CV                S
                      KCal/Mol        Cal/Mol-Kelvin    Cal/Mol-Kelvin
 Total                   82.764             28.789             85.694
 Electronic               0.000              0.000              0.000
 Translational            0.889              2.981             40.385
 Rotational               0.889              2.981             28.261
 Vibrational             80.986             22.828             17.048
 Vibration     1          0.599              1.966              4.024
 Vibration     2          0.609              1.934              3.119
 Vibration     3          0.633              1.856              2.245
 Vibration     4          0.678              1.716              1.553
 Vibration     5          0.737              1.548              1.109
 Vibration     6          0.789              1.410              0.867
 Vibration     7          0.878              1.199              0.603
 Vibration     8          0.948              1.053              0.467
 Vibration     9          0.970              1.008              0.431

 Optimization completed.
    -- Stationary point found.
 Normal termination of Gaussian 16 at Thu Aug  4 01:07:02 2022.
