 Gaussian 16, Revision A.03,
 Gaussian 16:  ES64L-G16RevA.03 25-Dec-2016

 -----------------------------
 # opt freq b3lyp/6-31g(2df,p)
 -----------------------------

 -------------------
 Title Card Required
 -------------------
 Symbolic Z-matrix:
 Charge =  0 Multiplicity = 1

 SCF Done:  E(RB3LYP) =  -439.188077460     A.U. after   14 cycles
 SCF Done:  E(RB3LYP) =  -439.207685039     A.U. after   14 cycles
 SCF Done:  E(RB3LYP) =  -439.212377036     A.U. after   13 cycles
 SCF Done:  E(RB3LYP) =  -439.215194249     A.U. after   13 cycles
 SCF Done:  E(RB3LYP) =  -439.217166940     A.U. after   13 cycles
 SCF Done:  E(RB3LYP) =  -439.219906880     A.U. after   14 cycles
 SCF Done:  E(RB3LYP) =  -439.223289336     A.U. after   15 cycles
 SCF Done:  E(RB3LYP) =  -439.224379629     A.U. after   13 cycles
 SCF Done:  E(RB3LYP) =  -439.224928579     A.U. after   12 cycles
 SCF Done:  E(RB3LYP) =  -439.224973146     A.U. after   11 cycles
 SCF Done:  E(RB3LYP) =  -439.224990158     A.U. after    9 cycles
 SCF Done:  E(RB3LYP) =  -439.224994573     A.U. after    8 cycles
 SCF Done:  E(RB3LYP) =  -439.224996142     A.U. after    8 cycles
 SCF Done:  E(RB3LYP) =  -439.224996485     A.U. after    7 cycles
 Optimization completed.
    -- Stationary point found.
 Normal termination of Gaussian 16 at Sun Jul  3 19:28:25 2022.

 ----------------------------------------------------------------------
 #N Geom=AllCheck Guess=TCheck SCRF=Check GenChk RB3LYP/6-31G(2df,p) Fr
 eq
 ----------------------------------------------------------------------

 Structure from the checkpoint file:  "OdCC12CCCOC1N2.chk"
 -------------------
 Title Card Required
 -------------------
 Charge =  0 Multiplicity = 1

                         Standard orientation:
 ---------------------------------------------------------------------
 Center     Atomic      Atomic             Coordinates (Angstroms)
 Number     Number       Type             X           Y           Z
 ---------------------------------------------------------------------
      1          8           0       -2.768914    0.677318   -0.467110
      2          6           0       -2.085524   -0.267839   -0.157247
      3          6           0       -0.648862   -0.181696    0.233590
      4          6           0       -0.101651    1.198383    0.568375
      5          6           0        1.237616    1.481410   -0.127437
      6          6           0        2.162304    0.275451   -0.034679
      7          8           0        1.600291   -0.860602   -0.695492
      8          6           0        0.296928   -1.193533   -0.380296
      9          7           0       -0.178317   -1.400827    0.966014
     10          1           0       -2.481024   -1.306906   -0.154816
     11          1           0        0.011159    1.288435    1.656471
     12          1           0       -0.855279    1.931117    0.268000
     13          1           0        1.723624    2.354744    0.319016
     14          1           0        1.069779    1.705408   -1.186868
     15          1           0        2.390359    0.035671    1.016228
     16          1           0        3.113161    0.451085   -0.542755
     17          1           0       -0.060507   -1.915047   -1.109747
     18          1           0        0.521059   -1.145505    1.659347
 ---------------------------------------------------------------------

 SCF Done:  E(RB3LYP) =  -439.224996485     A.U. after    1 cycles

 The electronic state is 1-A.
 Alpha  occ. eigenvalues --  -19.16756 -19.13894 -14.34291 -10.28072 -10.26810
 Alpha  occ. eigenvalues --  -10.24688 -10.23204 -10.19874 -10.19801  -1.07096
 Alpha  occ. eigenvalues --   -1.04564  -0.96221  -0.80821  -0.73334  -0.68500
 Alpha  occ. eigenvalues --   -0.65874  -0.59372  -0.55222  -0.52708  -0.51521
 Alpha  occ. eigenvalues --   -0.47365  -0.46517  -0.44235  -0.43547  -0.41404
 Alpha  occ. eigenvalues --   -0.40521  -0.38087  -0.37575  -0.36578  -0.35070
 Alpha  occ. eigenvalues --   -0.31499  -0.29075  -0.26356  -0.24022
 Alpha virt. eigenvalues --   -0.02612   0.06308   0.09475   0.10561   0.11859
 Alpha virt. eigenvalues --    0.12954   0.14292   0.14457   0.15083   0.16377
 Alpha virt. eigenvalues --    0.16843   0.19062   0.20106   0.21650   0.24179

 Mulliken charges:
               1
     1  O   -0.268054
     2  C    0.131441
     3  C    0.144720
     4  C   -0.312213
     5  C   -0.210627
     6  C   -0.091977
     7  O   -0.241679
     8  C    0.101792
     9  N   -0.390639
    10  H    0.086781
    11  H    0.106086
    12  H    0.141578
    13  H    0.107127
    14  H    0.120146
    15  H    0.094051
    16  H    0.122997
    17  H    0.120112
    18  H    0.238359
 Sum of Mulliken charges =  -0.00000

 Dipole moment (field-independent basis, Debye):
    X=              2.8106    Y=              0.5578    Z=              0.9819  Tot=              3.0290
 Quadrupole moment (field-independent basis, Debye-Ang):
   XX=            -58.4397   YY=            -54.3682   ZZ=            -51.6190
   XY=              5.4621   XZ=              1.1020   YZ=              2.0544

  Exact polarizability:  85.437   0.105  73.461   2.358   0.199  58.992
 Approx polarizability: 119.886 -10.592 113.114   3.354  -1.982  95.156

                      1                      2                      3
                      A                      A                      A
 Frequencies --    101.3000               128.8840               231.7306
 Red. masses --      4.4228                 3.4099                 2.5796
 Frc consts  --      0.0267                 0.0334                 0.0816
 IR Inten    --      2.4856                 4.4169                 6.9173

                      4                      5                      6
                      A                      A                      A
 Frequencies --    257.8147               304.6891               368.7381
 Red. masses --      3.7633                 2.1502                 2.6053
 Frc consts  --      0.1474                 0.1176                 0.2087
 IR Inten    --      7.4999                 1.3602                 1.4155

                      7                      8                      9
                      A                      A                      A
 Frequencies --    412.3710               456.6458               528.7031
 Red. masses --      4.4967                 2.7196                 3.4979
 Frc consts  --      0.4505                 0.3341                 0.5761
 IR Inten    --      5.9826                 0.1069                 5.6504

                     10                     11                     12
                      A                      A                      A
 Frequencies --    561.3780               666.0418               740.7863
 Red. masses --      3.9173                 2.7699                 3.5076
 Frc consts  --      0.7274                 0.7240                 1.1341
 IR Inten    --     20.7411                23.5677                19.5154

                     13                     14                     15
                      A                      A                      A
 Frequencies --    766.3736               819.5567               868.4935
 Red. masses --      4.5366                 2.9279                 1.6947
 Frc consts  --      1.5699                 1.1587                 0.7532
 IR Inten    --     58.7289                30.9542                14.0600

                     16                     17                     18
                      A                      A                      A
 Frequencies --    906.8361               958.7751               964.8240
 Red. masses --      2.6232                 2.5812                 2.4419
 Frc consts  --      1.2710                 1.3980                 1.3393
 IR Inten    --     25.9214                21.4729                13.6926

                     19                     20                     21
                      A                      A                      A
 Frequencies --   1020.0598              1041.9719              1065.5269
 Red. masses --      1.5029                 1.8178                 1.9032
 Frc consts  --      0.9214                 1.1628                 1.2731
 IR Inten    --     50.2115                 7.6258                 5.6126

                     22                     23                     24
                      A                      A                      A
 Frequencies --   1090.7397              1101.3466              1149.6315
 Red. masses --      1.9444                 2.0880                 1.5224
 Frc consts  --      1.3629                 1.4922                 1.1855
 IR Inten    --      1.2498                22.4528                41.6115

                     25                     26                     27
                      A                      A                      A
 Frequencies --   1204.6920              1216.3987              1246.7282
 Red. masses --      1.6164                 1.5927                 1.6872
 Frc consts  --      1.3821                 1.3884                 1.5451
 IR Inten    --     46.2101                66.6611                49.7354

                     28                     29                     30
                      A                      A                      A
 Frequencies --   1290.0835              1319.9320              1330.2212
 Red. masses --      1.3539                 2.3390                 1.5659
 Frc consts  --      1.3276                 2.4009                 1.6326
 IR Inten    --     34.2389                16.7859                 9.4388

                     31                     32                     33
                      A                      A                      A
 Frequencies --   1368.5987              1375.1712              1401.6465
 Red. masses --      1.4205                 1.3704                 1.4565
 Frc consts  --      1.5676                 1.5269                 1.6859
 IR Inten    --      1.0524                 0.4822                 7.6258

                     34                     35                     36
                      A                      A                      A
 Frequencies --   1412.8970              1434.0511              1477.1219
 Red. masses --      1.2444                 1.5934                 1.0836
 Frc consts  --      1.4637                 1.9307                 1.3931
 IR Inten    --      2.7951                43.3866                 3.6860

                     37                     38                     39
                      A                      A                      A
 Frequencies --   1489.9136              1513.9235              1811.8867
 Red. masses --      1.0945                 1.1005                10.5619
 Frc consts  --      1.4315                 1.4861                20.4293
 IR Inten    --      9.3010                 4.1669               199.3126

                     40                     41                     42
                      A                      A                      A
 Frequencies --   2901.9184              2979.1572              3022.9521
 Red. masses --      1.0846                 1.0720                 1.0696
 Frc consts  --      5.3812                 5.6057                 5.7589
 IR Inten    --     87.4389                47.0438                21.2523

                     43                     44                     45
                      A                      A                      A
 Frequencies --   3043.7835              3089.4176              3100.2728
 Red. masses --      1.0600                 1.0997                 1.0947
 Frc consts  --      5.7862                 6.1840                 6.1996
 IR Inten    --     20.4548                26.3556                 7.9724

                     46                     47                     48
                      A                      A                      A
 Frequencies --   3102.6690              3152.0858              3510.4048
 Red. masses --      1.0936                 1.0896                 1.0751
 Frc consts  --      6.2028                 6.3785                 7.8058
 IR Inten    --     29.2454                18.1146                 3.3750

 - Thermochemistry -
 -------------------
 Temperature   298.150 Kelvin.  Pressure   1.00000 Atm.
 Atom     1 has atomic number  8 and mass  15.99491

 Molecular mass:   127.06333 amu.
 Principal axes and moments of inertia in atomic units:
                           1         2         3
     Eigenvalues --   609.561311302.506341621.09599
           X            0.99902   0.04401   0.00480
           Y           -0.04410   0.99885   0.01877
           Z           -0.00397  -0.01897   0.99981
 This molecule is an asymmetric top.
 Rotational symmetry number  1.
 Warning -- assumption of classical behavior for rotation
           may cause significant error
 Rotational temperatures (Kelvin)      0.14209     0.06650     0.05343
 Rotational constants (GHZ):           2.96072     1.38559     1.11328
 Zero-point vibrational energy     390635.4 (Joules/Mol)
                                   93.36411 (Kcal/Mol)
 Warning -- explicit consideration of  10 degrees of freedom as
           vibrations may cause significant error
 Vibrational temperatures:    145.75   185.44   333.41   370.94   438.38
          (Kelvin)            530.53   593.31   657.01   760.69   807.70
                              958.29  1065.83  1102.64  1179.16  1249.57
                             1304.73  1379.46  1388.17  1467.64  1499.17
                             1533.06  1569.33  1584.59  1654.06  1733.28
                             1750.13  1793.76  1856.14  1899.09  1913.89
                             1969.11  1978.56  2016.66  2032.84  2063.28
                             2125.25  2143.65  2178.20  2606.90  4175.21
                             4286.34  4349.35  4379.33  4444.98  4460.60
                             4464.05  4535.15  5050.69

 Zero-point correction=                           0.148785 (Hartree/Particle)
 Thermal correction to Energy=                    0.156598
 Thermal correction to Enthalpy=                  0.157542
 Thermal correction to Gibbs Free Energy=         0.116406
 Sum of electronic and zero-point Energies=           -439.076211
 Sum of electronic and thermal Energies=              -439.068398
 Sum of electronic and thermal Enthalpies=            -439.067454
 Sum of electronic and thermal Free Energies=         -439.108590

                     E (Thermal)             CV                S
                      KCal/Mol        Cal/Mol-Kelvin    Cal/Mol-Kelvin
 Total                   98.267             30.115             86.578
 Electronic               0.000              0.000              0.000
 Translational            0.889              2.981             40.432
 Rotational               0.889              2.981             28.644
 Vibrational             96.489             24.154             17.502
 Vibration     1          0.604              1.948              3.429
 Vibration     2          0.611              1.924              2.963
 Vibration     3          0.653              1.792              1.865
 Vibration     4          0.667              1.750              1.677
 Vibration     5          0.696              1.665              1.391
 Vibration     6          0.741              1.536              1.085
 Vibration     7          0.776              1.443              0.918
 Vibration     8          0.815              1.346              0.776
 Vibration     9          0.884              1.186              0.590
 Vibration    10          0.917              1.115              0.521

 Optimization completed.
    -- Stationary point found.
 Normal termination of Gaussian 16 at Sun Jul  3 19:56:07 2022.
