 Gaussian 16, Revision A.03,
 Gaussian 16:  ES64L-G16RevA.03 25-Dec-2016

 -----------------------------
 # opt freq b3lyp/6-31g(2df,p)
 -----------------------------

 -------------------
 Title Card Required
 -------------------
 Symbolic Z-matrix:
 Charge =  0 Multiplicity = 1

 SCF Done:  E(RB3LYP) =  -448.935442253     A.U. after   17 cycles
 SCF Done:  E(RB3LYP) =  -448.952331806     A.U. after   15 cycles
 SCF Done:  E(RB3LYP) =  -448.957454709     A.U. after   15 cycles
 SCF Done:  E(RB3LYP) =  -448.957247512     A.U. after   14 cycles
 SCF Done:  E(RB3LYP) =  -448.958590538     A.U. after   14 cycles
 SCF Done:  E(RB3LYP) =  -448.959717175     A.U. after   14 cycles
 SCF Done:  E(RB3LYP) =  -448.929397173     A.U. after   15 cycles
 SCF Done:  E(RB3LYP) =  -448.963314928     A.U. after   15 cycles
 SCF Done:  E(RB3LYP) =  -448.964756770     A.U. after   15 cycles
 SCF Done:  E(RB3LYP) =  -448.966273295     A.U. after   14 cycles
 SCF Done:  E(RB3LYP) =  -448.968106107     A.U. after   14 cycles
 SCF Done:  E(RB3LYP) =  -448.968697262     A.U. after   13 cycles
 SCF Done:  E(RB3LYP) =  -448.968985874     A.U. after   14 cycles
 SCF Done:  E(RB3LYP) =  -448.969116925     A.U. after   12 cycles
 SCF Done:  E(RB3LYP) =  -448.969150459     A.U. after   10 cycles
 SCF Done:  E(RB3LYP) =  -448.969174832     A.U. after   10 cycles
 SCF Done:  E(RB3LYP) =  -448.969186883     A.U. after   10 cycles
 SCF Done:  E(RB3LYP) =  -448.969191601     A.U. after   10 cycles
 SCF Done:  E(RB3LYP) =  -448.969192154     A.U. after    9 cycles
 Optimization completed.
    -- Stationary point found.
 Normal termination of Gaussian 16 at Thu Aug  4 16:55:00 2022.

 ----------------------------------------------------------------------
 #N Geom=AllCheck Guess=TCheck SCRF=Check GenChk RB3LYP/6-31G(2df,p) Fr
 eq
 ----------------------------------------------------------------------

 Structure from the checkpoint file:  "OdCN1CdCNdCNdN1.chk"
 -------------------
 Title Card Required
 -------------------
 Charge =  0 Multiplicity = 1

                         Standard orientation:
 ---------------------------------------------------------------------
 Center     Atomic      Atomic             Coordinates (Angstroms)
 Number     Number       Type             X           Y           Z
 ---------------------------------------------------------------------
      1          8           0        2.875752    0.371954    0.371428
      2          6           0        2.029511   -0.470485    0.205194
      3          7           0        0.679137   -0.182261    0.053393
      4          6           0        0.279804    1.065668   -0.431197
      5          6           0       -0.995271    1.486232   -0.272033
      6          7           0       -1.966352    0.806460    0.421680
      7          6           0       -1.950942   -0.475441    0.547669
      8          7           0       -1.253429   -1.375113   -0.273163
      9          7           0       -0.093396   -1.282739   -0.639160
     10          1           0        2.215840   -1.557925    0.194497
     11          1           0        1.043959    1.672809   -0.905567
     12          1           0       -1.278770    2.469820   -0.629955
     13          1           0       -2.727377   -0.960617    1.132549
 ---------------------------------------------------------------------

 SCF Done:  E(RB3LYP) =  -448.969192154     A.U. after    1 cycles

 The electronic state is 1-A.
 Alpha  occ. eigenvalues --  -19.14201 -14.45806 -14.42456 -14.40629 -14.36778
 Alpha  occ. eigenvalues --  -10.30249 -10.28464 -10.25462 -10.24157  -1.11077
 Alpha  occ. eigenvalues --   -1.06273  -0.96363  -0.95478  -0.79016  -0.76057
 Alpha  occ. eigenvalues --   -0.67111  -0.62154  -0.60318  -0.54606  -0.51325
 Alpha  occ. eigenvalues --   -0.50208  -0.47529  -0.45681  -0.44559  -0.41101
 Alpha  occ. eigenvalues --   -0.40101  -0.37761  -0.34721  -0.32398  -0.29285
 Alpha  occ. eigenvalues --   -0.27082  -0.24199
 Alpha virt. eigenvalues --   -0.10679  -0.04469  -0.00087   0.01880   0.10191
 Alpha virt. eigenvalues --    0.11567   0.12769   0.13631   0.15643   0.17986
 Alpha virt. eigenvalues --    0.22994   0.25755   0.27884   0.29662   0.33104

 Mulliken charges:
               1
     1  O   -0.296893
     2  C    0.171104
     3  N   -0.125608
     4  C    0.007204
     5  C   -0.035597
     6  N   -0.202981
     7  C    0.061297
     8  N   -0.032431
     9  N   -0.088819
    10  H    0.107519
    11  H    0.152765
    12  H    0.135151
    13  H    0.147291
 Sum of Mulliken charges =   0.00000

 Dipole moment (field-independent basis, Debye):
    X=             -1.5192    Y=             -0.3228    Z=             -0.3065  Tot=              1.5831
 Quadrupole moment (field-independent basis, Debye-Ang):
   XX=            -57.6758   YY=            -48.1968   ZZ=            -50.2759
   XY=             -1.7547   XZ=             -2.4173   YZ=             -5.3048

  Exact polarizability:  97.052   1.886  76.652  -6.519  -3.491  41.683
 Approx polarizability: 169.992   9.904 145.156 -16.858  -1.455  70.606

                      1                      2                      3
                      A                      A                      A
 Frequencies --    102.8475               197.1900               224.6018
 Red. masses --      7.1835                 7.9833                 3.8287
 Frc consts  --      0.0448                 0.1829                 0.1138
 IR Inten    --      1.8733                 4.3226                 8.7185

                      4                      5                      6
                      A                      A                      A
 Frequencies --    289.5137               318.9971               348.5655
 Red. masses --      5.0826                 4.2854                 5.2806
 Frc consts  --      0.2510                 0.2569                 0.3780
 IR Inten    --     13.4189                 5.8868                 8.6794

                      7                      8                      9
                      A                      A                      A
 Frequencies --    424.7427               470.5219               534.3974
 Red. masses --      4.0978                 6.1536                 6.2102
 Frc consts  --      0.4356                 0.8027                 1.0449
 IR Inten    --     18.4375                18.2445                 3.1186

                     10                     11                     12
                      A                      A                      A
 Frequencies --    700.4495               748.1654               810.1549
 Red. masses --      6.1600                 4.4969                 2.1745
 Frc consts  --      1.7807                 1.4831                 0.8409
 IR Inten    --      6.8863                86.7662                11.6617

                     13                     14                     15
                      A                      A                      A
 Frequencies --    854.8788               864.5689               907.2500
 Red. masses --      4.7270                 3.1872                 1.6133
 Frc consts  --      2.0354                 1.4036                 0.7824
 IR Inten    --      2.9042                48.6022                18.1686

                     16                     17                     18
                      A                      A                      A
 Frequencies --    947.9035               981.1453              1033.2843
 Red. masses --      1.5138                 3.7228                 3.4389
 Frc consts  --      0.8014                 2.1115                 2.1633
 IR Inten    --      2.6236                 1.6470                61.1687

                     19                     20                     21
                      A                      A                      A
 Frequencies --   1035.2750              1108.4584              1247.5295
 Red. masses --      1.8952                 3.1847                 1.2890
 Frc consts  --      1.1968                 2.3055                 1.1820
 IR Inten    --      4.1661                10.0099                29.9478

                     22                     23                     24
                      A                      A                      A
 Frequencies --   1312.4011              1390.0989              1416.6974
 Red. masses --      3.9609                 1.2201                 1.2134
 Frc consts  --      4.0196                 1.3891                 1.4348
 IR Inten    --    228.8320                 4.3565                 0.7184

                     25                     26                     27
                      A                      A                      A
 Frequencies --   1440.9641              1536.5906              1623.0596
 Red. masses --      1.6038                 9.5953                 5.7363
 Frc consts  --      1.9621                13.3483                 8.9033
 IR Inten    --     25.6780                 5.7826                 7.8915

                     28                     29                     30
                      A                      A                      A
 Frequencies --   1687.8307              1808.6389              2998.0581
 Red. masses --     10.2438                 8.9703                 1.0884
 Frc consts  --     17.1937                17.2886                 5.7641
 IR Inten    --    111.5200               317.3303                43.9627

                     31                     32                     33
                      A                      A                      A
 Frequencies --   3175.4737              3184.3922              3202.6576
 Red. masses --      1.0890                 1.0856                 1.0972
 Frc consts  --      6.4701                 6.4862                 6.6309
 IR Inten    --      7.5095                 1.6061                 7.8345

 - Thermochemistry -
 -------------------
 Temperature   298.150 Kelvin.  Pressure   1.00000 Atm.
 Atom     1 has atomic number  8 and mass  15.99491

 Molecular mass:   124.03851 amu.
 Principal axes and moments of inertia in atomic units:
                           1         2         3
     Eigenvalues --   501.256961282.810641633.65578
           X            0.99991  -0.01075  -0.00840
           Y            0.01036   0.99893  -0.04497
           Z            0.00888   0.04488   0.99895
 This molecule is an asymmetric top.
 Rotational symmetry number  1.
 Warning -- assumption of classical behavior for rotation
           may cause significant error
 Rotational temperatures (Kelvin)      0.17279     0.06752     0.05302
 Rotational constants (GHZ):           3.60043     1.40686     1.10473
 Zero-point vibrational energy     232837.0 (Joules/Mol)
                                   55.64937 (Kcal/Mol)
 Warning -- explicit consideration of   9 degrees of freedom as
           vibrations may cause significant error
 Vibrational temperatures:    147.97   283.71   323.15   416.55   458.97
          (Kelvin)            501.51   611.11   676.98   768.88  1007.79
                             1076.44  1165.63  1229.98  1243.92  1305.33
                             1363.82  1411.65  1486.67  1489.53  1594.82
                             1794.92  1888.25  2000.04  2038.31  2073.23
                             2210.81  2335.22  2428.41  2602.23  4313.54
                             4568.80  4581.63  4607.91

 Zero-point correction=                           0.088683 (Hartree/Particle)
 Thermal correction to Energy=                    0.095949
 Thermal correction to Enthalpy=                  0.096894
 Thermal correction to Gibbs Free Energy=         0.056871
 Sum of electronic and zero-point Energies=           -448.880509
 Sum of electronic and thermal Energies=              -448.873243
 Sum of electronic and thermal Enthalpies=            -448.872299
 Sum of electronic and thermal Free Energies=         -448.912321

                     E (Thermal)             CV                S
                      KCal/Mol        Cal/Mol-Kelvin    Cal/Mol-Kelvin
 Total                   60.209             26.766             84.235
 Electronic               0.000              0.000              0.000
 Translational            0.889              2.981             40.360
 Rotational               0.889              2.981             28.442
 Vibrational             58.432             20.804             15.432
 Vibration     1          0.605              1.947              3.400
 Vibration     2          0.637              1.844              2.159
 Vibration     3          0.649              1.804              1.922
 Vibration     4          0.686              1.693              1.477
 Vibration     5          0.705              1.637              1.315
 Vibration     6          0.726              1.578              1.173
 Vibration     7          0.787              1.416              0.876
 Vibration     8          0.828              1.315              0.736
 Vibration     9          0.889              1.174              0.577

                           ! Non-Optimized Parameters !
 Normal termination of Gaussian 16 at Thu Aug  4 17:14:40 2022.
