 Gaussian 16, Revision A.03,
 Gaussian 16:  ES64L-G16RevA.03 25-Dec-2016

 -----------------------------
 # opt freq b3lyp/6-31g(2df,p)
 -----------------------------

 -------------------
 Title Card Required
 -------------------
 Symbolic Z-matrix:
 Charge =  0 Multiplicity = 1

 SCF Done:  E(RB3LYP) =  -424.310844881     A.U. after   13 cycles
 SCF Done:  E(RB3LYP) =  -424.315865732     A.U. after   12 cycles
 SCF Done:  E(RB3LYP) =  -424.317835874     A.U. after   12 cycles
 SCF Done:  E(RB3LYP) =  -424.318045042     A.U. after   10 cycles
 SCF Done:  E(RB3LYP) =  -424.318135911     A.U. after   11 cycles
 SCF Done:  E(RB3LYP) =  -424.318164150     A.U. after   11 cycles
 SCF Done:  E(RB3LYP) =  -424.318311536     A.U. after   11 cycles
 SCF Done:  E(RB3LYP) =  -424.309989640     A.U. after   13 cycles
 SCF Done:  E(RB3LYP) =  -424.318899727     A.U. after   13 cycles
 SCF Done:  E(RB3LYP) =  -424.319379939     A.U. after   12 cycles
 SCF Done:  E(RB3LYP) =  -424.319361742     A.U. after   12 cycles
 SCF Done:  E(RB3LYP) =  -424.319499810     A.U. after   11 cycles
 SCF Done:  E(RB3LYP) =  -424.319503983     A.U. after    9 cycles
 SCF Done:  E(RB3LYP) =  -424.319504481     A.U. after    8 cycles
 SCF Done:  E(RB3LYP) =  -424.319504568     A.U. after    6 cycles
 SCF Done:  E(RB3LYP) =  -424.319504588     A.U. after    6 cycles
 Optimization completed.
    -- Stationary point found.
 Normal termination of Gaussian 16 at Thu Aug  4 04:39:13 2022.

 ----------------------------------------------------------------------
 #N Geom=AllCheck Guess=TCheck SCRF=Check GenChk RB3LYP/6-31G(2df,p) Fr
 eq
 ----------------------------------------------------------------------

 Structure from the checkpoint file:  "OOC1CCCC12CC2.chk"
 -------------------
 Title Card Required
 -------------------
 Charge =  0 Multiplicity = 1

                         Standard orientation:
 ---------------------------------------------------------------------
 Center     Atomic      Atomic             Coordinates (Angstroms)
 Number     Number       Type             X           Y           Z
 ---------------------------------------------------------------------
      1          8           0       -1.447337   -1.357012   -0.907036
      2          8           0       -0.993877   -1.476594    0.466883
      3          6           0       -0.397601   -0.241694    0.867666
      4          6           0       -1.324928    0.987351    0.736686
      5          6           0       -0.830166    1.739537   -0.510581
      6          6           0        0.696345    1.557680   -0.441933
      7          6           0        0.879812    0.137457    0.096008
      8          6           0        2.230288   -0.359485    0.550357
      9          6           0        1.606223   -0.916931   -0.700120
     10          1           0       -2.404180   -1.404600   -0.774667
     11          1           0       -0.182554   -0.473028    1.918075
     12          1           0       -1.199322    1.617781    1.624878
     13          1           0       -2.377095    0.693389    0.697065
     14          1           0       -1.135051    2.789682   -0.525547
     15          1           0       -1.221716    1.256528   -1.410434
     16          1           0        1.125069    2.287681    0.257963
     17          1           0        1.189886    1.708435   -1.406667
     18          1           0        2.270910   -0.998412    1.427716
     19          1           0        3.075525    0.314890    0.451835
     20          1           0        1.208159   -1.923830   -0.668288
     21          1           0        2.020242   -0.623154   -1.659204
 ---------------------------------------------------------------------

 SCF Done:  E(RB3LYP) =  -424.319504588     A.U. after    1 cycles

 The electronic state is 1-A.
 Alpha  occ. eigenvalues --  -19.18759 -19.18599 -10.23101 -10.18604 -10.17985
 Alpha  occ. eigenvalues --  -10.17680 -10.17613 -10.17483 -10.17404  -1.10738
 Alpha  occ. eigenvalues --   -0.91086  -0.85480  -0.79596  -0.69633  -0.65418
 Alpha  occ. eigenvalues --   -0.59348  -0.57448  -0.55048  -0.50423  -0.48871
 Alpha  occ. eigenvalues --   -0.47062  -0.45170  -0.43723  -0.42584  -0.39963
 Alpha  occ. eigenvalues --   -0.38605  -0.35843  -0.35031  -0.33932  -0.33318
 Alpha  occ. eigenvalues --   -0.32295  -0.29315  -0.28147  -0.26645  -0.25128
 Alpha virt. eigenvalues --    0.03173   0.07822   0.08599   0.10805   0.11737
 Alpha virt. eigenvalues --    0.12428   0.15032   0.15281   0.16572   0.17500
 Alpha virt. eigenvalues --    0.17813   0.19743   0.19935   0.21360   0.22041

 Mulliken charges:
               1
     1  O   -0.333900
     2  O   -0.190423
     3  C    0.076048
     4  C   -0.234742
     5  C   -0.202747
     6  C   -0.286346
     7  C    0.371620
     8  C   -0.335106
     9  C   -0.292150
    10  H    0.310627
    11  H    0.087772
    12  H    0.101844
    13  H    0.087917
    14  H    0.088382
    15  H    0.110182
    16  H    0.093382
    17  H    0.095831
    18  H    0.107620
    19  H    0.105325
    20  H    0.132420
    21  H    0.106445
 Sum of Mulliken charges =   0.00000

 Dipole moment (field-independent basis, Debye):
    X=             -0.9046    Y=              1.2115    Z=              0.3990  Tot=              1.5638
 Quadrupole moment (field-independent basis, Debye-Ang):
   XX=            -49.7583   YY=            -56.8058   ZZ=            -53.8083
   XY=              1.2803   XZ=              0.8596   YZ=              0.0664

  Exact polarizability:  85.210  -1.765  77.764   2.062   1.102  74.264
 Approx polarizability: 114.120   0.404 109.144   5.294   2.793 117.915

                      1                      2                      3
                      A                      A                      A
 Frequencies --     53.8724               132.4696               199.6920
 Red. masses --      2.8467                 5.3197                 2.6500
 Frc consts  --      0.0049                 0.0550                 0.0623
 IR Inten    --      0.3909                 2.3360                 0.2541

                      4                      5                      6
                      A                      A                      A
 Frequencies --    221.9962               257.3815               266.9724
 Red. masses --      1.5241                 1.6118                 2.3973
 Frc consts  --      0.0443                 0.0629                 0.1007
 IR Inten    --     88.0026                26.3049                 8.2201

                      7                      8                      9
                      A                      A                      A
 Frequencies --    307.9460               379.6087               435.3087
 Red. masses --      2.9819                 2.3028                 3.2222
 Frc consts  --      0.1666                 0.1955                 0.3598
 IR Inten    --      2.4048                 1.8688                 2.6459

                     10                     11                     12
                      A                      A                      A
 Frequencies --    504.3425               543.7195               637.3692
 Red. masses --      3.8432                 2.4981                 2.8266
 Frc consts  --      0.5760                 0.4351                 0.6765
 IR Inten    --      2.2009                 1.2109                 2.2815

                     13                     14                     15
                      A                      A                      A
 Frequencies --    770.0992               780.7479               806.1137
 Red. masses --      2.2919                 1.2570                 2.1071
 Frc consts  --      0.8008                 0.4514                 0.8067
 IR Inten    --      6.8209                 2.1406                 3.3956

                     16                     17                     18
                      A                      A                      A
 Frequencies --    847.3745               891.7721               909.0094
 Red. masses --      1.9482                 3.0699                 2.9839
 Frc consts  --      0.8242                 1.4384                 1.4527
 IR Inten    --      4.7301                 7.3279                 0.6789

                     19                     20                     21
                      A                      A                      A
 Frequencies --    912.9185               941.5835               964.1825
 Red. masses --      2.3203                 1.3377                 2.2666
 Frc consts  --      1.1394                 0.6988                 1.2415
 IR Inten    --      1.6578                 0.9659                 3.3297

                     22                     23                     24
                      A                      A                      A
 Frequencies --    975.2705              1004.4904              1011.1595
 Red. masses --      2.4496                 1.9937                 2.6496
 Frc consts  --      1.3728                 1.1852                 1.5962
 IR Inten    --     10.9265                 0.6852                22.2115

                     25                     26                     27
                      A                      A                      A
 Frequencies --   1049.7350              1061.4370              1084.3882
 Red. masses --      1.7333                 1.4647                 1.3865
 Frc consts  --      1.1254                 0.9723                 0.9606
 IR Inten    --     11.1347                 1.8771                 1.0325

                     28                     29                     30
                      A                      A                      A
 Frequencies --   1107.5929              1163.2244              1189.8378
 Red. masses --      1.9867                 1.4183                 1.3995
 Frc consts  --      1.4360                 1.1307                 1.1674
 IR Inten    --      4.2397                 2.1890                 1.3394

                     31                     32                     33
                      A                      A                      A
 Frequencies --   1195.0975              1233.4103              1269.5594
 Red. masses --      1.3830                 1.8193                 1.4112
 Frc consts  --      1.1638                 1.6307                 1.3401
 IR Inten    --      0.3410                 2.7698                 0.5985

                     34                     35                     36
                      A                      A                      A
 Frequencies --   1281.1291              1315.5695              1334.8466
 Red. masses --      1.7638                 1.5436                 1.4237
 Frc consts  --      1.7057                 1.5740                 1.4946
 IR Inten    --      0.9960                 1.1074                 2.1256

                     37                     38                     39
                      A                      A                      A
 Frequencies --   1345.3326              1364.4657              1373.1555
 Red. masses --      1.2658                 1.2352                 2.1745
 Frc consts  --      1.3498                 1.3549                 2.4158
 IR Inten    --      0.7353                20.2288                12.2042

                     40                     41                     42
                      A                      A                      A
 Frequencies --   1383.3549              1465.4599              1477.4948
 Red. masses --      1.2664                 1.0874                 1.0889
 Frc consts  --      1.4278                 1.3759                 1.4005
 IR Inten    --     44.8760                 1.8128                 3.5815

                     43                     44                     45
                      A                      A                      A
 Frequencies --   1487.8109              1501.1868              1503.9062
 Red. masses --      1.0965                 1.3375                 1.1248
 Frc consts  --      1.4301                 1.7759                 1.4989
 IR Inten    --      2.1618                 1.2343                 1.3478

                     46                     47                     48
                      A                      A                      A
 Frequencies --   3013.0326              3031.9857              3046.6960
 Red. masses --      1.0679                 1.0745                 1.0756
 Frc consts  --      5.7119                 5.8196                 5.8825
 IR Inten    --     34.5745                 7.4758                41.3522

                     49                     50                     51
                      A                      A                      A
 Frequencies --   3055.4467              3077.6896              3092.1870
 Red. masses --      1.0611                 1.0937                 1.0980
 Frc consts  --      5.8367                 6.1038                 6.1856
 IR Inten    --     25.4791                26.5097                24.7345

                     52                     53                     54
                      A                      A                      A
 Frequencies --   3107.6669              3115.3902              3135.2963
 Red. masses --      1.1059                 1.0534                 1.0563
 Frc consts  --      6.2927                 6.0236                 6.1181
 IR Inten    --     39.4682                21.0614                13.4648

                     55                     56                     57
                      A                      A                      A
 Frequencies --   3196.7622              3228.9322              3762.9160
 Red. masses --      1.1170                 1.1148                 1.0685
 Frc consts  --      6.7256                 6.8481                 8.9144
 IR Inten    --      7.9708                 7.7047                30.7880

 - Thermochemistry -
 -------------------
 Temperature   298.150 Kelvin.  Pressure   1.00000 Atm.
 Atom     1 has atomic number  8 and mass  15.99491

 Molecular mass:   128.08373 amu.
 Principal axes and moments of inertia in atomic units:
                           1         2         3
     Eigenvalues --   878.638221036.387701453.80799
           X            0.99360  -0.11287  -0.00403
           Y            0.11284   0.99360  -0.00593
           Z            0.00468   0.00544   0.99997
 This molecule is an asymmetric top.
 Rotational symmetry number  1.
 Warning -- assumption of classical behavior for rotation
           may cause significant error
 Rotational temperatures (Kelvin)      0.09858     0.08357     0.05958
 Rotational constants (GHZ):           2.05402     1.74138     1.24139
 Zero-point vibrational energy     477354.2 (Joules/Mol)
                                  114.09040 (Kcal/Mol)
 Warning -- explicit consideration of  11 degrees of freedom as
           vibrations may cause significant error
 Vibrational temperatures:     77.51   190.59   287.31   319.40   370.31
          (Kelvin)            384.11   443.07   546.17   626.31   725.64
                              782.29   917.03  1108.00  1123.32  1159.82
                             1219.18  1283.06  1307.86  1313.49  1354.73
                             1387.24  1403.20  1445.24  1454.83  1510.33
                             1527.17  1560.19  1593.58  1673.62  1711.91
                             1719.48  1774.60  1826.61  1843.26  1892.81
                             1920.55  1935.63  1963.16  1975.66  1990.34
                             2108.47  2125.79  2140.63  2159.87  2163.79
                             4335.08  4362.35  4383.52  4396.11  4428.11
                             4448.97  4471.24  4482.35  4510.99  4599.43
                             4645.71  5414.00

 Zero-point correction=                           0.181815 (Hartree/Particle)
 Thermal correction to Energy=                    0.190705
 Thermal correction to Enthalpy=                  0.191649
 Thermal correction to Gibbs Free Energy=         0.148229
 Sum of electronic and zero-point Energies=           -424.137690
 Sum of electronic and thermal Energies=              -424.128799
 Sum of electronic and thermal Enthalpies=            -424.127855
 Sum of electronic and thermal Free Energies=         -424.171276

                     E (Thermal)             CV                S
                      KCal/Mol        Cal/Mol-Kelvin    Cal/Mol-Kelvin
 Total                  119.669             34.496             91.386
 Electronic               0.000              0.000              0.000
 Translational            0.889              2.981             40.456
 Rotational               0.889              2.981             28.672
 Vibrational            117.892             28.534             22.258
 Vibration     1          0.596              1.976              4.670
 Vibration     2          0.613              1.921              2.910
 Vibration     3          0.638              1.840              2.136
 Vibration     4          0.648              1.808              1.943
 Vibration     5          0.667              1.750              1.679
 Vibration     6          0.672              1.734              1.616
 Vibration     7          0.698              1.659              1.373
 Vibration     8          0.750              1.514              1.041
 Vibration     9          0.796              1.393              0.841
 Vibration    10          0.860              1.240              0.647
 Vibration    11          0.899              1.153              0.557

                           ! Non-Optimized Parameters !
 Normal termination of Gaussian 16 at Thu Aug  4 05:22:29 2022.
