 Gaussian 16, Revision A.03,
 Gaussian 16:  ES64L-G16RevA.03 25-Dec-2016

 -----------------------------
 # opt freq b3lyp/6-31g(2df,p)
 -----------------------------

 -------------------
 Title Card Required
 -------------------
 Symbolic Z-matrix:
 Charge =  0 Multiplicity = 1

 SCF Done:  E(RB3LYP) =  -377.328321766     A.U. after   12 cycles
 SCF Done:  E(RB3LYP) =  -377.338267820     A.U. after   11 cycles
 SCF Done:  E(RB3LYP) =  -377.341161046     A.U. after   11 cycles
 SCF Done:  E(RB3LYP) =  -377.341828976     A.U. after   10 cycles
 SCF Done:  E(RB3LYP) =  -377.341935371     A.U. after   10 cycles
 SCF Done:  E(RB3LYP) =  -377.341955296     A.U. after    9 cycles
 SCF Done:  E(RB3LYP) =  -377.341960690     A.U. after    8 cycles
 SCF Done:  E(RB3LYP) =  -377.341962215     A.U. after    7 cycles
 SCF Done:  E(RB3LYP) =  -377.341962514     A.U. after    6 cycles
 Optimization completed.
    -- Stationary point found.
 Normal termination of Gaussian 16 at Mon May 31 21:36:42 2021.

 ----------------------------------------------------------------------
 #N Geom=AllCheck Guess=TCheck SCRF=Check GenChk RB3LYP/6-31G(2df,p) Fr
 eq
 ----------------------------------------------------------------------

 Structure from the checkpoint file:  "C1CC2NNNpC1pN2.chk"
 -------------------
 Title Card Required
 -------------------
 Charge =  0 Multiplicity = 1

                         Standard orientation:
 ---------------------------------------------------------------------
 Center     Atomic      Atomic             Coordinates (Angstroms)
 Number     Number       Type             X           Y           Z
 ---------------------------------------------------------------------
      1          6           0       -1.711015    0.512741   -0.161533
      2          6           0       -1.365104   -0.990259   -0.250092
      3          6           0        0.066493   -1.204009    0.287385
      4          7           0        1.080202   -0.939863   -0.762216
      5          7           0        1.726427    0.311712   -0.293488
      6          7           0        0.724703    0.971168    0.498184
      7          6           0       -0.471097    1.410586   -0.326588
      8          7           0        0.412650   -0.178445    1.309650
      9          1           0       -2.166034    0.723114    0.812817
     10          1           0       -2.464496    0.791495   -0.904165
     11          1           0       -1.433871   -1.359241   -1.281062
     12          1           0       -2.085724   -1.576068    0.331450
     13          1           0        0.208928   -2.199932    0.714013
     14          1           0        0.566935   -0.727905   -1.618093
     15          1           0        1.902548    0.887407   -1.115616
     16          1           0       -0.167423    1.452699   -1.380853
     17          1           0       -0.708555    2.435452   -0.026664
     18          1           0       -0.375837    0.046611    1.908226
 ---------------------------------------------------------------------

 SCF Done:  E(RB3LYP) =  -377.341962514     A.U. after    1 cycles

 The electronic state is 1-A.
 Alpha  occ. eigenvalues --  -14.37282 -14.36301 -14.34173 -14.33934 -10.23795
 Alpha  occ. eigenvalues --  -10.21532 -10.19982 -10.19514  -1.04706  -0.89254
 Alpha  occ. eigenvalues --   -0.85219  -0.79925  -0.71180  -0.66678  -0.62333
 Alpha  occ. eigenvalues --   -0.59420  -0.51508  -0.49731  -0.49260  -0.45130
 Alpha  occ. eigenvalues --   -0.43589  -0.42248  -0.41317  -0.39177  -0.37467
 Alpha  occ. eigenvalues --   -0.36936  -0.34414  -0.30038  -0.26331  -0.21475
 Alpha  occ. eigenvalues --   -0.21260
 Alpha virt. eigenvalues --    0.04779   0.08201   0.10068   0.11528   0.12115
 Alpha virt. eigenvalues --    0.13489   0.14544   0.15125   0.15733   0.16148
 Alpha virt. eigenvalues --    0.16714   0.18937   0.20485   0.21416   0.21801

 Mulliken charges:
               1
     1  C   -0.210966
     2  C   -0.238154
     3  C    0.079357
     4  N   -0.287763
     5  N   -0.230197
     6  N   -0.080259
     7  C   -0.168144
     8  N   -0.257077
     9  H    0.108987
    10  H    0.108077
    11  H    0.104758
    12  H    0.102651
    13  H    0.094257
    14  H    0.208819
    15  H    0.228843
    16  H    0.092454
    17  H    0.117567
    18  H    0.226791
 Sum of Mulliken charges =  -0.00000

 Dipole moment (field-independent basis, Debye):
    X=             -3.8595    Y=              0.6654    Z=             -1.7774  Tot=              4.3008
 Quadrupole moment (field-independent basis, Debye-Ang):
   XX=            -53.3702   YY=            -48.7385   ZZ=            -46.0243
   XY=              1.9311   XZ=             -4.3344   YZ=             -2.7079

  Exact polarizability:  68.431   1.080  68.882  -2.817  -1.718  62.215
 Approx polarizability:  98.976   1.781 102.760  -4.493  -0.453 101.248

                      1                      2                      3
                      A                      A                      A
 Frequencies --    183.2825               237.6628               343.6238
 Red. masses --      2.1723                 2.1406                 2.3986
 Frc consts  --      0.0430                 0.0712                 0.1669
 IR Inten    --      1.4494                 1.8157                 2.5537

                      4                      5                      6
                      A                      A                      A
 Frequencies --    444.8040               490.8432               540.9437
 Red. masses --      2.4729                 3.7416                 4.1161
 Frc consts  --      0.2883                 0.5311                 0.7096
 IR Inten    --      9.4528                 0.4784                 1.8030

                      7                      8                      9
                      A                      A                      A
 Frequencies --    593.8303               749.1760               755.0135
 Red. masses --      1.9429                 2.1707                 3.0038
 Frc consts  --      0.4037                 0.7178                 1.0089
 IR Inten    --     21.4457                23.3107                20.4658

                     10                     11                     12
                      A                      A                      A
 Frequencies --    767.6688               794.4234               812.9921
 Red. masses --      5.2079                 3.9444                 3.2779
 Frc consts  --      1.8082                 1.4667                 1.2765
 IR Inten    --     10.7790                19.1093                69.3146

                     13                     14                     15
                      A                      A                      A
 Frequencies --    847.0667               882.5555               901.8726
 Red. masses --      3.2861                 2.1433                 2.5656
 Frc consts  --      1.3892                 0.9836                 1.2295
 IR Inten    --     30.3104                 2.9061                18.7643

                     16                     17                     18
                      A                      A                      A
 Frequencies --    941.2942               959.8087               976.4037
 Red. masses --      2.5329                 2.6304                 3.6052
 Frc consts  --      1.3223                 1.4277                 2.0251
 IR Inten    --     11.5843                 2.5486                13.7327

                     19                     20                     21
                      A                      A                      A
 Frequencies --   1029.3340              1040.7257              1067.3445
 Red. masses --      1.5553                 2.3275                 2.2694
 Frc consts  --      0.9709                 1.4853                 1.5233
 IR Inten    --     29.7684                 3.5977                20.4587

                     22                     23                     24
                      A                      A                      A
 Frequencies --   1087.8636              1139.1759              1152.0252
 Red. masses --      1.7446                 1.5850                 1.6565
 Frc consts  --      1.2164                 1.2119                 1.2953
 IR Inten    --     41.9339                 6.1074                28.3951

                     25                     26                     27
                      A                      A                      A
 Frequencies --   1213.7004              1224.7267              1259.7375
 Red. masses --      1.4906                 1.3600                 1.1966
 Frc consts  --      1.2937                 1.2019                 1.1188
 IR Inten    --      7.5944                 1.2961                 4.6546

                     28                     29                     30
                      A                      A                      A
 Frequencies --   1305.5628              1319.4492              1345.1764
 Red. masses --      1.3231                 1.2268                 1.2656
 Frc consts  --      1.3287                 1.2584                 1.3493
 IR Inten    --      1.2787                 5.3635                 0.5910

                     31                     32                     33
                      A                      A                      A
 Frequencies --   1358.1047              1371.9518              1380.0363
 Red. masses --      1.3665                 1.2452                 1.3167
 Frc consts  --      1.4850                 1.3809                 1.4774
 IR Inten    --      0.5040                 3.6698                 2.9376

                     34                     35                     36
                      A                      A                      A
 Frequencies --   1422.5379              1459.6292              1494.1888
 Red. masses --      1.2265                 1.2044                 1.0739
 Frc consts  --      1.4624                 1.5118                 1.4127
 IR Inten    --     15.1535                21.0270                10.2483

                     37                     38                     39
                      A                      A                      A
 Frequencies --   1499.3569              1506.5106              3015.8147
 Red. masses --      1.0970                 1.0921                 1.0681
 Frc consts  --      1.4530                 1.4604                 5.7238
 IR Inten    --      0.4342                 1.8479                30.6975

                     40                     41                     42
                      A                      A                      A
 Frequencies --   3024.3373              3037.7908              3062.8266
 Red. masses --      1.0627                 1.0696                 1.0950
 Frc consts  --      5.7267                 5.8152                 6.0522
 IR Inten    --     27.4538                10.2058                21.7945

                     43                     44                     45
                      A                      A                      A
 Frequencies --   3076.0599              3077.4010              3086.7087
 Red. masses --      1.0932                 1.0902                 1.1021
 Frc consts  --      6.0946                 6.0830                 6.1869
 IR Inten    --     63.6799                17.7288                36.6153

                     46                     47                     48
                      A                      A                      A
 Frequencies --   3418.9986              3482.5492              3532.4067
 Red. masses --      1.0755                 1.0762                 1.0752
 Frc consts  --      7.4072                 7.6899                 7.9046
 IR Inten    --      5.2370                 0.3131                 0.2605

 - Thermochemistry -
 -------------------
 Temperature   298.150 Kelvin.  Pressure   1.00000 Atm.
 Atom     1 has atomic number  6 and mass  12.00000

 Molecular mass:   114.09055 amu.
 Principal axes and moments of inertia in atomic units:
                           1         2         3
     Eigenvalues --   559.75518 724.56608 904.09594
           X            0.99982   0.00963  -0.01662
           Y           -0.01038   0.99892  -0.04535
           Z            0.01617   0.04551   0.99883
 This molecule is an asymmetric top.
 Rotational symmetry number  1.
 Warning -- assumption of classical behavior for rotation
           may cause significant error
 Rotational temperatures (Kelvin)      0.15474     0.11954     0.09580
 Rotational constants (GHZ):           3.22416     2.49079     1.99618
 Zero-point vibrational energy     416990.1 (Joules/Mol)
                                   99.66302 (Kcal/Mol)
 Warning -- explicit consideration of   7 degrees of freedom as
           vibrations may cause significant error
 Vibrational temperatures:    263.70   341.94   494.40   639.97   706.21
          (Kelvin)            778.30   854.39  1077.90  1086.30  1104.50
                             1143.00  1169.71  1218.74  1269.80  1297.59
                             1354.31  1380.95  1404.83  1480.98  1497.37
                             1535.67  1565.19  1639.02  1657.51  1746.24
                             1762.11  1812.48  1878.41  1898.39  1935.41
                             1954.01  1973.93  1985.56  2046.71  2100.08
                             2149.80  2157.24  2167.53  4339.08  4351.35
                             4370.70  4406.72  4425.76  4427.69  4441.09
                             4919.18  5010.61  5082.35

 Zero-point correction=                           0.158823 (Hartree/Particle)
 Thermal correction to Energy=                    0.164998
 Thermal correction to Enthalpy=                  0.165942
 Thermal correction to Gibbs Free Energy=         0.128890
 Sum of electronic and zero-point Energies=           -377.183139
 Sum of electronic and thermal Energies=              -377.176964
 Sum of electronic and thermal Enthalpies=            -377.176020
 Sum of electronic and thermal Free Energies=         -377.213073

                     E (Thermal)             CV                S
                      KCal/Mol        Cal/Mol-Kelvin    Cal/Mol-Kelvin
 Total                  103.538             25.869             77.983
 Electronic               0.000              0.000              0.000
 Translational            0.889              2.981             40.111
 Rotational               0.889              2.981             27.397
 Vibrational            101.760             19.908             10.476
 Vibration     1          0.631              1.863              2.295
 Vibration     2          0.656              1.783              1.820
 Vibration     3          0.722              1.588              1.195
 Vibration     4          0.804              1.372              0.812
 Vibration     5          0.847              1.270              0.681
 Vibration     6          0.896              1.160              0.563
 Vibration     7          0.951              1.045              0.460

 Optimization completed.
    -- Stationary point found.
 Normal termination of Gaussian 16 at Mon May 31 22:05:40 2021.
