 Gaussian 16, Revision A.03,
 Gaussian 16:  ES64L-G16RevA.03 25-Dec-2016

 -----------------------------
 # opt freq b3lyp/6-31g(2df,p)
 -----------------------------

 -------------------
 Title Card Required
 -------------------
 Symbolic Z-matrix:
 Charge =  0 Multiplicity = 1

 SCF Done:  E(RB3LYP) =  -362.599508383     A.U. after   12 cycles
 SCF Done:  E(RB3LYP) =  -362.611868007     A.U. after   11 cycles
 SCF Done:  E(RB3LYP) =  -362.616654856     A.U. after   11 cycles
 SCF Done:  E(RB3LYP) =  -362.621491440     A.U. after   11 cycles
 SCF Done:  E(RB3LYP) =  -362.624527750     A.U. after   10 cycles
 SCF Done:  E(RB3LYP) =  -362.628202721     A.U. after   11 cycles
 SCF Done:  E(RB3LYP) =  -362.629505810     A.U. after   10 cycles
 SCF Done:  E(RB3LYP) =  -362.629819783     A.U. after   10 cycles
 SCF Done:  E(RB3LYP) =  -362.630140891     A.U. after   10 cycles
 SCF Done:  E(RB3LYP) =  -362.630262056     A.U. after   10 cycles
 SCF Done:  E(RB3LYP) =  -362.630325513     A.U. after    9 cycles
 SCF Done:  E(RB3LYP) =  -362.630359612     A.U. after    9 cycles
 SCF Done:  E(RB3LYP) =  -362.630368112     A.U. after    8 cycles
 SCF Done:  E(RB3LYP) =  -362.630373182     A.U. after    8 cycles
 SCF Done:  E(RB3LYP) =  -362.630380028     A.U. after    9 cycles
 SCF Done:  E(RB3LYP) =  -362.630384289     A.U. after    9 cycles
 SCF Done:  E(RB3LYP) =  -362.630385191     A.U. after    7 cycles
 SCF Done:  E(RB3LYP) =  -362.630385356     A.U. after    7 cycles
 Optimization completed.
    -- Stationary point found.
 Normal termination of Gaussian 16 at Mon May 31 21:24:04 2021.

 ----------------------------------------------------------------------
 #N Geom=AllCheck Guess=TCheck SCRF=Check GenChk RB3LYP/6-31G(2df,p) Fr
 eq
 ----------------------------------------------------------------------

 Structure from the checkpoint file:  "CC1CNCpCppNpN1.chk"
 -------------------
 Title Card Required
 -------------------
 Charge =  0 Multiplicity = 1

                         Standard orientation:
 ---------------------------------------------------------------------
 Center     Atomic      Atomic             Coordinates (Angstroms)
 Number     Number       Type             X           Y           Z
 ---------------------------------------------------------------------
      1          6           0       -2.609335   -0.637259    0.152301
      2          6           0       -1.371869   -0.004935   -0.471372
      3          6           0       -0.890616    1.285447    0.207460
      4          7           0        0.520876    1.281906   -0.164157
      5          6           0        1.000157   -0.116828   -0.044223
      6          6           0        1.498115   -0.455407    1.372708
      7          7           0        2.078990   -0.428909   -0.974406
      8          7           0       -0.192700   -0.889006   -0.419958
      9          1           0       -3.472529    0.030477    0.066923
     10          1           0       -2.449523   -0.850979    1.215839
     11          1           0       -2.863276   -1.575813   -0.350972
     12          1           0       -1.590867    0.223319   -1.524119
     13          1           0       -1.071221    1.229319    1.296877
     14          1           0       -1.396671    2.180219   -0.170615
     15          1           0        1.078811    1.909304    0.404421
     16          1           0        2.416170    0.096885    1.605245
     17          1           0        1.730382   -1.521629    1.450522
     18          1           0        0.744571   -0.200049    2.123766
     19          1           0        2.861534    0.201229   -0.812034
     20          1           0        1.739377   -0.232721   -1.912313
     21          1           0       -0.335634   -1.663605    0.214863
 ---------------------------------------------------------------------

 SCF Done:  E(RB3LYP) =  -362.630385356     A.U. after    1 cycles

 The electronic state is 1-A.
 Alpha  occ. eigenvalues --  -14.30575 -14.30231 -14.29192 -10.25595 -10.20659
 Alpha  occ. eigenvalues --  -10.19948 -10.17775 -10.17278  -0.95717  -0.85358
 Alpha  occ. eigenvalues --   -0.84027  -0.75341  -0.70786  -0.66133  -0.58053
 Alpha  occ. eigenvalues --   -0.57679  -0.50292  -0.48842  -0.45544  -0.43453
 Alpha  occ. eigenvalues --   -0.42175  -0.41401  -0.40833  -0.38976  -0.38124
 Alpha  occ. eigenvalues --   -0.36647  -0.35154  -0.34249  -0.33718  -0.24064
 Alpha  occ. eigenvalues --   -0.22189  -0.21530
 Alpha virt. eigenvalues --    0.06768   0.09892   0.11651   0.12454   0.13318
 Alpha virt. eigenvalues --    0.14210   0.15603   0.15927   0.17267   0.17381
 Alpha virt. eigenvalues --    0.18314   0.19446   0.19591   0.20856   0.21694

 Mulliken charges:
               1
     1  C   -0.419765
     2  C    0.096897
     3  C   -0.184231
     4  N   -0.326147
     5  C    0.289123
     6  C   -0.415190
     7  N   -0.514582
     8  N   -0.324414
     9  H    0.119554
    10  H    0.110430
    11  H    0.124132
    12  H    0.078814
    13  H    0.072636
    14  H    0.096295
    15  H    0.207504
    16  H    0.105962
    17  H    0.127804
    18  H    0.109733
    19  H    0.208593
    20  H    0.221829
    21  H    0.215025
 Sum of Mulliken charges =  -0.00000

 Dipole moment (field-independent basis, Debye):
    X=             -0.6199    Y=              1.1556    Z=              1.6048  Tot=              2.0724
 Quadrupole moment (field-independent basis, Debye-Ang):
   XX=            -48.3601   YY=            -50.8775   ZZ=            -50.5956
   XY=              3.7008   XZ=              1.1955   YZ=             -1.0845

  Exact polarizability:  87.022  -0.629  69.108   0.594  -0.355  67.733
 Approx polarizability: 111.072  -1.052 102.368   0.297   0.061  99.811

                      1                      2                      3
                      A                      A                      A
 Frequencies --     50.2639               188.1158               237.6913
 Red. masses --      2.6832                 2.1837                 1.2028
 Frc consts  --      0.0040                 0.0455                 0.0400
 IR Inten    --      1.3579                 1.9885                 5.9991

                      4                      5                      6
                      A                      A                      A
 Frequencies --    242.8761               272.0530               289.2134
 Red. masses --      1.0727                 1.2056                 1.7627
 Frc consts  --      0.0373                 0.0526                 0.0869
 IR Inten    --     12.8186                 8.7466                10.5332

                      7                      8                      9
                      A                      A                      A
 Frequencies --    329.5766               373.3808               441.1058
 Red. masses --      2.1867                 2.4349                 2.2138
 Frc consts  --      0.1399                 0.2000                 0.2538
 IR Inten    --      8.1083                 7.9890                 5.8275

                     10                     11                     12
                      A                      A                      A
 Frequencies --    456.6873               482.8277               577.3273
 Red. masses --      2.3702                 2.2435                 2.7239
 Frc consts  --      0.2913                 0.3082                 0.5349
 IR Inten    --     11.6123                 0.7951                20.3442

                     13                     14                     15
                      A                      A                      A
 Frequencies --    606.1362               672.3705               738.3505
 Red. masses --      3.6491                 2.0829                 2.6305
 Frc consts  --      0.7899                 0.5548                 0.8449
 IR Inten    --     13.4310                60.9490                50.2627

                     16                     17                     18
                      A                      A                      A
 Frequencies --    863.2117               892.0900               920.9079
 Red. masses --      2.2416                 1.5554                 1.9027
 Frc consts  --      0.9841                 0.7293                 0.9507
 IR Inten    --      3.4986               202.6615                24.3279

                     19                     20                     21
                      A                      A                      A
 Frequencies --    928.0452               941.6472               963.9086
 Red. masses --      1.8963                 1.6757                 1.4541
 Frc consts  --      0.9623                 0.8754                 0.7960
 IR Inten    --      6.9722                 2.3575                 1.4993

                     22                     23                     24
                      A                      A                      A
 Frequencies --    992.5807              1030.9428              1080.8200
 Red. masses --      1.4706                 1.9104                 2.6677
 Frc consts  --      0.8536                 1.1963                 1.8361
 IR Inten    --      5.4769                28.6743                11.7341

                     25                     26                     27
                      A                      A                      A
 Frequencies --   1103.3604              1147.0796              1165.7178
 Red. masses --      1.9885                 1.9068                 2.6498
 Frc consts  --      1.4263                 1.4782                 2.1215
 IR Inten    --     18.6037                 5.4387                10.6512

                     28                     29                     30
                      A                      A                      A
 Frequencies --   1206.3644              1218.9376              1257.7280
 Red. masses --      1.6014                 2.1461                 2.4178
 Frc consts  --      1.3731                 1.8787                 2.2534
 IR Inten    --     19.1334                98.6515                46.1292

                     31                     32                     33
                      A                      A                      A
 Frequencies --   1271.5946              1341.1027              1365.4692
 Red. masses --      1.3757                 1.3143                 1.3964
 Frc consts  --      1.3106                 1.3927                 1.5340
 IR Inten    --      1.7213                12.9042                 6.9849

                     34                     35                     36
                      A                      A                      A
 Frequencies --   1386.2863              1402.2086              1406.1391
 Red. masses --      1.4164                 1.3391                 1.2561
 Frc consts  --      1.6038                 1.5513                 1.4632
 IR Inten    --     13.8404                19.2864                 3.6255

                     37                     38                     39
                      A                      A                      A
 Frequencies --   1420.8995              1473.0149              1484.5481
 Red. masses --      1.3377                 1.3325                 1.0641
 Frc consts  --      1.5913                 1.7035                 1.3818
 IR Inten    --      4.8891                47.7718                 2.3507

                     40                     41                     42
                      A                      A                      A
 Frequencies --   1492.4670              1498.4393              1500.7437
 Red. masses --      1.0562                 1.1110                 1.0501
 Frc consts  --      1.3862                 1.4697                 1.3934
 IR Inten    --      3.1081                 6.7770                 1.5653

                     43                     44                     45
                      A                      A                      A
 Frequencies --   1518.9168              1643.9435              2924.8525
 Red. masses --      1.0926                 1.1027                 1.0718
 Frc consts  --      1.4851                 1.7558                 5.4022
 IR Inten    --      3.9606                31.1128                63.5530

                     46                     47                     48
                      A                      A                      A
 Frequencies --   2991.8424              3026.4264              3027.7016
 Red. masses --      1.0833                 1.0363                 1.0364
 Frc consts  --      5.7130                 5.5925                 5.5976
 IR Inten    --     42.6941                21.7702                20.5706

                     49                     50                     51
                      A                      A                      A
 Frequencies --   3059.1692              3094.6046              3095.7969
 Red. masses --      1.0895                 1.0992                 1.0999
 Frc consts  --      6.0072                 6.2021                 6.2107
 IR Inten    --     47.2770                40.2727                28.8026

                     52                     53                     54
                      A                      A                      A
 Frequencies --   3105.0256              3114.1216              3473.1365
 Red. masses --      1.1012                 1.1028                 1.0494
 Frc consts  --      6.2552                 6.3009                 7.4585
 IR Inten    --     21.2831                24.4546                 1.5740

                     55                     56                     57
                      A                      A                      A
 Frequencies --   3535.1996              3559.7819              3564.1993
 Red. masses --      1.0750                 1.0908                 1.0756
 Frc consts  --      7.9156                 8.1441                 8.0502
 IR Inten    --      0.4808                 0.3959                 1.7500

 - Thermochemistry -
 -------------------
 Temperature   298.150 Kelvin.  Pressure   1.00000 Atm.
 Atom     1 has atomic number  6 and mass  12.00000

 Molecular mass:   115.11095 amu.
 Principal axes and moments of inertia in atomic units:
                           1         2         3
     Eigenvalues --   514.764751190.164091265.43867
           X            0.99991   0.01114   0.00728
           Y           -0.01064   0.99786  -0.06456
           Z           -0.00799   0.06448   0.99789
 This molecule is an asymmetric top.
 Rotational symmetry number  1.
 Warning -- assumption of classical behavior for rotation
           may cause significant error
 Rotational temperatures (Kelvin)      0.16826     0.07277     0.06845
 Rotational constants (GHZ):           3.50595     1.51638     1.42618
 Zero-point vibrational energy     499135.6 (Joules/Mol)
                                  119.29626 (Kcal/Mol)
 Warning -- explicit consideration of  13 degrees of freedom as
           vibrations may cause significant error
 Vibrational temperatures:     72.32   270.66   341.98   349.44   391.42
          (Kelvin)            416.11   474.19   537.21   634.65   657.07
                              694.68   830.65   872.09   967.39  1062.32
                             1241.97  1283.52  1324.98  1335.25  1354.82
                             1386.85  1428.10  1483.30  1555.06  1587.49
                             1650.39  1677.21  1735.69  1753.78  1809.59
                             1829.54  1929.55  1964.61  1994.56  2017.47
                             2023.12  2044.36  2119.34  2135.93  2147.33
                             2155.92  2159.24  2185.38  2365.27  4208.21
                             4304.59  4354.35  4356.19  4401.46  4452.45
                             4454.16  4467.44  4480.53  4997.07  5086.36
                             5121.73  5128.09

 Zero-point correction=                           0.190111 (Hartree/Particle)
 Thermal correction to Energy=                    0.198892
 Thermal correction to Enthalpy=                  0.199836
 Thermal correction to Gibbs Free Energy=         0.157223
 Sum of electronic and zero-point Energies=           -362.440275
 Sum of electronic and thermal Energies=              -362.431494
 Sum of electronic and thermal Enthalpies=            -362.430550
 Sum of electronic and thermal Free Energies=         -362.473162

                     E (Thermal)             CV                S
                      KCal/Mol        Cal/Mol-Kelvin    Cal/Mol-Kelvin
 Total                  124.806             34.203             89.686
 Electronic               0.000              0.000              0.000
 Translational            0.889              2.981             40.137
 Rotational               0.889              2.981             28.141
 Vibrational            123.029             28.241             21.408
 Vibration     1          0.595              1.977              4.807
 Vibration     2          0.633              1.856              2.246
 Vibration     3          0.656              1.783              1.820
 Vibration     4          0.659              1.775              1.782
 Vibration     5          0.675              1.725              1.583
 Vibration     6          0.686              1.694              1.479
 Vibration     7          0.712              1.616              1.262
 Vibration     8          0.745              1.527              1.066
 Vibration     9          0.801              1.381              0.823
 Vibration    10          0.815              1.346              0.776
 Vibration    11          0.839              1.288              0.702
 Vibration    12          0.934              1.080              0.490
 Vibration    13          0.965              1.019              0.439

 Optimization completed.
    -- Stationary point found.
 Normal termination of Gaussian 16 at Mon May 31 21:58:12 2021.
