 Gaussian 16, Revision A.03,
 Gaussian 16:  ES64L-G16RevA.03 25-Dec-2016

 -----------------------------
 # opt freq b3lyp/6-31g(2df,p)
 -----------------------------

 -------------------
 Title Card Required
 -------------------
 Symbolic Z-matrix:
 Charge =  0 Multiplicity = 1

 SCF Done:  E(RB3LYP) =  -494.053698091     A.U. after   13 cycles
 SCF Done:  E(RB3LYP) =  -494.068808347     A.U. after   12 cycles
 SCF Done:  E(RB3LYP) =  -494.073536825     A.U. after   12 cycles
 SCF Done:  E(RB3LYP) =  -494.075262259     A.U. after   12 cycles
 SCF Done:  E(RB3LYP) =  -494.075791600     A.U. after   11 cycles
 SCF Done:  E(RB3LYP) =  -494.075891230     A.U. after   10 cycles
 SCF Done:  E(RB3LYP) =  -494.075912537     A.U. after   10 cycles
 SCF Done:  E(RB3LYP) =  -494.075919422     A.U. after    9 cycles
 SCF Done:  E(RB3LYP) =  -494.075920933     A.U. after    8 cycles
 SCF Done:  E(RB3LYP) =  -494.075921538     A.U. after    7 cycles
 Optimization completed.
    -- Stationary point found.
 Normal termination of Gaussian 16 at Tue Jun  1 05:56:01 2021.

 ----------------------------------------------------------------------
 #N Geom=AllCheck Guess=TCheck SCRF=Check GenChk RB3LYP/6-31G(2df,p) Fr
 eq
 ----------------------------------------------------------------------

 Structure from the checkpoint file:  "CC1CCN2CN2NdCNC1.chk"
 -------------------
 Title Card Required
 -------------------
 Charge =  0 Multiplicity = 1

                         Standard orientation:
 ---------------------------------------------------------------------
 Center     Atomic      Atomic             Coordinates (Angstroms)
 Number     Number       Type             X           Y           Z
 ---------------------------------------------------------------------
      1          6           0        3.190658   -1.067765    0.029506
      2          6           0        1.829757   -0.398526    0.286986
      3          6           0        0.688805   -1.218938   -0.400371
      4          6           0       -0.650802   -1.366089    0.385171
      5          7           0       -1.849314   -1.057796   -0.425365
      6          6           0       -2.976873   -0.549132    0.321536
      7          7           0       -2.269171    0.422136   -0.480533
      8          7           0       -1.400194    1.204427    0.347578
      9          6           0       -0.358264    1.492901   -0.335448
     10          7           0        0.811266    1.967843    0.213380
     11          6           0        1.946359    1.094086   -0.139887
     12          1           0        3.197786   -2.097496    0.398636
     13          1           0        4.005778   -0.528438    0.523533
     14          1           0        3.415671   -1.100018   -1.043199
     15          1           0        1.651032   -0.412655    1.371878
     16          1           0        1.078444   -2.226622   -0.574627
     17          1           0        0.481237   -0.827457   -1.400609
     18          1           0       -0.610190   -0.795458    1.318123
     19          1           0       -0.790279   -2.417362    0.660714
     20          1           0       -2.876251   -0.444379    1.401509
     21          1           0       -3.965750   -0.839341   -0.028971
     22          1           0       -0.295359    1.264537   -1.401211
     23          1           0        0.715572    2.073569    1.219013
     24          1           0        2.843239    1.527994    0.312239
     25          1           0        2.083130    1.147623   -1.227412
 ---------------------------------------------------------------------

 SCF Done:  E(RB3LYP) =  -494.075921538     A.U. after    1 cycles

 The electronic state is 1-A.
 Alpha  occ. eigenvalues --  -14.37063 -14.34777 -14.34498 -14.32936 -10.24498
 Alpha  occ. eigenvalues --  -10.22682 -10.22577 -10.20885 -10.20151 -10.18728
 Alpha  occ. eigenvalues --  -10.18441  -1.03503  -0.95521  -0.88251  -0.80802
 Alpha  occ. eigenvalues --   -0.77630  -0.69350  -0.67522  -0.63900  -0.61122
 Alpha  occ. eigenvalues --   -0.59383  -0.56829  -0.51094  -0.49172  -0.47650
 Alpha  occ. eigenvalues --   -0.46876  -0.45201  -0.44635  -0.42020  -0.39553
 Alpha  occ. eigenvalues --   -0.39055  -0.38218  -0.37650  -0.37062  -0.34850
 Alpha  occ. eigenvalues --   -0.33533  -0.33329  -0.32690  -0.29541  -0.29112
 Alpha  occ. eigenvalues --   -0.22757  -0.20294
 Alpha virt. eigenvalues --   -0.00082   0.07618   0.07966   0.09699   0.10295
 Alpha virt. eigenvalues --    0.11259   0.11931   0.12807   0.13714   0.14163
 Alpha virt. eigenvalues --    0.15014   0.16459   0.16557   0.17937   0.18372

 Mulliken charges:
               1
     1  C   -0.399776
     2  C    0.032397
     3  C   -0.213661
     4  C   -0.152980
     5  N   -0.111519
     6  C   -0.146299
     7  N   -0.104376
     8  N   -0.226044
     9  C    0.111461
    10  N   -0.290196
    11  C   -0.189272
    12  H    0.118658
    13  H    0.112279
    14  H    0.120561
    15  H    0.075105
    16  H    0.098771
    17  H    0.114159
    18  H    0.114885
    19  H    0.107452
    20  H    0.119964
    21  H    0.116391
    22  H    0.122975
    23  H    0.237011
    24  H    0.111781
    25  H    0.120273
 Sum of Mulliken charges =  -0.00000

 Dipole moment (field-independent basis, Debye):
    X=              2.7999    Y=             -0.9739    Z=              1.5150  Tot=              3.3291
 Quadrupole moment (field-independent basis, Debye-Ang):
   XX=            -65.9903   YY=            -69.6412   ZZ=            -66.4070
   XY=              2.6416   XZ=             -2.8493   YZ=             -1.2160

  Exact polarizability: 128.575   7.354  95.344  -3.066  -0.335  79.702
 Approx polarizability: 171.412  12.768 148.494  -6.481   0.202 135.267

                      1                      2                      3
                      A                      A                      A
 Frequencies --     81.7065               156.1010               180.7880
 Red. masses --      3.1022                 3.5311                 2.7774
 Frc consts  --      0.0122                 0.0507                 0.0535
 IR Inten    --      1.0023                 5.5875                 4.2562

                      4                      5                      6
                      A                      A                      A
 Frequencies --    224.2076               235.1662               283.1350
 Red. masses --      2.4404                 1.2536                 2.4135
 Frc consts  --      0.0723                 0.0408                 0.1140
 IR Inten    --      1.1893                 0.5142                 0.3875

                      7                      8                      9
                      A                      A                      A
 Frequencies --    308.5133               337.2812               364.3614
 Red. masses --      4.5951                 2.7557                 2.0575
 Frc consts  --      0.2577                 0.1847                 0.1609
 IR Inten    --      1.7277                 9.9261                 2.8489

                     10                     11                     12
                      A                      A                      A
 Frequencies --    384.6314               410.0098               472.7050
 Red. masses --      2.2424                 2.6559                 2.8061
 Frc consts  --      0.1955                 0.2631                 0.3694
 IR Inten    --      1.5203                 2.0146                 7.4904

                     13                     14                     15
                      A                      A                      A
 Frequencies --    480.7862               548.5276               565.0259
 Red. masses --      4.0745                 3.5868                 3.3345
 Frc consts  --      0.5549                 0.6358                 0.6272
 IR Inten    --      3.0529                22.1201                 7.9563

                     16                     17                     18
                      A                      A                      A
 Frequencies --    575.7953               648.5853               754.1750
 Red. masses --      2.7561                 6.3538                 1.9457
 Frc consts  --      0.5384                 1.5748                 0.6520
 IR Inten    --      2.8172                 2.5704                 1.3093

                     19                     20                     21
                      A                      A                      A
 Frequencies --    797.1719               837.5374               864.0062
 Red. masses --      3.2394                 1.6539                 2.6550
 Frc consts  --      1.2129                 0.6835                 1.1678
 IR Inten    --     19.2535               111.5880                 0.5505

                     22                     23                     24
                      A                      A                      A
 Frequencies --    902.4869               925.8561               941.5578
 Red. masses --      1.7712                 2.0601                 2.0364
 Frc consts  --      0.8500                 1.0405                 1.0637
 IR Inten    --     17.5324                12.2872                 3.3315

                     25                     26                     27
                      A                      A                      A
 Frequencies --    991.6411              1015.6452              1035.4898
 Red. masses --      2.4381                 2.2315                 1.7498
 Frc consts  --      1.4126                 1.3562                 1.1054
 IR Inten    --      1.3383                 4.3912                 0.6487

                     28                     29                     30
                      A                      A                      A
 Frequencies --   1054.4787              1065.3420              1099.8444
 Red. masses --      2.0723                 1.7194                 2.5054
 Frc consts  --      1.3576                 1.1498                 1.7856
 IR Inten    --     38.9515                 4.1022                 6.8550

                     31                     32                     33
                      A                      A                      A
 Frequencies --   1121.6926              1128.8948              1145.7172
 Red. masses --      1.9600                 1.9175                 2.0831
 Frc consts  --      1.4529                 1.4398                 1.6111
 IR Inten    --      5.4039                 9.2578                20.4836

                     34                     35                     36
                      A                      A                      A
 Frequencies --   1155.9067              1193.3754              1199.3033
 Red. masses --      2.0434                 1.3569                 1.3984
 Frc consts  --      1.6086                 1.1385                 1.1850
 IR Inten    --     24.1734                 1.2935                17.9308

                     37                     38                     39
                      A                      A                      A
 Frequencies --   1249.9909              1270.4972              1279.3348
 Red. masses --      2.3190                 1.5241                 1.4414
 Frc consts  --      2.1349                 1.4495                 1.3899
 IR Inten    --      3.4026                14.1495                 6.3997

                     40                     41                     42
                      A                      A                      A
 Frequencies --   1310.5502              1319.6277              1352.4796
 Red. masses --      1.2789                 1.4446                 1.2793
 Frc consts  --      1.2942                 1.4822                 1.3788
 IR Inten    --      6.7513                15.7535                12.0876

                     43                     44                     45
                      A                      A                      A
 Frequencies --   1366.9135              1377.1655              1383.6837
 Red. masses --      1.3793                 1.2726                 1.2843
 Frc consts  --      1.5184                 1.4220                 1.4487
 IR Inten    --      8.7234                 1.9790                12.1585

                     46                     47                     48
                      A                      A                      A
 Frequencies --   1397.2700              1416.6981              1453.1853
 Red. masses --      1.4181                 1.2374                 1.3501
 Frc consts  --      1.6313                 1.4633                 1.6797
 IR Inten    --      1.5636                 2.1093                10.1323

                     49                     50                     51
                      A                      A                      A
 Frequencies --   1480.4298              1485.2518              1496.9232
 Red. masses --      1.1081                 1.0733                 1.0717
 Frc consts  --      1.4309                 1.3950                 1.4149
 IR Inten    --      0.3072                 2.4216                 8.1154

                     52                     53                     54
                      A                      A                      A
 Frequencies --   1500.8624              1504.5944              1508.3781
 Red. masses --      1.0476                 1.0669                 1.1302
 Frc consts  --      1.3904                 1.4231                 1.5151
 IR Inten    --      3.6349                 4.1055                 5.5790

                     55                     56                     57
                      A                      A                      A
 Frequencies --   1702.1991              2999.2267              3026.0354
 Red. masses --      5.7504                 1.0822                 1.0387
 Frc consts  --      9.8167                 5.7358                 5.6039
 IR Inten    --    239.5430                11.0564                11.4062

                     58                     59                     60
                      A                      A                      A
 Frequencies --   3032.8486              3034.5021              3049.5270
 Red. masses --      1.0603                 1.0601                 1.0666
 Frc consts  --      5.7462                 5.7514                 5.8442
 IR Inten    --     10.0361                58.2473                19.4154

                     61                     62                     63
                      A                      A                      A
 Frequencies --   3072.8560              3080.1833              3084.3174
 Red. masses --      1.0976                 1.0497                 1.1014
 Frc consts  --      6.1064                 5.8679                 6.1735
 IR Inten    --     20.1131                40.1127                 9.6061

                     64                     65                     66
                      A                      A                      A
 Frequencies --   3086.9943              3094.3135              3105.8005
 Red. masses --      1.1011                 1.1006                 1.1011
 Frc consts  --      6.1824                 6.2086                 6.2581
 IR Inten    --      9.9538                48.7642                28.8344

                     67                     68                     69
                      A                      A                      A
 Frequencies --   3110.0275              3168.9143              3526.2065
 Red. masses --      1.0883                 1.1198                 1.0733
 Frc consts  --      6.2017                 6.6252                 7.8633
 IR Inten    --     23.4908                22.1221                 6.3471

 - Thermochemistry -
 -------------------
 Temperature   298.150 Kelvin.  Pressure   1.00000 Atm.
 Atom     1 has atomic number  6 and mass  12.00000

 Molecular mass:   154.12185 amu.
 Principal axes and moments of inertia in atomic units:
                           1         2         3
     Eigenvalues --   901.533812120.032912803.30374
           X            0.99995  -0.00482  -0.00881
           Y            0.00474   0.99996  -0.00808
           Z            0.00885   0.00804   0.99993
 This molecule is an asymmetric top.
 Rotational symmetry number  1.
 Warning -- assumption of classical behavior for rotation
           may cause significant error
 Rotational temperatures (Kelvin)      0.09607     0.04085     0.03090
 Rotational constants (GHZ):           2.00186     0.85128     0.64379
 Zero-point vibrational energy     573102.4 (Joules/Mol)
                                  136.97476 (Kcal/Mol)
 Warning -- explicit consideration of  16 degrees of freedom as
           vibrations may cause significant error
 Vibrational temperatures:    117.56   224.59   260.11   322.58   338.35
          (Kelvin)            407.37   443.88   485.27   524.23   553.40
                              589.91   680.12   691.74   789.21   812.95
                              828.44   933.17  1085.09  1146.95  1205.03
                             1243.11  1298.48  1332.10  1354.69  1426.75
                             1461.29  1489.84  1517.16  1532.79  1582.43
                             1613.87  1624.23  1648.43  1663.09  1717.00
                             1725.53  1798.46  1827.96  1840.68  1885.59
                             1898.65  1945.92  1966.68  1981.43  1990.81
                             2010.36  2038.31  2090.81  2130.01  2136.95
                             2153.74  2159.41  2164.78  2170.22  2449.08
                             4315.22  4353.79  4363.59  4365.97  4387.59
                             4421.15  4431.70  4437.64  4441.50  4452.03
                             4468.55  4474.64  4559.36  5073.42

 Zero-point correction=                           0.218283 (Hartree/Particle)
 Thermal correction to Energy=                    0.228407
 Thermal correction to Enthalpy=                  0.229351
 Thermal correction to Gibbs Free Energy=         0.183533
 Sum of electronic and zero-point Energies=           -493.857638
 Sum of electronic and thermal Energies=              -493.847515
 Sum of electronic and thermal Enthalpies=            -493.846571
 Sum of electronic and thermal Free Energies=         -493.892388

                     E (Thermal)             CV                S
                      KCal/Mol        Cal/Mol-Kelvin    Cal/Mol-Kelvin
 Total                  143.327             40.985             96.431
 Electronic               0.000              0.000              0.000
 Translational            0.889              2.981             41.007
 Rotational               0.889              2.981             30.061
 Vibrational            141.550             35.023             25.363
 Vibration     1          0.600              1.962              3.849
 Vibration     2          0.620              1.896              2.597
 Vibration     3          0.630              1.866              2.320
 Vibration     4          0.649              1.804              1.925
 Vibration     5          0.655              1.787              1.839
 Vibration     6          0.682              1.705              1.515
 Vibration     7          0.698              1.658              1.370
 Vibration     8          0.718              1.601              1.225
 Vibration     9          0.738              1.546              1.103
 Vibration    10          0.754              1.503              1.021
 Vibration    11          0.774              1.448              0.927
 Vibration    12          0.830              1.311              0.730
 Vibration    13          0.837              1.293              0.708
 Vibration    14          0.904              1.143              0.547
 Vibration    15          0.921              1.107              0.514
 Vibration    16          0.932              1.084              0.493

 Optimization completed.
    -- Stationary point found.
 Normal termination of Gaussian 16 at Tue Jun  1 07:02:10 2021.
