 Gaussian 16, Revision A.03,
 Gaussian 16:  ES64L-G16RevA.03 25-Dec-2016

 -----------------------------
 # opt freq b3lyp/6-31g(2df,p)
 -----------------------------

 -------------------
 Title Card Required
 -------------------
 Symbolic Z-matrix:
 Charge =  0 Multiplicity = 1

 SCF Done:  E(RB3LYP) =  -345.356627304     A.U. after   13 cycles
 SCF Done:  E(RB3LYP) =  -345.361466232     A.U. after   11 cycles
 SCF Done:  E(RB3LYP) =  -345.362069423     A.U. after   11 cycles
 SCF Done:  E(RB3LYP) =  -345.362429814     A.U. after   11 cycles
 SCF Done:  E(RB3LYP) =  -345.362920804     A.U. after   12 cycles
 SCF Done:  E(RB3LYP) =  -345.362534315     A.U. after   12 cycles
 SCF Done:  E(RB3LYP) =  -345.363551764     A.U. after   11 cycles
 SCF Done:  E(RB3LYP) =  -345.364327775     A.U. after   12 cycles
 SCF Done:  E(RB3LYP) =  -345.364607228     A.U. after   11 cycles
 SCF Done:  E(RB3LYP) =  -345.364671134     A.U. after   10 cycles
 SCF Done:  E(RB3LYP) =  -345.364742326     A.U. after   10 cycles
 SCF Done:  E(RB3LYP) =  -345.364760468     A.U. after   10 cycles
 SCF Done:  E(RB3LYP) =  -345.364796303     A.U. after   11 cycles
 SCF Done:  E(RB3LYP) =  -345.364824820     A.U. after   10 cycles
 SCF Done:  E(RB3LYP) =  -345.364843476     A.U. after   10 cycles
 SCF Done:  E(RB3LYP) =  -345.364844453     A.U. after   10 cycles
 SCF Done:  E(RB3LYP) =  -345.364845183     A.U. after    9 cycles
 SCF Done:  E(RB3LYP) =  -345.364845876     A.U. after    9 cycles
 SCF Done:  E(RB3LYP) =  -345.364845966     A.U. after    7 cycles
 Optimization completed.
    -- Stationary point found.
 Normal termination of Gaussian 16 at Mon May 31 15:33:55 2021.

 ----------------------------------------------------------------------
 #N Geom=AllCheck Guess=TCheck SCRF=Check GenChk RB3LYP/6-31G(2df,p) Fr
 eq
 ----------------------------------------------------------------------

 Structure from the checkpoint file:  "CC1CNCpCdNpC1.chk"
 -------------------
 Title Card Required
 -------------------
 Charge =  0 Multiplicity = 1

                         Standard orientation:
 ---------------------------------------------------------------------
 Center     Atomic      Atomic             Coordinates (Angstroms)
 Number     Number       Type             X           Y           Z
 ---------------------------------------------------------------------
      1          6           0       -2.818774   -0.771562    0.167756
      2          6           0       -1.528186   -0.180081   -0.395275
      3          6           0       -1.200029    1.232369    0.112583
      4          7           0        0.234065    1.334653   -0.147052
      5          6           0        0.836023    0.079019    0.310562
      6          6           0        2.150378   -0.171369   -0.388739
      7          7           0        3.267239   -0.476222    0.129714
      8          6           0       -0.247583   -0.985189   -0.040741
      9          1           0       -3.686085   -0.155346   -0.092829
     10          1           0       -2.775797   -0.843404    1.260764
     11          1           0       -2.998291   -1.777667   -0.224882
     12          1           0       -1.608591   -0.125508   -1.486298
     13          1           0       -1.457704    1.312756    1.185797
     14          1           0       -1.748106    2.015886   -0.420757
     15          1           0        0.661048    2.143216    0.290340
     16          1           0        1.016963    0.063640    1.400851
     17          1           0        2.097074   -0.073911   -1.479113
     18          1           0        3.181699   -0.525269    1.151351
     19          1           0       -0.412515   -1.646271    0.814787
     20          1           0        0.070214   -1.616263   -0.875523
 ---------------------------------------------------------------------

 SCF Done:  E(RB3LYP) =  -345.364845966     A.U. after    1 cycles

 The electronic state is 1-A.
 Alpha  occ. eigenvalues --  -14.31863 -14.31076 -10.21936 -10.21780 -10.20632
 Alpha  occ. eigenvalues --  -10.19155 -10.18774 -10.17933  -0.92719  -0.88955
 Alpha  occ. eigenvalues --   -0.78667  -0.74104  -0.67822  -0.61942  -0.57827
 Alpha  occ. eigenvalues --   -0.56396  -0.51207  -0.49083  -0.45743  -0.42151
 Alpha  occ. eigenvalues --   -0.41533  -0.40336  -0.39633  -0.37875  -0.36697
 Alpha  occ. eigenvalues --   -0.35367  -0.33076  -0.32131  -0.30079  -0.25525
 Alpha  occ. eigenvalues --   -0.23010
 Alpha virt. eigenvalues --    0.00335   0.07728   0.08343   0.11162   0.12214
 Alpha virt. eigenvalues --    0.13655   0.14820   0.15343   0.16042   0.16331
 Alpha virt. eigenvalues --    0.18191   0.18484   0.19060   0.20087   0.20559

 Mulliken charges:
               1
     1  C   -0.410070
     2  C    0.067124
     3  C   -0.171625
     4  N   -0.310452
     5  C   -0.004701
     6  C    0.066659
     7  N   -0.406748
     8  C   -0.242027
     9  H    0.115585
    10  H    0.113587
    11  H    0.117542
    12  H    0.083116
    13  H    0.074451
    14  H    0.100834
    15  H    0.220595
    16  H    0.049492
    17  H    0.109624
    18  H    0.211952
    19  H    0.104199
    20  H    0.110861
 Sum of Mulliken charges =   0.00000

 Dipole moment (field-independent basis, Debye):
    X=             -2.6404    Y=              0.5032    Z=              1.3201  Tot=              2.9946
 Quadrupole moment (field-independent basis, Debye-Ang):
   XX=            -60.9125   YY=            -48.5064   ZZ=            -48.1138
   XY=              2.0473   XZ=              3.4201   YZ=              1.1441

  Exact polarizability:  96.020  -3.369  67.792   3.669  -0.896  67.547
 Approx polarizability: 123.074  -6.684  97.716   7.862  -2.988 106.348

                      1                      2                      3
                      A                      A                      A
 Frequencies --     31.7058                82.2066               187.7414
 Red. masses --      2.6364                 3.3539                 2.4199
 Frc consts  --      0.0016                 0.0134                 0.0503
 IR Inten    --      0.7310                 0.7475                 1.8721

                      4                      5                      6
                      A                      A                      A
 Frequencies --    238.2207               252.9147               348.5423
 Red. masses --      1.1667                 1.7998                 2.1568
 Frc consts  --      0.0390                 0.0678                 0.1544
 IR Inten    --      0.0578                 0.9940                 0.6512

                      7                      8                      9
                      A                      A                      A
 Frequencies --    361.6435               402.1046               448.0930
 Red. masses --      2.2793                 3.2246                 2.3698
 Frc consts  --      0.1756                 0.3072                 0.2804
 IR Inten    --      6.7998                 0.1935                 2.7762

                     10                     11                     12
                      A                      A                      A
 Frequencies --    570.0828               624.7520               786.8555
 Red. masses --      3.0161                 2.6263                 1.9814
 Frc consts  --      0.5775                 0.6040                 0.7228
 IR Inten    --     27.8094                44.7793                24.0084

                     13                     14                     15
                      A                      A                      A
 Frequencies --    841.0717               849.7975               884.0284
 Red. masses --      2.0658                 2.2243                 2.0745
 Frc consts  --      0.8610                 0.9464                 0.9552
 IR Inten    --      3.6584                 2.8684                25.8724

                     16                     17                     18
                      A                      A                      A
 Frequencies --    937.8516               954.2907               966.2058
 Red. masses --      1.6611                 1.7765                 1.5877
 Frc consts  --      0.8608                 0.9532                 0.8733
 IR Inten    --      5.7363                 4.5060                 1.7587

                     19                     20                     21
                      A                      A                      A
 Frequencies --   1032.7124              1064.7459              1088.0597
 Red. masses --      1.9769                 2.5358                 2.2419
 Frc consts  --      1.2422                 1.6938                 1.5637
 IR Inten    --      0.4216                 5.4313                 8.4610

                     22                     23                     24
                      A                      A                      A
 Frequencies --   1115.0260              1133.8036              1148.0668
 Red. masses --      1.5722                 2.7218                 1.0894
 Frc consts  --      1.1517                 2.0615                 0.8460
 IR Inten    --     19.0240                12.3553                37.5316

                     25                     26                     27
                      A                      A                      A
 Frequencies --   1168.7262              1187.2445              1246.9345
 Red. masses --      2.2163                 1.2768                 1.3542
 Frc consts  --      1.7836                 1.0604                 1.2406
 IR Inten    --     12.5475                 4.0223                17.1249

                     28                     29                     30
                      A                      A                      A
 Frequencies --   1261.7185              1282.8304              1298.6374
 Red. masses --      1.3208                 1.3043                 1.2933
 Frc consts  --      1.2389                 1.2647                 1.2851
 IR Inten    --      3.0793                49.1340                 1.4915

                     31                     32                     33
                      A                      A                      A
 Frequencies --   1343.2117              1347.2988              1361.1786
 Red. masses --      1.3811                 1.2604                 1.3977
 Frc consts  --      1.4681                 1.3480                 1.5258
 IR Inten    --     14.5469                13.2675                43.9918

                     34                     35                     36
                      A                      A                      A
 Frequencies --   1388.0370              1409.9785              1411.7861
 Red. masses --      1.4389                 1.2547                 1.2613
 Frc consts  --      1.6333                 1.4696                 1.4812
 IR Inten    --      0.6869                15.7668                 2.3705

                     37                     38                     39
                      A                      A                      A
 Frequencies --   1442.0961              1494.0096              1497.6778
 Red. masses --      1.3857                 1.0801                 1.0550
 Frc consts  --      1.6978                 1.4204                 1.3943
 IR Inten    --      4.4771                 2.8372                 1.6349

                     40                     41                     42
                      A                      A                      A
 Frequencies --   1500.6047              1519.3573              1729.3227
 Red. masses --      1.0504                 1.0958                 8.6022
 Frc consts  --      1.3935                 1.4904                15.1569
 IR Inten    --      3.5624                 3.6393                68.2773

                     43                     44                     45
                      A                      A                      A
 Frequencies --   2917.6072              2922.2524              3025.9800
 Red. masses --      1.0762                 1.0784                 1.0363
 Frc consts  --      5.3973                 5.4256                 5.5905
 IR Inten    --     42.5159                94.6096                25.6029

                     46                     47                     48
                      A                      A                      A
 Frequencies --   3039.4204              3055.7117              3066.8348
 Red. masses --      1.0831                 1.0607                 1.0891
 Frc consts  --      5.8953                 5.8354                 6.0352
 IR Inten    --     10.4683                29.1283                28.0527

                     49                     50                     51
                      A                      A                      A
 Frequencies --   3073.4197              3091.6118              3098.4229
 Red. masses --      1.0876                 1.1025                 1.1011
 Frc consts  --      6.0529                 6.2086                 6.2280
 IR Inten    --     23.8066                20.3014                25.6417

                     52                     53                     54
                      A                      A                      A
 Frequencies --   3100.1724              3389.9256              3540.3072
 Red. masses --      1.1032                 1.0731                 1.0748
 Frc consts  --      6.2471                 7.2658                 7.9372
 IR Inten    --     52.3224                 6.7110                 0.6906

 - Thermochemistry -
 -------------------
 Temperature   298.150 Kelvin.  Pressure   1.00000 Atm.
 Atom     1 has atomic number  6 and mass  12.00000

 Molecular mass:   112.10005 amu.
 Principal axes and moments of inertia in atomic units:
                           1         2         3
     Eigenvalues --   372.681731528.657821769.94394
           X            0.99995   0.01015   0.00156
           Y           -0.01016   0.99992   0.00770
           Z           -0.00148  -0.00772   0.99997
 This molecule is an asymmetric top.
 Rotational symmetry number  1.
 Rotational temperatures (Kelvin)      0.23241     0.05666     0.04894
 Rotational constants (GHZ):           4.84258     1.18061     1.01966
 Zero-point vibrational energy     469910.1 (Joules/Mol)
                                  112.31122 (Kcal/Mol)
 Warning -- explicit consideration of  10 degrees of freedom as
           vibrations may cause significant error
 Vibrational temperatures:     45.62   118.28   270.12   342.75   363.89
          (Kelvin)            501.47   520.32   578.54   644.71   820.22
                              898.88  1132.11  1210.11  1222.67  1271.92
                             1349.36  1373.01  1390.15  1485.84  1531.93
                             1565.48  1604.27  1631.29  1651.81  1681.54
                             1708.18  1794.06  1815.33  1845.71  1868.45
                             1932.58  1938.46  1958.43  1997.08  2028.64
                             2031.25  2074.85  2149.55  2154.82  2159.04
                             2186.02  2488.11  4197.79  4204.47  4353.71
                             4373.05  4396.49  4412.49  4421.97  4448.14
                             4457.94  4460.46  4877.35  5093.71

 Zero-point correction=                           0.178979 (Hartree/Particle)
 Thermal correction to Energy=                    0.187351
 Thermal correction to Enthalpy=                  0.188295
 Thermal correction to Gibbs Free Energy=         0.145254
 Sum of electronic and zero-point Energies=           -345.185867
 Sum of electronic and thermal Energies=              -345.177495
 Sum of electronic and thermal Enthalpies=            -345.176551
 Sum of electronic and thermal Free Energies=         -345.219592

                     E (Thermal)             CV                S
                      KCal/Mol        Cal/Mol-Kelvin    Cal/Mol-Kelvin
 Total                  117.564             30.895             90.587
 Electronic               0.000              0.000              0.000
 Translational            0.889              2.981             40.058
 Rotational               0.889              2.981             28.402
 Vibrational            115.787             24.933             22.127
 Vibration     1          0.594              1.983              5.720
 Vibration     2          0.600              1.961              3.837
 Vibration     3          0.632              1.857              2.250
 Vibration     4          0.656              1.782              1.816
 Vibration     5          0.664              1.758              1.710
 Vibration     6          0.726              1.578              1.173
 Vibration     7          0.736              1.551              1.115
 Vibration     8          0.768              1.466              0.955
 Vibration     9          0.807              1.365              0.802
 Vibration    10          0.926              1.096              0.504

 Optimization completed.
    -- Stationary point found.
 Normal termination of Gaussian 16 at Mon May 31 16:00:15 2021.
