 Gaussian 16, Revision A.03,
 Gaussian 16:  ES64L-G16RevA.03 25-Dec-2016

 -----------------------------
 # opt freq b3lyp/6-31g(2df,p)
 -----------------------------

 -------------------
 Title Card Required
 -------------------
 Symbolic Z-matrix:
 Charge =  0 Multiplicity = 1

 SCF Done:  E(RB3LYP) =  -367.051787083     A.U. after   19 cycles
 SCF Done:  E(RB3LYP) =  -367.113272105     A.U. after   15 cycles
 SCF Done:  E(RB3LYP) =  -367.191020769     A.U. after   14 cycles
 SCF Done:  E(RB3LYP) =  -367.239631261     A.U. after   13 cycles
 SCF Done:  E(RB3LYP) =  -367.251284594     A.U. after   13 cycles
 SCF Done:  E(RB3LYP) =  -367.256107854     A.U. after   13 cycles
 SCF Done:  E(RB3LYP) =  -367.258772354     A.U. after   13 cycles
 SCF Done:  E(RB3LYP) =  -367.260501719     A.U. after   13 cycles
 SCF Done:  E(RB3LYP) =  -367.260979160     A.U. after   12 cycles
 SCF Done:  E(RB3LYP) =  -367.261216539     A.U. after   11 cycles
 SCF Done:  E(RB3LYP) =  -367.402399364     A.U. after   13 cycles
 SCF Done:  E(RB3LYP) =  -367.402718116     A.U. after   12 cycles
 SCF Done:  E(RB3LYP) =  -367.402839476     A.U. after   12 cycles
 SCF Done:  E(RB3LYP) =  -367.402886505     A.U. after   11 cycles
 SCF Done:  E(RB3LYP) =  -367.402902057     A.U. after    9 cycles
 SCF Done:  E(RB3LYP) =  -367.402906484     A.U. after    7 cycles
 SCF Done:  E(RB3LYP) =  -367.402907435     A.U. after    7 cycles
 SCF Done:  E(RB3LYP) =  -367.402907810     A.U. after    7 cycles
 SCF Done:  E(RB3LYP) =  -367.402908010     A.U. after    6 cycles
 Optimization completed.
    -- Stationary point found.
 Normal termination of Gaussian 16 at Mon May 31 23:32:51 2021.

 ----------------------------------------------------------------------
 #N Geom=AllCheck Guess=TCheck SCRF=Check GenChk RB3LYP/6-31G(2df,p) Fr
 eq
 ----------------------------------------------------------------------

 Structure from the checkpoint file:  "CC1CCCdCdNCC1.chk"
 -------------------
 Title Card Required
 -------------------
 Charge =  0 Multiplicity = 1

                         Standard orientation:
 ---------------------------------------------------------------------
 Center     Atomic      Atomic             Coordinates (Angstroms)
 Number     Number       Type             X           Y           Z
 ---------------------------------------------------------------------
      1          6           0        2.658359   -0.414940    0.261015
      2          6           0        1.148135   -0.122351    0.233217
      3          6           0        0.421800   -1.177162   -0.666466
      4          6           0       -0.742279   -1.938701   -0.000021
      5          6           0       -1.887986   -1.033298    0.430692
      6          6           0       -1.821832    0.212005    0.036873
      7          7           0       -1.523639    1.300023   -0.436088
      8          6           0       -0.404200    2.007388    0.224781
      9          6           0        0.931442    1.359700   -0.181552
     10          1           0        2.853321   -1.443430    0.582379
     11          1           0        3.186581    0.256898    0.945772
     12          1           0        3.100465   -0.290452   -0.734944
     13          1           0        0.774041   -0.236760    1.259500
     14          1           0        1.153442   -1.924604   -0.992622
     15          1           0        0.057324   -0.699728   -1.582427
     16          1           0       -0.370201   -2.460738    0.893339
     17          1           0       -1.095157   -2.723309   -0.683080
     18          1           0       -2.656343   -1.388804    1.105154
     19          1           0       -0.516944    1.980588    1.316267
     20          1           0       -0.422825    3.052948   -0.093581
     21          1           0        1.723625    1.968017    0.273243
     22          1           0        1.057509    1.453365   -1.267622
 ---------------------------------------------------------------------

 SCF Done:  E(RB3LYP) =  -367.402908010     A.U. after    1 cycles

 The electronic state is 1-A.
 Alpha  occ. eigenvalues --  -14.33418 -10.22231 -10.21666 -10.19163 -10.18946
 Alpha  occ. eigenvalues --  -10.18480 -10.17879 -10.17852 -10.17391  -0.93396
 Alpha  occ. eigenvalues --   -0.81209  -0.78866  -0.72323  -0.69855  -0.64615
 Alpha  occ. eigenvalues --   -0.60332  -0.56430  -0.50768  -0.48116  -0.45465
 Alpha  occ. eigenvalues --   -0.44372  -0.43406  -0.43157  -0.41465  -0.39160
 Alpha  occ. eigenvalues --   -0.38143  -0.36675  -0.34935  -0.33230  -0.32191
 Alpha  occ. eigenvalues --   -0.31759  -0.31108  -0.29021  -0.21159
 Alpha virt. eigenvalues --    0.00061   0.05246   0.09053   0.11503   0.11988
 Alpha virt. eigenvalues --    0.12419   0.14314   0.14767   0.15805   0.16454
 Alpha virt. eigenvalues --    0.16856   0.17422   0.18305   0.18904   0.19481

 Mulliken charges:
               1
     1  C   -0.405770
     2  C    0.062612
     3  C   -0.217446
     4  C   -0.221169
     5  C   -0.256698
     6  C    0.323093
     7  N   -0.266405
     8  C   -0.191430
     9  C   -0.180850
    10  H    0.110417
    11  H    0.108520
    12  H    0.115262
    13  H    0.076138
    14  H    0.087877
    15  H    0.113443
    16  H    0.105229
    17  H    0.106544
    18  H    0.111837
    19  H    0.107493
    20  H    0.108965
    21  H    0.094704
    22  H    0.107633
 Sum of Mulliken charges =  -0.00000

 Dipole moment (field-independent basis, Debye):
    X=              1.3011    Y=             -0.4815    Z=              1.0597  Tot=              1.7458
 Quadrupole moment (field-independent basis, Debye-Ang):
   XX=            -58.3016   YY=            -53.8343   ZZ=            -56.1724
   XY=              2.6194   XZ=             -2.6907   YZ=              1.0606

  Exact polarizability:  89.994   5.901 107.958  -2.397  -3.824  69.904
 Approx polarizability: 119.167  10.182 170.773  -3.838 -16.131 114.783

                      1                      2                      3
                      A                      A                      A
 Frequencies --     98.3773               182.8496               215.2879
 Red. masses --      2.9569                 2.3805                 2.2364
 Frc consts  --      0.0169                 0.0469                 0.0611
 IR Inten    --      0.8543                 0.8821                 0.7167

                      4                      5                      6
                      A                      A                      A
 Frequencies --    244.8971               257.9735               286.7303
 Red. masses --      2.3678                 1.3064                 3.5236
 Frc consts  --      0.0837                 0.0512                 0.1707
 IR Inten    --      2.8467                 1.2793                 0.6501

                      7                      8                      9
                      A                      A                      A
 Frequencies --    328.9945               377.4359               413.7477
 Red. masses --      3.4424                 1.9275                 1.9159
 Frc consts  --      0.2195                 0.1618                 0.1932
 IR Inten    --      3.8484                 0.4147                 0.1149

                     10                     11                     12
                      A                      A                      A
 Frequencies --    476.6567               514.8539               639.5176
 Red. masses --      2.9479                 2.3838                 4.2107
 Frc consts  --      0.3946                 0.3723                 1.0146
 IR Inten    --      1.3744                 5.0157                 2.8971

                     13                     14                     15
                      A                      A                      A
 Frequencies --    644.0660               713.2045               771.0746
 Red. masses --      2.2818                 1.7510                 2.0668
 Frc consts  --      0.5577                 0.5248                 0.7240
 IR Inten    --      9.7925                21.2034                 2.8494

                     16                     17                     18
                      A                      A                      A
 Frequencies --    840.1380               852.6136               857.7203
 Red. masses --      2.7257                 2.3381                 2.4985
 Frc consts  --      1.1335                 1.0014                 1.0830
 IR Inten    --      5.2645                 0.5753                 2.0063

                     19                     20                     21
                      A                      A                      A
 Frequencies --    917.6106               953.5934               973.0508
 Red. masses --      2.2927                 1.5244                 1.8891
 Frc consts  --      1.1374                 0.8167                 1.0539
 IR Inten    --      6.9336                 0.3359                 4.2385

                     22                     23                     24
                      A                      A                      A
 Frequencies --    988.7819              1023.1871              1059.6911
 Red. masses --      1.4864                 2.6061                 2.4473
 Frc consts  --      0.8562                 1.6075                 1.6192
 IR Inten    --      0.5145                 0.6595                 1.1586

                     25                     26                     27
                      A                      A                      A
 Frequencies --   1086.3745              1111.8709              1131.5905
 Red. masses --      2.3739                 1.7727                 1.6239
 Frc consts  --      1.6507                 1.2912                 1.2252
 IR Inten    --      5.5027                 1.5204                 2.1319

                     28                     29                     30
                      A                      A                      A
 Frequencies --   1176.2374              1190.1724              1240.7769
 Red. masses --      1.5758                 1.2638                 1.3101
 Frc consts  --      1.2845                 1.0547                 1.1884
 IR Inten    --     10.5206                 4.5261                 4.2475

                     31                     32                     33
                      A                      A                      A
 Frequencies --   1256.9256              1278.9919              1324.0124
 Red. masses --      1.2700                 1.1699                 1.3142
 Frc consts  --      1.1822                 1.1276                 1.3573
 IR Inten    --      4.4351                 6.7816                 3.9800

                     34                     35                     36
                      A                      A                      A
 Frequencies --   1332.5963              1350.8243              1357.9259
 Red. masses --      1.3021                 1.3258                 1.3209
 Frc consts  --      1.3624                 1.4254                 1.4350
 IR Inten    --      2.5768                20.0365                10.0263

                     37                     38                     39
                      A                      A                      A
 Frequencies --   1378.5796              1391.3827              1414.1535
 Red. masses --      1.3845                 1.3827                 1.2299
 Frc consts  --      1.5503                 1.5772                 1.4492
 IR Inten    --      2.7881                 1.4627                 2.1408

                     40                     41                     42
                      A                      A                      A
 Frequencies --   1428.5506              1473.8885              1485.6580
 Red. masses --      2.5466                 1.0854                 1.1045
 Frc consts  --      3.0619                 1.3892                 1.4363
 IR Inten    --      9.3389                 1.4299                 1.5714

                     43                     44                     45
                      A                      A                      A
 Frequencies --   1495.2101              1500.2546              1503.5054
 Red. masses --      1.0647                 1.0571                 1.0571
 Frc consts  --      1.4025                 1.4018                 1.4079
 IR Inten    --      9.4217                 1.9349                 1.5041

                     46                     47                     48
                      A                      A                      A
 Frequencies --   1505.6677              2123.6203              2999.0005
 Red. masses --      1.0907                11.1202                 1.0593
 Frc consts  --      1.4569                29.5473                 5.6132
 IR Inten    --      5.7576               295.4138                44.9097

                     49                     50                     51
                      A                      A                      A
 Frequencies --   3010.4782              3018.7776              3019.5213
 Red. masses --      1.0805                 1.0530                 1.0647
 Frc consts  --      5.7696                 5.6538                 5.7192
 IR Inten    --      4.5898                 8.5809                37.0643

                     52                     53                     54
                      A                      A                      A
 Frequencies --   3022.7411              3025.0597              3040.9475
 Red. masses --      1.0596                 1.0800                 1.0681
 Frc consts  --      5.7044                 5.8232                 5.8194
 IR Inten    --     15.9530                44.7294                47.0520

                     55                     56                     57
                      A                      A                      A
 Frequencies --   3061.2213              3074.6083              3089.4632
 Red. masses --      1.1008                 1.1015                 1.1003
 Frc consts  --      6.0777                 6.1348                 6.1879
 IR Inten    --     28.5902                26.7544                30.9819

                     58                     59                     60
                      A                      A                      A
 Frequencies --   3092.4864              3097.3160              3205.4159
 Red. masses --      1.0998                 1.1016                 1.0900
 Frc consts  --      6.1970                 6.2268                 6.5983
 IR Inten    --     46.5500                36.7494                 2.3347

 - Thermochemistry -
 -------------------
 Temperature   298.150 Kelvin.  Pressure   1.00000 Atm.
 Atom     1 has atomic number  6 and mass  12.00000

 Molecular mass:   123.10480 amu.
 Principal axes and moments of inertia in atomic units:
                           1         2         3
     Eigenvalues --   850.969021089.332941757.93773
           X            0.99870   0.05057  -0.00702
           Y           -0.05051   0.99869   0.00761
           Z            0.00740  -0.00724   0.99995
 This molecule is an asymmetric top.
 Rotational symmetry number  1.
 Warning -- assumption of classical behavior for rotation
           may cause significant error
 Rotational temperatures (Kelvin)      0.10178     0.07951     0.04927
 Rotational constants (GHZ):           2.12081     1.65674     1.02662
 Zero-point vibrational energy     513962.7 (Joules/Mol)
                                  122.84004 (Kcal/Mol)
 Warning -- explicit consideration of  11 degrees of freedom as
           vibrations may cause significant error
 Vibrational temperatures:    141.54   263.08   309.75   352.35   371.17
          (Kelvin)            412.54   473.35   543.05   595.29   685.80
                              740.76   920.12   926.67  1026.14  1109.40
                             1208.77  1226.72  1234.07  1320.24  1372.01
                             1400.00  1422.64  1472.14  1524.66  1563.05
                             1599.73  1628.11  1692.34  1712.39  1785.20
                             1808.44  1840.18  1904.96  1917.31  1943.53
                             1953.75  1983.47  2001.89  2034.65  2055.37
                             2120.60  2137.53  2151.27  2158.53  2163.21
                             2166.32  3055.42  4314.89  4331.41  4343.35
                             4344.42  4349.05  4352.39  4375.25  4404.41
                             4423.68  4445.05  4449.40  4456.35  4611.88

 Zero-point correction=                           0.195758 (Hartree/Particle)
 Thermal correction to Energy=                    0.204478
 Thermal correction to Enthalpy=                  0.205422
 Thermal correction to Gibbs Free Energy=         0.162892
 Sum of electronic and zero-point Energies=           -367.207150
 Sum of electronic and thermal Energies=              -367.198430
 Sum of electronic and thermal Enthalpies=            -367.197486
 Sum of electronic and thermal Free Energies=         -367.240016

                     E (Thermal)             CV                S
                      KCal/Mol        Cal/Mol-Kelvin    Cal/Mol-Kelvin
 Total                  128.312             34.550             89.511
 Electronic               0.000              0.000              0.000
 Translational            0.889              2.981             40.338
 Rotational               0.889              2.981             28.879
 Vibrational            126.534             28.589             20.295
 Vibration     1          0.604              1.950              3.486
 Vibration     2          0.630              1.863              2.299
 Vibration     3          0.645              1.818              1.998
 Vibration     4          0.660              1.771              1.767
 Vibration     5          0.667              1.749              1.675
 Vibration     6          0.684              1.698              1.493
 Vibration     7          0.712              1.618              1.265
 Vibration     8          0.748              1.518              1.049
 Vibration     9          0.777              1.440              0.913
 Vibration    10          0.833              1.302              0.719
 Vibration    11          0.870              1.217              0.622

                           ! Non-Optimized Parameters !
 Normal termination of Gaussian 16 at Tue Jun  1 00:05:22 2021.
