 Gaussian 16, Revision A.03,
 Gaussian 16:  ES64L-G16RevA.03 25-Dec-2016

 -----------------------------
 # opt freq b3lyp/6-31g(2df,p)
 -----------------------------

 -------------------
 Title Card Required
 -------------------
 Symbolic Z-matrix:
 Charge =  0 Multiplicity = 1

 SCF Done:  E(RB3LYP) =  -381.316644197     A.U. after   13 cycles
 SCF Done:  E(RB3LYP) =  -381.327175587     A.U. after   12 cycles
 SCF Done:  E(RB3LYP) =  -381.328294817     A.U. after   10 cycles
 SCF Done:  E(RB3LYP) =  -381.328857491     A.U. after   11 cycles
 SCF Done:  E(RB3LYP) =  -381.329083905     A.U. after   11 cycles
 SCF Done:  E(RB3LYP) =  -381.329240776     A.U. after   10 cycles
 SCF Done:  E(RB3LYP) =  -381.329302524     A.U. after   10 cycles
 SCF Done:  E(RB3LYP) =  -381.329338706     A.U. after   10 cycles
 SCF Done:  E(RB3LYP) =  -381.329352544     A.U. after   10 cycles
 SCF Done:  E(RB3LYP) =  -381.329355203     A.U. after    8 cycles
 SCF Done:  E(RB3LYP) =  -381.329355504     A.U. after    7 cycles
 Optimization completed.
    -- Stationary point found.
 Normal termination of Gaussian 16 at Mon May 31 12:18:31 2021.

 ----------------------------------------------------------------------
 #N Geom=AllCheck Guess=TCheck SCRF=Check GenChk RB3LYP/6-31G(2df,p) Fr
 eq
 ----------------------------------------------------------------------

 Structure from the checkpoint file:  "CC1CCpNpNC1dO.chk"
 -------------------
 Title Card Required
 -------------------
 Charge =  0 Multiplicity = 1

                         Standard orientation:
 ---------------------------------------------------------------------
 Center     Atomic      Atomic             Coordinates (Angstroms)
 Number     Number       Type             X           Y           Z
 ---------------------------------------------------------------------
      1          6           0       -2.194274   -1.122423   -0.010204
      2          6           0       -0.812419   -0.599246    0.374853
      3          6           0        0.387218   -1.272820   -0.316031
      4          6           0        1.459795   -0.164534   -0.460249
      5          7           0        2.472022   -0.250158    0.584144
      6          7           0        0.631200    1.040012   -0.459453
      7          6           0       -0.637480    0.889243    0.033551
      8          8           0       -1.457649    1.769707    0.180687
      9          1           0       -2.342830   -2.147785    0.341449
     10          1           0       -2.326191   -1.113857   -1.097564
     11          1           0       -2.967407   -0.484713    0.425810
     12          1           0       -0.705995   -0.667768    1.466619
     13          1           0        0.089554   -1.617402   -1.311343
     14          1           0        0.792940   -2.127196    0.227844
     15          1           0        1.989857   -0.244104   -1.414695
     16          1           0        2.045656   -0.119271    1.498163
     17          1           0        3.155457    0.493863    0.477105
     18          1           0        0.990556    1.960274   -0.663245
 ---------------------------------------------------------------------

 SCF Done:  E(RB3LYP) =  -381.329355504     A.U. after    1 cycles

 The electronic state is 1-A.
 Alpha  occ. eigenvalues --  -19.09678 -14.34658 -14.32205 -10.26893 -10.25580
 Alpha  occ. eigenvalues --  -10.19552 -10.19073 -10.17574  -1.02612  -0.94654
 Alpha  occ. eigenvalues --   -0.86857  -0.79652  -0.71552  -0.66204  -0.60227
 Alpha  occ. eigenvalues --   -0.56392  -0.51531  -0.50845  -0.46515  -0.44017
 Alpha  occ. eigenvalues --   -0.43230  -0.41154  -0.39320  -0.39134  -0.37615
 Alpha  occ. eigenvalues --   -0.36182  -0.33950  -0.32836  -0.28046  -0.24410
 Alpha  occ. eigenvalues --   -0.23705
 Alpha virt. eigenvalues --    0.03306   0.06838   0.09854   0.10790   0.11442
 Alpha virt. eigenvalues --    0.13556   0.15358   0.16051   0.16346   0.17995
 Alpha virt. eigenvalues --    0.18526   0.20354   0.20487   0.24531   0.25062

 Mulliken charges:
               1
     1  C   -0.401020
     2  C   -0.102184
     3  C   -0.222871
     4  C    0.023827
     5  N   -0.496753
     6  N   -0.309849
     7  C    0.412386
     8  O   -0.389074
     9  H    0.111746
    10  H    0.118192
    11  H    0.141543
    12  H    0.098267
    13  H    0.110991
    14  H    0.117929
    15  H    0.093809
    16  H    0.226027
    17  H    0.225355
    18  H    0.241679
 Sum of Mulliken charges =  -0.00000

 Dipole moment (field-independent basis, Debye):
    X=              2.5315    Y=             -1.0425    Z=             -0.2786  Tot=              2.7519
 Quadrupole moment (field-independent basis, Debye-Ang):
   XX=            -50.8064   YY=            -51.3057   ZZ=            -45.5436
   XY=             10.2892   XZ=             -0.3145   YZ=             -0.8309

  Exact polarizability:  80.868   0.494  67.078  -2.552  -0.490  56.040
 Approx polarizability: 110.463  -6.372  97.321  -6.209  -0.705  87.004

                      1                      2                      3
                      A                      A                      A
 Frequencies --     87.5455                97.7706               212.2074
 Red. masses --      2.5856                 6.8647                 1.0574
 Frc consts  --      0.0117                 0.0387                 0.0281
 IR Inten    --      0.5628                 1.2527                 0.7323

                      4                      5                      6
                      A                      A                      A
 Frequencies --    244.5059               265.5214               339.4612
 Red. masses --      2.8855                 1.1954                 2.2995
 Frc consts  --      0.1016                 0.0497                 0.1561
 IR Inten    --      4.7767                20.1992                20.4663

                      7                      8                      9
                      A                      A                      A
 Frequencies --    397.0758               457.9608               508.6359
 Red. masses --      2.4018                 2.8333                 1.7454
 Frc consts  --      0.2231                 0.3501                 0.2660
 IR Inten    --     17.2185                 7.1242                20.0783

                     10                     11                     12
                      A                      A                      A
 Frequencies --    539.4092               590.2528               702.2361
 Red. masses --      1.6560                 5.3169                 4.6129
 Frc consts  --      0.2839                 1.0914                 1.3403
 IR Inten    --     86.0914                10.2667                 3.1204

                     13                     14                     15
                      A                      A                      A
 Frequencies --    743.0472               781.7870               842.1015
 Red. masses --      3.4708                 3.1397                 2.5106
 Frc consts  --      1.1291                 1.1306                 1.0489
 IR Inten    --     19.5023                 5.8906                82.5639

                     16                     17                     18
                      A                      A                      A
 Frequencies --    870.8737               924.8726               938.1227
 Red. masses --      1.7149                 1.7669                 1.7493
 Frc consts  --      0.7663                 0.8905                 0.9071
 IR Inten    --    106.7300                 9.4573                 2.3304

                     19                     20                     21
                      A                      A                      A
 Frequencies --   1015.2056              1068.5101              1082.1049
 Red. masses --      1.7502                 1.7888                 1.6518
 Frc consts  --      1.0628                 1.2033                 1.1396
 IR Inten    --     27.2766                22.1795                12.8811

                     22                     23                     24
                      A                      A                      A
 Frequencies --   1117.7966              1135.0243              1198.7069
 Red. masses --      1.6672                 2.0622                 1.6207
 Frc consts  --      1.2274                 1.5653                 1.3721
 IR Inten    --     14.9971                 0.5573                 4.1980

                     25                     26                     27
                      A                      A                      A
 Frequencies --   1237.7636              1246.7231              1293.8478
 Red. masses --      1.7042                 2.2567                 1.5751
 Frc consts  --      1.5383                 2.0666                 1.5536
 IR Inten    --      8.0002               121.4727                20.6155

                     28                     29                     30
                      A                      A                      A
 Frequencies --   1311.4788              1337.5987              1370.6736
 Red. masses --      1.3764                 1.4688                 1.7459
 Frc consts  --      1.3948                 1.5484                 1.9326
 IR Inten    --      4.7713                 9.7801                 7.0114

                     31                     32                     33
                      A                      A                      A
 Frequencies --   1407.1613              1428.4716              1445.2109
 Red. masses --      1.2281                 1.3608                 1.7574
 Frc consts  --      1.4328                 1.6361                 2.1627
 IR Inten    --      1.9889                13.7713                55.5056

                     34                     35                     36
                      A                      A                      A
 Frequencies --   1490.8447              1496.3832              1499.4222
 Red. masses --      1.0926                 1.0582                 1.0534
 Frc consts  --      1.4308                 1.3960                 1.3953
 IR Inten    --      9.2431                 4.8580                 4.8596

                     37                     38                     39
                      A                      A                      A
 Frequencies --   1663.3229              1823.9527              3009.3871
 Red. masses --      1.0934                10.6888                 1.0817
 Frc consts  --      1.7823                20.9511                 5.7720
 IR Inten    --     26.1828               374.1374                10.8290

                     40                     41                     42
                      A                      A                      A
 Frequencies --   3037.0165              3050.8673              3064.2865
 Red. masses --      1.0360                 1.0787                 1.0721
 Frc consts  --      5.6300                 5.9156                 5.9311
 IR Inten    --     22.3602                17.0407                44.3858

                     43                     44                     45
                      A                      A                      A
 Frequencies --   3103.7663              3122.7283              3124.9642
 Red. masses --      1.1014                 1.1007                 1.1011
 Frc consts  --      6.2513                 6.3237                 6.3352
 IR Inten    --     24.0632                19.5047                 9.7245

                     46                     47                     48
                      A                      A                      A
 Frequencies --   3483.4689              3564.0394              3626.0750
 Red. masses --      1.0489                 1.0924                 1.0773
 Frc consts  --      7.4993                 8.1756                 8.3460
 IR Inten    --      0.1012                 0.3218                19.9892

 - Thermochemistry -
 -------------------
 Temperature   298.150 Kelvin.  Pressure   1.00000 Atm.
 Atom     1 has atomic number  6 and mass  12.00000

 Molecular mass:   114.07931 amu.
 Principal axes and moments of inertia in atomic units:
                           1         2         3
     Eigenvalues --   556.229781029.329751413.32339
           X            0.99693   0.07828   0.00256
           Y           -0.07828   0.99693   0.00068
           Z           -0.00250  -0.00088   1.00000
 This molecule is an asymmetric top.
 Rotational symmetry number  1.
 Warning -- assumption of classical behavior for rotation
           may cause significant error
 Rotational temperatures (Kelvin)      0.15572     0.08415     0.06128
 Rotational constants (GHZ):           3.24460     1.75332     1.27695
 Zero-point vibrational energy     409124.0 (Joules/Mol)
                                   97.78298 (Kcal/Mol)
 Warning -- explicit consideration of  11 degrees of freedom as
           vibrations may cause significant error
 Vibrational temperatures:    125.96   140.67   305.32   351.79   382.03
          (Kelvin)            488.41   571.30   658.90   731.81   776.09
                              849.24  1010.36  1069.08  1124.82  1211.60
                             1252.99  1330.69  1349.75  1460.65  1537.35
                             1556.91  1608.26  1633.05  1724.67  1780.87
                             1793.76  1861.56  1886.93  1924.51  1972.09
                             2024.59  2055.25  2079.34  2144.99  2152.96
                             2157.33  2393.15  2624.26  4329.84  4369.59
                             4389.52  4408.82  4465.63  4492.91  4496.13
                             5011.93  5127.86  5217.11

 Zero-point correction=                           0.155827 (Hartree/Particle)
 Thermal correction to Energy=                    0.163955
 Thermal correction to Enthalpy=                  0.164899
 Thermal correction to Gibbs Free Energy=         0.123296
 Sum of electronic and zero-point Energies=           -381.173528
 Sum of electronic and thermal Energies=              -381.165401
 Sum of electronic and thermal Enthalpies=            -381.164457
 Sum of electronic and thermal Free Energies=         -381.206059

                     E (Thermal)             CV                S
                      KCal/Mol        Cal/Mol-Kelvin    Cal/Mol-Kelvin
 Total                  102.883             30.530             87.560
 Electronic               0.000              0.000              0.000
 Translational            0.889              2.981             40.111
 Rotational               0.889              2.981             28.183
 Vibrational            101.106             24.569             19.266
 Vibration     1          0.601              1.958              3.714
 Vibration     2          0.603              1.951              3.498
 Vibration     3          0.643              1.822              2.025
 Vibration     4          0.660              1.772              1.770
 Vibration     5          0.671              1.736              1.625
 Vibration     6          0.719              1.597              1.215
 Vibration     7          0.764              1.476              0.973
 Vibration     8          0.816              1.343              0.772
 Vibration     9          0.864              1.231              0.637
 Vibration    10          0.894              1.163              0.567
 Vibration    11          0.948              1.053              0.467

                           ! Non-Optimized Parameters !
 Normal termination of Gaussian 16 at Mon May 31 12:41:04 2021.
