 Gaussian 16, Revision A.03,
 Gaussian 16:  ES64L-G16RevA.03 25-Dec-2016

 -----------------------------
 # opt freq b3lyp/6-31g(2df,p)
 -----------------------------

 -------------------
 Title Card Required
 -------------------
 Symbolic Z-matrix:
 Charge =  0 Multiplicity = 1

 SCF Done:  E(RB3LYP) =  -367.360067386     A.U. after   11 cycles
 SCF Done:  E(RB3LYP) =  -367.332977694     A.U. after   13 cycles
 SCF Done:  E(RB3LYP) =  -367.360155579     A.U. after    9 cycles
 SCF Done:  E(RB3LYP) =  -367.353122256     A.U. after   12 cycles
 SCF Done:  E(RB3LYP) =  -367.360169172     A.U. after    8 cycles
 SCF Done:  E(RB3LYP) =  -367.357620423     A.U. after   11 cycles
 SCF Done:  E(RB3LYP) =  -367.360175015     A.U. after    8 cycles
 SCF Done:  E(RB3LYP) =  -367.359403602     A.U. after   11 cycles
 SCF Done:  E(RB3LYP) =  -367.360176799     A.U. after    8 cycles
 SCF Done:  E(RB3LYP) =  -367.360067386     A.U. after   11 cycles
 SCF Done:  E(RB3LYP) =  -367.362511158     A.U. after    7 cycles
 SCF Done:  E(RB3LYP) =  -367.362508846     A.U. after    8 cycles
 SCF Done:  E(RB3LYP) =  -367.362511422     A.U. after    7 cycles
 SCF Done:  E(RB3LYP) =  -367.362510391     A.U. after    8 cycles
 SCF Done:  E(RB3LYP) =  -367.362511521     A.U. after    7 cycles
 Optimization completed.
    -- Stationary point found.
 Normal termination of Gaussian 16 at Tue Jun  1 23:30:32 2021.

 ----------------------------------------------------------------------
 #N Geom=AllCheck Guess=TCheck SCRF=Check GenChk RB3LYP/6-31G(2df,p) Fr
 eq
 ----------------------------------------------------------------------

 Structure from the checkpoint file:  "CC1CNpCpC1dC1CC1.chk"
 -------------------
 Title Card Required
 -------------------
 Charge =  0 Multiplicity = 1

 SCF Done:  E(RB3LYP) =  -367.362511521     A.U. after    1 cycles
 SCF Done:  E(RB3LYP) =  -367.362511010     A.U. after    7 cycles
 SCF Done:  E(RB3LYP) =  -367.362511431     A.U. after    7 cycles
 SCF Done:  E(RB3LYP) =  -367.362511545     A.U. after    7 cycles
 Optimization completed.
 Normal termination of Gaussian 16 at Tue Jun  1 23:43:10 2021.

 ----------------------------------------------------------------------
 #N Geom=AllCheck Guess=TCheck SCRF=Check GenChk RB3LYP/6-31G(2df,p) Fr
 eq
 ----------------------------------------------------------------------

 Structure from the checkpoint file:  "CC1CNpCpC1dC1CC1.chk"
 -------------------
 Title Card Required
 -------------------
 Charge =  0 Multiplicity = 1

                         Standard orientation:
 ---------------------------------------------------------------------
 Center     Atomic      Atomic             Coordinates (Angstroms)
 Number     Number       Type             X           Y           Z
 ---------------------------------------------------------------------
      1          6           0        1.504894    2.086500    0.511883
      2          6           0        1.152838    0.961950   -0.456878
      3          6           0        2.023359   -0.331249   -0.361626
      4          7           0        0.873269   -0.999738    0.264989
      5          6           0        0.575184   -2.404247    0.141590
      6          6           0       -0.004337    0.051639   -0.049734
      7          6           0       -1.319080    0.157132   -0.047686
      8          6           0       -2.486449    1.017634   -0.258105
      9          6           0       -2.634986   -0.437510    0.209000
     10          1           0        2.444848    2.571278    0.225808
     11          1           0        1.613955    1.702320    1.531059
     12          1           0        0.721007    2.850091    0.521839
     13          1           0        1.059703    1.348981   -1.475074
     14          1           0        2.919005   -0.284475    0.268702
     15          1           0        2.294245   -0.746654   -1.343354
     16          1           0        1.389942   -2.996507    0.570619
     17          1           0        0.429529   -2.721005   -0.905720
     18          1           0       -0.339434   -2.632181    0.695623
     19          1           0       -2.801899    1.254327   -1.272971
     20          1           0       -2.710926    1.804012    0.460624
     21          1           0       -3.048332   -1.154175   -0.498772
     22          1           0       -2.953073   -0.608936    1.236023
 ---------------------------------------------------------------------

 SCF Done:  E(RB3LYP) =  -367.362511545     A.U. after    1 cycles
                           ! Non-Optimized Parameters !
 Normal termination of Gaussian 16 at Wed Jun  2 00:05:53 2021.

 The electronic state is 1-A.
 Alpha  occ. eigenvalues --  -14.32828 -10.20872 -10.20396 -10.20244 -10.19100
 Alpha  occ. eigenvalues --  -10.17997 -10.17935 -10.17368 -10.15910  -0.95125
 Alpha  occ. eigenvalues --   -0.83986  -0.78082  -0.70659  -0.69225  -0.61974
 Alpha  occ. eigenvalues --   -0.59124  -0.58166  -0.50476  -0.49272  -0.46935
 Alpha  occ. eigenvalues --   -0.46164  -0.45652  -0.41183  -0.40980  -0.39821
 Alpha  occ. eigenvalues --   -0.37096  -0.35407  -0.35199  -0.34410  -0.32586
 Alpha  occ. eigenvalues --   -0.29249  -0.28440  -0.27212  -0.18039
 Alpha virt. eigenvalues --    0.04080   0.09691   0.10142   0.12135   0.12390
 Alpha virt. eigenvalues --    0.13746   0.14707   0.15422   0.15862   0.16312
 Alpha virt. eigenvalues --    0.17457   0.17891   0.18746   0.18911   0.19686

 Mulliken charges:
               1
     1  C   -0.395737
     2  C   -0.116439
     3  C   -0.183903
     4  N   -0.109821
     5  C   -0.330975
     6  C    0.139423
     7  C    0.269003
     8  C   -0.347446
     9  C   -0.359444
    10  H    0.111588
    11  H    0.123297
    12  H    0.123233
    13  H    0.084684
    14  H    0.096744
    15  H    0.091478
    16  H    0.121713
    17  H    0.102490
    18  H    0.138728
    19  H    0.109102
    20  H    0.110487
    21  H    0.110166
    22  H    0.111632
 Sum of Mulliken charges =  -0.00000

 Dipole moment (field-independent basis, Debye):
    X=              0.8917    Y=             -0.3597    Z=             -0.4895  Tot=              1.0790
 Quadrupole moment (field-independent basis, Debye-Ang):
   XX=            -54.7917   YY=            -52.9989   ZZ=            -55.5062
   XY=              0.0966   XZ=             -0.7875   YZ=             -0.1302

  Exact polarizability: 121.219  -4.561  95.855  -1.446  -1.262  69.294
 Approx polarizability: 167.875  -9.831 127.957  -0.378  -4.444 105.650

                      1                      2                      3
                      A                      A                      A
 Frequencies --     84.9708               110.5194               137.3283
 Red. masses --      2.4681                 2.9057                 2.1774
 Frc consts  --      0.0105                 0.0209                 0.0242
 IR Inten    --      0.2116                 2.0392                 3.5965

                      4                      5                      6
                      A                      A                      A
 Frequencies --    146.8528               168.4268               224.5453
 Red. masses --      2.2179                 1.1998                 1.7790
 Frc consts  --      0.0282                 0.0201                 0.0528
 IR Inten    --      0.7226                 2.0445                 0.2844

                      7                      8                      9
                      A                      A                      A
 Frequencies --    230.4186               253.6557               308.7657
 Red. masses --      2.0848                 1.5968                 2.9865
 Frc consts  --      0.0652                 0.0605                 0.1678
 IR Inten    --      3.0567                 2.3421                 6.4215

                     10                     11                     12
                      A                      A                      A
 Frequencies --    368.0155               483.9643               539.5386
 Red. masses --      2.4759                 3.2138                 3.9338
 Frc consts  --      0.1976                 0.4435                 0.6747
 IR Inten    --      0.5008                 2.0145                 3.3002

                     13                     14                     15
                      A                      A                      A
 Frequencies --    627.7027               711.5898               778.5050
 Red. masses --      4.9061                 3.0838                 1.0253
 Frc consts  --      1.1389                 0.9200                 0.3661
 IR Inten    --      8.8558                 2.3538                 0.5054

                     16                     17                     18
                      A                      A                      A
 Frequencies --    836.8493               904.2229               916.4052
 Red. masses --      2.4631                 2.4972                 1.1951
 Frc consts  --      1.0163                 1.2030                 0.5913
 IR Inten    --      2.1997                 2.4219                 0.5249

                     19                     20                     21
                      A                      A                      A
 Frequencies --    926.4844               943.3295              1007.8483
 Red. masses --      1.3805                 2.8101                 2.5433
 Frc consts  --      0.6982                 1.4733                 1.5221
 IR Inten    --      2.7710                 7.2776                41.2472

                     22                     23                     24
                      A                      A                      A
 Frequencies --   1026.5402              1046.5109              1083.2073
 Red. masses --      2.3961                 1.3795                 1.4986
 Frc consts  --      1.4877                 0.8901                 1.0360
 IR Inten    --     10.0605                 2.9131                 1.2742

                     25                     26                     27
                      A                      A                      A
 Frequencies --   1085.7468              1088.9255              1120.9208
 Red. masses --      1.5026                 1.4575                 1.2622
 Frc consts  --      1.0437                 1.0182                 0.9344
 IR Inten    --      2.1376                 2.4387                 1.6840

                     28                     29                     30
                      A                      A                      A
 Frequencies --   1127.7580              1154.3652              1159.3394
 Red. masses --      2.6760                 1.9161                 1.2689
 Frc consts  --      2.0053                 1.5044                 1.0049
 IR Inten    --     29.8742                 8.5445                 0.1279

                     31                     32                     33
                      A                      A                      A
 Frequencies --   1174.0480              1189.4777              1223.7604
 Red. masses --      1.7104                 1.8307                 1.6721
 Frc consts  --      1.3890                 1.5261                 1.4754
 IR Inten    --     18.2062                 3.4397                29.3402

                     34                     35                     36
                      A                      A                      A
 Frequencies --   1277.4456              1295.9964              1356.4359
 Red. masses --      1.8411                 2.6092                 1.6540
 Frc consts  --      1.7701                 2.5821                 1.7930
 IR Inten    --     23.8441                20.2955                 3.7253

                     37                     38                     39
                      A                      A                      A
 Frequencies --   1372.1540              1407.9130              1451.1528
 Red. masses --      2.7791                 1.2558                 1.1677
 Frc consts  --      3.0829                 1.4666                 1.4488
 IR Inten    --     83.2791                 5.6111                 0.1945

                     40                     41                     42
                      A                      A                      A
 Frequencies --   1466.8748              1485.5995              1490.3066
 Red. masses --      1.0838                 1.0674                 1.1804
 Frc consts  --      1.3740                 1.3880                 1.5446
 IR Inten    --      0.0167                13.9083                 6.6646

                     43                     44                     45
                      A                      A                      A
 Frequencies --   1494.4012              1497.4578              1504.0639
 Red. masses --      1.0466                 1.0504                 1.0934
 Frc consts  --      1.3771                 1.3878                 1.4573
 IR Inten    --      2.3029                 1.6127                10.1369

                     46                     47                     48
                      A                      A                      A
 Frequencies --   1523.5839              1880.7254              2954.1531
 Red. masses --      1.1296                11.1395                 1.0572
 Frc consts  --      1.5449                23.2148                 5.4357
 IR Inten    --      4.8802               222.7264                80.6110

                     49                     50                     51
                      A                      A                      A
 Frequencies --   2990.0481              3030.5896              3050.3510
 Red. masses --      1.0627                 1.0355                 1.1001
 Frc consts  --      5.5977                 5.6035                 6.0308
 IR Inten    --     96.0700                25.6366                45.6526

                     52                     53                     54
                      A                      A                      A
 Frequencies --   3065.9564              3070.4539              3083.5901
 Red. masses --      1.0761                 1.0867                 1.0513
 Frc consts  --      5.9598                 6.0362                 5.8896
 IR Inten    --     39.3148                12.7400                46.1475

                     55                     56                     57
                      A                      A                      A
 Frequencies --   3083.9523              3099.0846              3110.3796
 Red. masses --      1.0531                 1.1007                 1.1015
 Frc consts  --      5.9013                 6.2287                 6.2789
 IR Inten    --     50.6089                29.0751                29.5947

                     58                     59                     60
                      A                      A                      A
 Frequencies --   3114.3380              3148.0620              3161.5236
 Red. masses --      1.1012                 1.1159                 1.1145
 Frc consts  --      6.2930                 6.5159                 6.5635
 IR Inten    --     13.8102                 0.0245                35.3940

 - Thermochemistry -
 -------------------
 Temperature   298.150 Kelvin.  Pressure   1.00000 Atm.
 Atom     1 has atomic number  6 and mass  12.00000

 Molecular mass:   123.10480 amu.
 Principal axes and moments of inertia in atomic units:
                           1         2         3
     Eigenvalues --   840.014691310.959611994.82995
           X            0.99983   0.01846  -0.00026
           Y           -0.01845   0.99980   0.00825
           Z            0.00041  -0.00824   0.99997
 This molecule is an asymmetric top.
 Rotational symmetry number  1.
 Warning -- assumption of classical behavior for rotation
           may cause significant error
 Rotational temperatures (Kelvin)      0.10311     0.06607     0.04342
 Rotational constants (GHZ):           2.14846     1.37666     0.90471
 Zero-point vibrational energy     506362.1 (Joules/Mol)
                                  121.02345 (Kcal/Mol)
 Warning -- explicit consideration of  12 degrees of freedom as
           vibrations may cause significant error
 Vibrational temperatures:    122.25   159.01   197.58   211.29   242.33
          (Kelvin)            323.07   331.52   364.95   444.24   529.49
                              696.32   776.28   903.12  1023.82  1120.10
                             1204.04  1300.98  1318.50  1333.00  1357.24
                             1450.07  1476.96  1505.70  1558.49  1562.15
                             1566.72  1612.76  1622.59  1660.87  1668.03
                             1689.19  1711.39  1760.72  1837.96  1864.65
                             1951.61  1974.22  2025.67  2087.89  2110.51
                             2137.45  2144.22  2150.11  2154.51  2164.01
                             2192.10  2705.94  4250.37  4302.01  4360.34
                             4388.77  4411.23  4417.70  4436.60  4437.12
                             4458.89  4475.14  4480.84  4529.36  4548.73

 Zero-point correction=                           0.192863 (Hartree/Particle)
 Thermal correction to Energy=                    0.202814
 Thermal correction to Enthalpy=                  0.203759
 Thermal correction to Gibbs Free Energy=         0.157957
 Sum of electronic and zero-point Energies=           -367.169648
 Sum of electronic and thermal Energies=              -367.159697
 Sum of electronic and thermal Enthalpies=            -367.158753
 Sum of electronic and thermal Free Energies=         -367.204555

                     E (Thermal)             CV                S
                      KCal/Mol        Cal/Mol-Kelvin    Cal/Mol-Kelvin
 Total                  127.268             36.337             96.397
 Electronic               0.000              0.000              0.000
 Translational            0.889              2.981             40.338
 Rotational               0.889              2.981             29.176
 Vibrational            125.490             30.375             26.884
 Vibration     1          0.601              1.960              3.773
 Vibration     2          0.606              1.941              3.260
 Vibration     3          0.614              1.916              2.841
 Vibration     4          0.617              1.906              2.713
 Vibration     5          0.625              1.881              2.453
 Vibration     6          0.649              1.804              1.922
 Vibration     7          0.652              1.795              1.876
 Vibration     8          0.665              1.757              1.705
 Vibration     9          0.698              1.657              1.369
 Vibration    10          0.741              1.538              1.088
 Vibration    11          0.840              1.286              0.699
 Vibration    12          0.895              1.163              0.566

 Optimization completed.
    -- Stationary point found.
 Normal termination of Gaussian 16 at Wed Jun  2 00:18:31 2021.
