 Gaussian 16, Revision A.03,
 Gaussian 16:  ES64L-G16RevA.03 25-Dec-2016

 -----------------------------
 # opt freq b3lyp/6-31g(2df,p)
 -----------------------------

 -------------------
 Title Card Required
 -------------------
 Symbolic Z-matrix:
 Charge =  0 Multiplicity = 1

 SCF Done:  E(RB3LYP) =  -304.482617682     A.U. after   16 cycles
 SCF Done:  E(RB3LYP) =  -304.545977032     A.U. after   15 cycles
 SCF Done:  E(RB3LYP) =  -304.576848705     A.U. after   14 cycles
 SCF Done:  E(RB3LYP) =  -304.607460077     A.U. after   15 cycles
 SCF Done:  E(RB3LYP) =  -304.632957297     A.U. after   15 cycles
 SCF Done:  E(RB3LYP) =  -304.661207526     A.U. after   15 cycles
 SCF Done:  E(RB3LYP) =  -304.682571143     A.U. after   15 cycles
 SCF Done:  E(RB3LYP) =  -304.706132006     A.U. after   16 cycles
 SCF Done:  E(RB3LYP) =  -304.717744533     A.U. after   15 cycles
 SCF Done:  E(RB3LYP) =  -304.730438872     A.U. after   15 cycles
 SCF Done:  E(RB3LYP) =  -304.779661399     A.U. after   10 cycles
 SCF Done:  E(RB3LYP) =  -304.779663138     A.U. after    9 cycles
 SCF Done:  E(RB3LYP) =  -304.779666617     A.U. after    9 cycles
 SCF Done:  E(RB3LYP) =  -304.779668830     A.U. after    9 cycles
 SCF Done:  E(RB3LYP) =  -304.779669534     A.U. after    9 cycles
 SCF Done:  E(RB3LYP) =  -304.779669716     A.U. after    8 cycles
 SCF Done:  E(RB3LYP) =  -304.779669857     A.U. after    8 cycles
 SCF Done:  E(RB3LYP) =  -304.779670032     A.U. after    8 cycles
 SCF Done:  E(RB3LYP) =  -304.779670151     A.U. after    8 cycles
 Optimization completed.
    -- Stationary point found.
 Normal termination of Gaussian 16 at Mon May 31 19:46:27 2021.

 ----------------------------------------------------------------------
 #N Geom=AllCheck Guess=TCheck SCRF=Check GenChk RB3LYP/6-31G(2df,p) Fr
 eq
 ----------------------------------------------------------------------

 Structure from the checkpoint file:  "CC1dCdNCC1N.chk"
 -------------------
 Title Card Required
 -------------------
 Charge =  0 Multiplicity = 1

                         Standard orientation:
 ---------------------------------------------------------------------
 Center     Atomic      Atomic             Coordinates (Angstroms)
 Number     Number       Type             X           Y           Z
 ---------------------------------------------------------------------
      1          6           0       -1.582534    1.531064    0.004708
      2          6           0       -0.516704    0.458847   -0.003638
      3          6           0        0.870494    0.850047   -0.021093
      4          7           0        1.875901    0.155821   -0.004846
      5          6           0        2.993151   -0.463040    0.008028
      6          6           0       -0.847415   -0.858616    0.000713
      7          7           0       -2.113449   -1.365218    0.053931
      8          1           0       -1.118549    2.515210   -0.077798
      9          1           0       -2.178274    1.517914    0.927768
     10          1           0       -2.286441    1.424646   -0.833803
     11          1           0        3.488328   -0.674101    0.950827
     12          1           0        3.472757   -0.741875   -0.925228
     13          1           0       -0.062427   -1.610092   -0.002288
     14          1           0       -2.890823   -0.748252   -0.118348
     15          1           0       -2.263678   -2.327487   -0.197038
 ---------------------------------------------------------------------

 SCF Done:  E(RB3LYP) =  -304.779670151     A.U. after    1 cycles

 The electronic state is 1-A.
 Alpha  occ. eigenvalues --  -14.36087 -14.35893 -10.22932 -10.18888 -10.18487
 Alpha  occ. eigenvalues --  -10.17969 -10.17349  -0.93883  -0.92988  -0.78581
 Alpha  occ. eigenvalues --   -0.71990  -0.67893  -0.58833  -0.55727  -0.50795
 Alpha  occ. eigenvalues --   -0.48185  -0.45281  -0.45143  -0.41204  -0.38578
 Alpha  occ. eigenvalues --   -0.36752  -0.35290  -0.35116  -0.31095  -0.20470
 Alpha  occ. eigenvalues --   -0.17158
 Alpha virt. eigenvalues --   -0.01526   0.02571   0.06681   0.10222   0.10599
 Alpha virt. eigenvalues --    0.13925   0.14928   0.16558   0.18172   0.19951
 Alpha virt. eigenvalues --    0.21933   0.23051   0.26416   0.29261   0.33123

 Mulliken charges:
               1
     1  C   -0.493459
     2  C    0.167111
     3  C   -0.144763
     4  N    0.100864
     5  C   -0.343148
     6  C   -0.017679
     7  N   -0.497510
     8  H    0.137608
     9  H    0.117261
    10  H    0.105800
    11  H    0.110993
    12  H    0.110012
    13  H    0.121159
    14  H    0.262769
    15  H    0.262981
 Sum of Mulliken charges =  -0.00000

 Dipole moment (field-independent basis, Debye):
    X=             -3.0210    Y=             -2.7202    Z=             -0.5373  Tot=              4.1005
 Quadrupole moment (field-independent basis, Debye-Ang):
   XX=            -36.0296   YY=            -39.8849   ZZ=            -42.9581
   XY=              0.8324   XZ=              1.6447   YZ=              1.2951

  Exact polarizability: 122.659  -6.867  74.704   0.457   0.113  41.432
 Approx polarizability: 192.542 -22.040 135.324   0.191  -1.213  61.637

                      1                      2                      3
                      A                      A                      A
 Frequencies --     86.4201               111.1774               118.1889
 Red. masses --      1.4637                 1.8673                 2.8494
 Frc consts  --      0.0064                 0.0136                 0.0235
 IR Inten    --      1.6731                 3.0731                 4.8650

                      4                      5                      6
                      A                      A                      A
 Frequencies --    200.7652               253.1263               258.4692
 Red. masses --      2.0628                 3.1124                 3.0393
 Frc consts  --      0.0490                 0.1175                 0.1196
 IR Inten    --      2.1843                 0.6797                 2.3826

                      7                      8                      9
                      A                      A                      A
 Frequencies --    344.3815               363.5462               396.5470
 Red. masses --      1.3453                 1.3770                 3.2095
 Frc consts  --      0.0940                 0.1072                 0.2974
 IR Inten    --    164.2042               135.0964                31.5022

                     10                     11                     12
                      A                      A                      A
 Frequencies --    488.5764               575.9562               625.6962
 Red. masses --      4.5306                 1.7031                 4.9341
 Frc consts  --      0.6372                 0.3329                 1.1381
 IR Inten    --      0.7025                19.5312                70.5225

                     13                     14                     15
                      A                      A                      A
 Frequencies --    659.8761               684.6538               781.1462
 Red. masses --      1.6659                 1.2979                 3.5144
 Frc consts  --      0.4274                 0.3585                 1.2635
 IR Inten    --      5.4516                58.6987                47.7624

                     16                     17                     18
                      A                      A                      A
 Frequencies --    962.5229               988.7988              1057.5155
 Red. masses --      1.3574                 1.5513                 1.4208
 Frc consts  --      0.7409                 0.8936                 0.9362
 IR Inten    --      8.6269                15.7397                 0.0618

                     19                     20                     21
                      A                      A                      A
 Frequencies --   1088.8793              1151.1002              1188.8203
 Red. masses --      1.6666                 1.3338                 2.5990
 Frc consts  --      1.1642                 1.0413                 2.1641
 IR Inten    --     10.4143                 5.1840                11.0417

                     22                     23                     24
                      A                      A                      A
 Frequencies --   1287.4589              1359.7719              1390.4598
 Red. masses --      2.8491                 1.7588                 1.6319
 Frc consts  --      2.7824                 1.9161                 1.8589
 IR Inten    --     86.1805                80.4640                 4.4727

                     25                     26                     27
                      A                      A                      A
 Frequencies --   1410.5351              1492.1281              1493.2454
 Red. masses --      1.5033                 1.0470                 1.0513
 Frc consts  --      1.7622                 1.3735                 1.3811
 IR Inten    --     10.2723                 8.3205                 7.2809

                     28                     29                     30
                      A                      A                      A
 Frequencies --   1528.0863              1631.3501              1676.3198
 Red. masses --      1.6098                 1.6581                 2.1366
 Frc consts  --      2.2147                 2.5999                 3.5375
 IR Inten    --      1.8385                50.5739               370.7530

                     31                     32                     33
                      A                      A                      A
 Frequencies --   1992.1845              2993.8926              3036.3419
 Red. masses --     11.6479                 1.0439                 1.0974
 Frc consts  --     27.2369                 5.5131                 5.9609
 IR Inten    --    154.0159                51.0116                33.5682

                     34                     35                     36
                      A                      A                      A
 Frequencies --   3114.4012              3130.7324              3173.7216
 Red. masses --      1.0468                 1.0940                 1.0905
 Frc consts  --      5.9824                 6.3176                 6.4716
 IR Inten    --     11.7682                 6.5435                 1.4713

                     37                     38                     39
                      A                      A                      A
 Frequencies --   3207.7848              3599.0033              3714.0073
 Red. masses --      1.1203                 1.0458                 1.1015
 Frc consts  --      6.7921                 7.9815                 8.9519
 IR Inten    --     14.7334                54.5820                32.5847

 - Thermochemistry -
 -------------------
 Temperature   298.150 Kelvin.  Pressure   1.00000 Atm.
 Atom     1 has atomic number  6 and mass  12.00000

 Molecular mass:    96.06875 amu.
 Principal axes and moments of inertia in atomic units:
                           1         2         3
     Eigenvalues --   360.026771153.863771489.30734
           X            0.99954  -0.03020   0.00261
           Y            0.03018   0.99952   0.00638
           Z           -0.00281  -0.00630   0.99998
 This molecule is an asymmetric top.
 Rotational symmetry number  1.
 Rotational temperatures (Kelvin)      0.24058     0.07506     0.05816
 Rotational constants (GHZ):           5.01280     1.56409     1.21180
 Zero-point vibrational energy     320704.4 (Joules/Mol)
                                   76.65019 (Kcal/Mol)
 Warning -- explicit consideration of  11 degrees of freedom as
           vibrations may cause significant error
 Vibrational temperatures:    124.34   159.96   170.05   288.86   364.19
          (Kelvin)            371.88   495.49   523.06   570.54   702.95
                              828.67   900.24   949.41   985.06  1123.90
                             1384.86  1422.66  1521.53  1566.65  1656.18
                             1710.45  1852.37  1956.41  2000.56  2029.45
                             2146.84  2148.45  2198.58  2347.15  2411.85
                             2866.31  4307.54  4368.62  4480.93  4504.43
                             4566.28  4615.29  5178.16  5343.63

 Zero-point correction=                           0.122150 (Hartree/Particle)
 Thermal correction to Energy=                    0.130816
 Thermal correction to Enthalpy=                  0.131760
 Thermal correction to Gibbs Free Energy=         0.089245
 Sum of electronic and zero-point Energies=           -304.657520
 Sum of electronic and thermal Energies=              -304.648854
 Sum of electronic and thermal Enthalpies=            -304.647910
 Sum of electronic and thermal Free Energies=         -304.690425

                     E (Thermal)             CV                S
                      KCal/Mol        Cal/Mol-Kelvin    Cal/Mol-Kelvin
 Total                   82.088             30.214             89.481
 Electronic               0.000              0.000              0.000
 Translational            0.889              2.981             39.598
 Rotational               0.889              2.981             27.916
 Vibrational             80.311             24.253             21.966
 Vibration     1          0.601              1.959              3.740
 Vibration     2          0.607              1.940              3.248
 Vibration     3          0.608              1.934              3.130
 Vibration     4          0.638              1.839              2.126
 Vibration     5          0.664              1.758              1.709
 Vibration     6          0.667              1.748              1.672
 Vibration     7          0.723              1.587              1.192
 Vibration     8          0.737              1.547              1.107
 Vibration     9          0.763              1.478              0.975
 Vibration    10          0.844              1.275              0.687
 Vibration    11          0.932              1.083              0.493

                           ! Non-Optimized Parameters !
 Normal termination of Gaussian 16 at Mon May 31 19:58:41 2021.
