 Gaussian 16, Revision A.03,
 Gaussian 16:  ES64L-G16RevA.03 25-Dec-2016

 -----------------------------
 # opt freq b3lyp/6-31g(2df,p)
 -----------------------------

 -------------------
 Title Card Required
 -------------------
 Symbolic Z-matrix:
 Charge =  0 Multiplicity = 1

 SCF Done:  E(RB3LYP) =  -414.180191041     A.U. after   15 cycles
 SCF Done:  E(RB3LYP) =  -414.221707983     A.U. after   13 cycles
 SCF Done:  E(RB3LYP) =  -414.233621493     A.U. after   15 cycles
 SCF Done:  E(RB3LYP) =  -414.242546174     A.U. after   15 cycles
 SCF Done:  E(RB3LYP) =  -414.244150547     A.U. after   13 cycles
 SCF Done:  E(RB3LYP) =  -414.244650881     A.U. after   13 cycles
 SCF Done:  E(RB3LYP) =  -414.244813029     A.U. after   11 cycles
 SCF Done:  E(RB3LYP) =  -414.244870111     A.U. after   10 cycles
 SCF Done:  E(RB3LYP) =  -414.244878852     A.U. after    9 cycles
 SCF Done:  E(RB3LYP) =  -414.244881883     A.U. after    9 cycles
 SCF Done:  E(RB3LYP) =  -414.244883496     A.U. after    8 cycles
 SCF Done:  E(RB3LYP) =  -414.244884476     A.U. after    8 cycles
 SCF Done:  E(RB3LYP) =  -414.244884661     A.U. after    7 cycles
 SCF Done:  E(RB3LYP) =  -414.244884775     A.U. after    7 cycles
 SCF Done:  E(RB3LYP) =  -414.244884806     A.U. after    7 cycles
 Optimization completed.
    -- Stationary point found.
 Normal termination of Gaussian 16 at Tue Jun  1 12:48:22 2021.

 ----------------------------------------------------------------------
 #N Geom=AllCheck Guess=TCheck SCRF=Check GenChk RB3LYP/6-31G(2df,p) Fr
 eq
 ----------------------------------------------------------------------

 Structure from the checkpoint file:  "CC1dNNpNCCtNpC1.chk"
 -------------------
 Title Card Required
 -------------------
 Charge =  0 Multiplicity = 1

                         Standard orientation:
 ---------------------------------------------------------------------
 Center     Atomic      Atomic             Coordinates (Angstroms)
 Number     Number       Type             X           Y           Z
 ---------------------------------------------------------------------
      1          6           0        3.701162   -0.223781    0.354754
      2          6           0        2.251666   -0.062265    0.090356
      3          7           0        1.435840   -0.901581   -0.463326
      4          7           0        0.379318    0.090074   -0.558870
      5          7           0       -0.821744   -0.369713   -0.004417
      6          6           0       -1.936135    0.448253   -0.472798
      7          6           0       -3.196219   -0.033245    0.098004
      8          7           0       -4.189738   -0.390762    0.565608
      9          6           0        1.249933    1.050399    0.224431
     10          1           0        4.014243   -1.237983    0.095505
     11          1           0        3.937450   -0.035575    1.407935
     12          1           0        4.290144    0.486003   -0.238911
     13          1           0       -0.794372   -0.406612    1.016228
     14          1           0       -1.975415    0.370151   -1.563810
     15          1           0       -1.844458    1.520882   -0.229348
     16          1           0        0.879560    1.223013    1.240328
     17          1           0        1.444675    2.007837   -0.269383
 ---------------------------------------------------------------------

 SCF Done:  E(RB3LYP) =  -414.244884806     A.U. after    1 cycles

 The electronic state is 1-A.
 Alpha  occ. eigenvalues --  -14.39363 -14.37061 -14.35551 -14.33417 -10.26417
 Alpha  occ. eigenvalues --  -10.23947 -10.23797 -10.22538 -10.20653  -1.05456
 Alpha  occ. eigenvalues --   -0.94057  -0.90274  -0.79287  -0.74833  -0.73409
 Alpha  occ. eigenvalues --   -0.66313  -0.56253  -0.51745  -0.51420  -0.50591
 Alpha  occ. eigenvalues --   -0.48338  -0.47420  -0.45020  -0.42962  -0.41015
 Alpha  occ. eigenvalues --   -0.40195  -0.36205  -0.34155  -0.33182  -0.32644
 Alpha  occ. eigenvalues --   -0.28848  -0.26577  -0.23976
 Alpha virt. eigenvalues --   -0.01316   0.02142   0.03547   0.06400   0.08389
 Alpha virt. eigenvalues --    0.10204   0.12103   0.12335   0.13497   0.14148
 Alpha virt. eigenvalues --    0.15483   0.16157   0.16639   0.19094   0.21145

 Mulliken charges:
               1
     1  C   -0.498790
     2  C    0.332039
     3  N   -0.182618
     4  N   -0.065772
     5  N   -0.246047
     6  C   -0.235032
     7  C    0.249052
     8  N   -0.294112
     9  C   -0.287816
    10  H    0.156055
    11  H    0.139719
    12  H    0.143583
    13  H    0.224425
    14  H    0.173905
    15  H    0.133921
    16  H    0.124732
    17  H    0.132756
 Sum of Mulliken charges =  -0.00000

 Dipole moment (field-independent basis, Debye):
    X=              4.5181    Y=              3.6597    Z=              0.9060  Tot=              5.8845
 Quadrupole moment (field-independent basis, Debye-Ang):
   XX=            -63.4296   YY=            -53.7769   ZZ=            -51.7618
   XY=             -2.1328   XZ=              6.8505   YZ=             -0.9460

  Exact polarizability: 114.830   3.533  63.360  -0.564   0.010  58.115
 Approx polarizability: 146.855  12.593 102.389  -2.524   1.738  95.280

                      1                      2                      3
                      A                      A                      A
 Frequencies --     48.0565                80.5217                87.0169
 Red. masses --      5.0417                 3.5401                 3.1830
 Frc consts  --      0.0069                 0.0135                 0.0142
 IR Inten    --      2.9919                 2.6593                 4.7407

                      4                      5                      6
                      A                      A                      A
 Frequencies --    162.4658               188.3735               278.0901
 Red. masses --      1.2189                 3.3842                 3.0030
 Frc consts  --      0.0190                 0.0708                 0.1368
 IR Inten    --      1.3090                 9.2033                 5.5213

                      7                      8                      9
                      A                      A                      A
 Frequencies --    309.7962               363.2715               389.4806
 Red. masses --      4.3195                 3.3265                 3.8073
 Frc consts  --      0.2443                 0.2586                 0.3403
 IR Inten    --      0.1204                 2.0925                 2.0754

                     10                     11                     12
                      A                      A                      A
 Frequencies --    457.1282               468.6598               568.8186
 Red. masses --      2.8190                 3.7087                 3.8829
 Frc consts  --      0.3471                 0.4799                 0.7402
 IR Inten    --      1.2829                 2.7259                 6.8880

                     13                     14                     15
                      A                      A                      A
 Frequencies --    694.3947               760.0661               845.3100
 Red. masses --      4.1531                 2.5477                 2.0267
 Frc consts  --      1.1799                 0.8671                 0.8532
 IR Inten    --      5.3552                34.1461                40.7566

                     16                     17                     18
                      A                      A                      A
 Frequencies --    934.8899               942.8212               955.0534
 Red. masses --      2.8617                 1.6208                 2.6074
 Frc consts  --      1.4737                 0.8489                 1.4013
 IR Inten    --      1.4159                 1.0896                 2.1370

                     19                     20                     21
                      A                      A                      A
 Frequencies --    980.7875              1004.0532              1039.0260
 Red. masses --      3.7690                 2.0324                 1.9908
 Frc consts  --      2.1361                 1.2072                 1.2663
 IR Inten    --     20.6331                 9.7373                 8.2765

                     22                     23                     24
                      A                      A                      A
 Frequencies --   1067.7262              1111.1584              1141.3530
 Red. masses --      2.1623                 1.8044                 2.1966
 Frc consts  --      1.4524                 1.3126                 1.6859
 IR Inten    --      1.8798                 2.3559                 5.7306

                     25                     26                     27
                      A                      A                      A
 Frequencies --   1153.1470              1233.7345              1259.2945
 Red. masses --      2.2231                 1.4348                 1.4726
 Frc consts  --      1.7417                 1.2867                 1.3759
 IR Inten    --     25.6759                 7.5709                 1.6768

                     28                     29                     30
                      A                      A                      A
 Frequencies --   1348.4326              1366.8504              1415.8725
 Red. masses --      2.4487                 1.3793                 1.5239
 Frc consts  --      2.6233                 1.5183                 1.7999
 IR Inten    --      9.5951                29.3926                 6.4427

                     31                     32                     33
                      A                      A                      A
 Frequencies --   1463.2905              1472.7314              1478.4157
 Red. masses --      1.1331                 1.0454                 1.1190
 Frc consts  --      1.4295                 1.3360                 1.4411
 IR Inten    --      6.6930                 8.2715                 6.2853

                     34                     35                     36
                      A                      A                      A
 Frequencies --   1489.7131              1501.2752              1670.5017
 Red. masses --      1.0935                 1.1667                 8.3884
 Frc consts  --      1.4298                 1.5493                13.7919
 IR Inten    --      5.3450                 5.0426                18.6439

                     37                     38                     39
                      A                      A                      A
 Frequencies --   2370.6466              2957.5330              3029.0620
 Red. masses --     12.6237                 1.0719                 1.0380
 Frc consts  --     41.7996                 5.5243                 5.6114
 IR Inten    --      2.8610                34.1369                15.4299

                     40                     41                     42
                      A                      A                      A
 Frequencies --   3043.4347              3082.4613              3082.6650
 Red. masses --      1.0564                 1.0861                 1.0981
 Frc consts  --      5.7653                 6.0803                 6.1483
 IR Inten    --     19.3197                 3.5496                 9.0563

                     43                     44                     45
                      A                      A                      A
 Frequencies --   3101.6950              3130.3195              3408.7164
 Red. masses --      1.1089                 1.1000                 1.0742
 Frc consts  --      6.2854                 6.3509                 7.3537
 IR Inten    --     14.8632                 5.2339                11.0791

 - Thermochemistry -
 -------------------
 Temperature   298.150 Kelvin.  Pressure   1.00000 Atm.
 Atom     1 has atomic number  6 and mass  12.00000

 Molecular mass:   124.07490 amu.
 Principal axes and moments of inertia in atomic units:
                           1         2         3
     Eigenvalues --   234.714812793.585262857.01348
           X            0.99993  -0.00229   0.01148
           Y            0.00269   0.99938  -0.03499
           Z           -0.01140   0.03502   0.99932
 This molecule is an asymmetric top.
 Rotational symmetry number  1.
 Rotational temperatures (Kelvin)      0.36902     0.03100     0.03032
 Rotational constants (GHZ):           7.68908     0.64603     0.63169
 Zero-point vibrational energy     352528.2 (Joules/Mol)
                                   84.25626 (Kcal/Mol)
 Warning -- explicit consideration of  12 degrees of freedom as
           vibrations may cause significant error
 Vibrational temperatures:     69.14   115.85   125.20   233.75   271.03
          (Kelvin)            400.11   445.73   522.67   560.38   657.71
                              674.30   818.40   999.08  1093.57  1216.21
                             1345.10  1356.51  1374.11  1411.13  1444.61
                             1494.93  1536.22  1598.71  1642.15  1659.12
                             1775.07  1811.84  1940.09  1966.59  2037.12
                             2105.35  2118.93  2127.11  2143.36  2160.00
                             2403.48  3410.83  4255.23  4358.14  4378.82
                             4434.97  4435.27  4462.65  4503.83  4904.38

 Zero-point correction=                           0.134271 (Hartree/Particle)
 Thermal correction to Energy=                    0.143575
 Thermal correction to Enthalpy=                  0.144519
 Thermal correction to Gibbs Free Energy=         0.099159
 Sum of electronic and zero-point Energies=           -414.110614
 Sum of electronic and thermal Energies=              -414.101310
 Sum of electronic and thermal Enthalpies=            -414.100366
 Sum of electronic and thermal Free Energies=         -414.145726

                     E (Thermal)             CV                S
                      KCal/Mol        Cal/Mol-Kelvin    Cal/Mol-Kelvin
 Total                   90.094             32.557             95.469
 Electronic               0.000              0.000              0.000
 Translational            0.889              2.981             40.361
 Rotational               0.889              2.981             29.017
 Vibrational             88.317             26.596             26.090
 Vibration     1          0.595              1.978              4.896
 Vibration     2          0.600              1.962              3.878
 Vibration     3          0.601              1.958              3.726
 Vibration     4          0.623              1.888              2.521
 Vibration     5          0.633              1.856              2.244
 Vibration     6          0.679              1.714              1.545
 Vibration     7          0.699              1.655              1.363
 Vibration     8          0.737              1.548              1.108
 Vibration     9          0.757              1.493              1.002
 Vibration    10          0.815              1.345              0.775
 Vibration    11          0.826              1.320              0.741
 Vibration    12          0.925              1.099              0.507

 Optimization completed.
    -- Stationary point found.
 Normal termination of Gaussian 16 at Tue Jun  1 13:08:04 2021.
