 Gaussian 16, Revision A.03,
 Gaussian 16:  ES64L-G16RevA.03 25-Dec-2016

 -----------------------------
 # opt freq b3lyp/6-31g(2df,p)
 -----------------------------

 -------------------
 Title Card Required
 -------------------
 Symbolic Z-matrix:
 Charge =  0 Multiplicity = 1

 SCF Done:  E(RB3LYP) =  -417.969441647     A.U. after   12 cycles
 SCF Done:  E(RB3LYP) =  -417.976844748     A.U. after   11 cycles
 SCF Done:  E(RB3LYP) =  -417.977867853     A.U. after   10 cycles
 SCF Done:  E(RB3LYP) =  -417.978076816     A.U. after    9 cycles
 SCF Done:  E(RB3LYP) =  -417.978128202     A.U. after    9 cycles
 SCF Done:  E(RB3LYP) =  -417.978152115     A.U. after    8 cycles
 SCF Done:  E(RB3LYP) =  -417.978158399     A.U. after    7 cycles
 SCF Done:  E(RB3LYP) =  -417.978158893     A.U. after    6 cycles
 Optimization completed.
    -- Stationary point found.
 Normal termination of Gaussian 16 at Tue Jun  1 01:12:47 2021.

 ----------------------------------------------------------------------
 #N Geom=AllCheck Guess=TCheck SCRF=Check GenChk RB3LYP/6-31G(2df,p) Fr
 eq
 ----------------------------------------------------------------------

 Structure from the checkpoint file:  "CC1NCCpNpCpNpN1.chk"
 -------------------
 Title Card Required
 -------------------
 Charge =  0 Multiplicity = 1

                         Standard orientation:
 ---------------------------------------------------------------------
 Center     Atomic      Atomic             Coordinates (Angstroms)
 Number     Number       Type             X           Y           Z
 ---------------------------------------------------------------------
      1          6           0       -2.442659   -0.770862    0.438278
      2          6           0       -1.453243   -0.236656   -0.623727
      3          7           0       -1.109905    1.177067   -0.482972
      4          6           0       -0.274414    1.475431    0.681086
      5          6           0        1.050796    0.719599    0.543720
      6          7           0        1.825431    1.286000   -0.557992
      7          6           0        0.742355   -0.792888    0.418426
      8          7           0        1.970369   -1.546649    0.213737
      9          7           0       -0.192550   -0.985395   -0.701640
     10          1           0       -3.380716   -0.204870    0.406733
     11          1           0       -2.043573   -0.704338    1.454067
     12          1           0       -2.686231   -1.821126    0.240758
     13          1           0       -1.939545   -0.344195   -1.602689
     14          1           0       -1.953848    1.737300   -0.473517
     15          1           0       -0.742762    1.209496    1.645639
     16          1           0       -0.075503    2.550562    0.693364
     17          1           0        1.631260    0.851118    1.463194
     18          1           0        1.305988    1.148089   -1.420369
     19          1           0        2.706531    0.788897   -0.645413
     20          1           0        0.331024   -1.128617    1.386697
     21          1           0        2.239956   -1.455918   -0.762776
     22          1           0        1.810552   -2.536360    0.375599
     23          1           0       -0.393561   -1.974946   -0.805916
 ---------------------------------------------------------------------

 SCF Done:  E(RB3LYP) =  -417.978158893     A.U. after    1 cycles

 The electronic state is 1-A.
 Alpha  occ. eigenvalues --  -14.30888 -14.30862 -14.30798 -14.28851 -10.23418
 Alpha  occ. eigenvalues --  -10.22550 -10.19535 -10.19451 -10.17479  -0.94482
 Alpha  occ. eigenvalues --   -0.88907  -0.86163  -0.82968  -0.73964  -0.70028
 Alpha  occ. eigenvalues --   -0.63523  -0.61027  -0.53918  -0.52239  -0.48996
 Alpha  occ. eigenvalues --   -0.47817  -0.45614  -0.43442  -0.43000  -0.42192
 Alpha  occ. eigenvalues --   -0.41401  -0.39542  -0.38585  -0.36620  -0.35420
 Alpha  occ. eigenvalues --   -0.32938  -0.32797  -0.24921  -0.23333  -0.21826
 Alpha  occ. eigenvalues --   -0.21189
 Alpha virt. eigenvalues --    0.06249   0.08953   0.10314   0.11783   0.13479
 Alpha virt. eigenvalues --    0.14504   0.15068   0.15769   0.16392   0.17051
 Alpha virt. eigenvalues --    0.18445   0.18803   0.20108   0.21212   0.21598

 Mulliken charges:
               1
     1  C   -0.401619
     2  C    0.059921
     3  N   -0.286606
     4  C   -0.177165
     5  C    0.074182
     6  N   -0.519873
     7  C    0.031341
     8  N   -0.521050
     9  N   -0.295323
    10  H    0.107349
    11  H    0.123293
    12  H    0.105761
    13  H    0.076138
    14  H    0.216117
    15  H    0.072287
    16  H    0.108801
    17  H    0.073797
    18  H    0.235072
    19  H    0.222662
    20  H    0.053967
    21  H    0.218674
    22  H    0.222038
    23  H    0.200237
 Sum of Mulliken charges =  -0.00000

 Dipole moment (field-independent basis, Debye):
    X=             -2.0026    Y=             -2.1043    Z=              0.1428  Tot=              2.9084
 Quadrupole moment (field-independent basis, Debye-Ang):
   XX=            -56.0163   YY=            -54.0392   ZZ=            -56.8037
   XY=             -3.8161   XZ=             -1.7319   YZ=              2.4432

  Exact polarizability:  90.825  -0.919  82.551   0.262   0.927  71.506
 Approx polarizability: 119.080  -1.764 116.383   1.434  -0.235 112.412

                      1                      2                      3
                      A                      A                      A
 Frequencies --    126.6247               143.2975               212.8740
 Red. masses --      3.4879                 3.0616                 2.2679
 Frc consts  --      0.0329                 0.0370                 0.0605
 IR Inten    --      0.2241                 1.4963                 2.6062

                      4                      5                      6
                      A                      A                      A
 Frequencies --    229.9693               245.1988               266.9110
 Red. masses --      1.1734                 1.2326                 2.5393
 Frc consts  --      0.0366                 0.0437                 0.1066
 IR Inten    --      1.0768                27.1213                24.9390

                      7                      8                      9
                      A                      A                      A
 Frequencies --    335.8959               353.0600               388.0500
 Red. masses --      1.6962                 1.8797                 2.0966
 Frc consts  --      0.1128                 0.1381                 0.1860
 IR Inten    --     39.1090                 6.1972                 8.1182

                     10                     11                     12
                      A                      A                      A
 Frequencies --    417.8570               459.3456               472.9947
 Red. masses --      1.9195                 3.2238                 2.6906
 Frc consts  --      0.1975                 0.4008                 0.3547
 IR Inten    --     12.4798                 2.2126                 0.8670

                     13                     14                     15
                      A                      A                      A
 Frequencies --    567.8599               621.7822               683.2497
 Red. masses --      2.5440                 2.3321                 1.7759
 Frc consts  --      0.4833                 0.5312                 0.4884
 IR Inten    --     34.1539                11.1328                94.3089

                     16                     17                     18
                      A                      A                      A
 Frequencies --    741.4220               776.1734               821.3538
 Red. masses --      2.0332                 2.8650                 2.1958
 Frc consts  --      0.6585                 1.0169                 0.8728
 IR Inten    --     52.4174                24.7553                25.1899

                     19                     20                     21
                      A                      A                      A
 Frequencies --    870.5721               900.5756               902.5124
 Red. masses --      1.9127                 1.7553                 2.0372
 Frc consts  --      0.8541                 0.8388                 0.9777
 IR Inten    --     73.4595                63.4465               132.8474

                     22                     23                     24
                      A                      A                      A
 Frequencies --    921.5240               965.0133               988.8307
 Red. masses --      1.6167                 1.7361                 2.2389
 Frc consts  --      0.8089                 0.9526                 1.2898
 IR Inten    --     51.1566                11.1626                23.8543

                     25                     26                     27
                      A                      A                      A
 Frequencies --   1023.2273              1066.9723              1090.5923
 Red. masses --      1.9309                 2.2314                 1.7696
 Frc consts  --      1.1911                 1.4967                 1.2401
 IR Inten    --     19.0681                35.5029                23.5621

                     28                     29                     30
                      A                      A                      A
 Frequencies --   1111.5235              1129.3423              1143.0842
 Red. masses --      1.9381                 2.0978                 1.5910
 Frc consts  --      1.4108                 1.5764                 1.2248
 IR Inten    --     23.3908                 3.2092                18.1816

                     31                     32                     33
                      A                      A                      A
 Frequencies --   1202.3951              1206.7479              1243.5374
 Red. masses --      2.2074                 1.5688                 1.7370
 Frc consts  --      1.8803                 1.3460                 1.5826
 IR Inten    --     28.7685                13.7657                 0.7696

                     34                     35                     36
                      A                      A                      A
 Frequencies --   1262.3401              1301.1164              1335.0884
 Red. masses --      1.3852                 1.2816                 1.4032
 Frc consts  --      1.3005                 1.2783                 1.4736
 IR Inten    --     10.2244                11.6757                 1.3780

                     37                     38                     39
                      A                      A                      A
 Frequencies --   1361.5990              1380.6456              1396.2680
 Red. masses --      1.4113                 1.2049                 1.2644
 Frc consts  --      1.5416                 1.3532                 1.4524
 IR Inten    --     45.0930                 8.8178                19.6560

                     40                     41                     42
                      A                      A                      A
 Frequencies --   1403.7137              1415.0801              1426.2222
 Red. masses --      1.3838                 1.2842                 1.3783
 Frc consts  --      1.6065                 1.5151                 1.6518
 IR Inten    --      9.3557                11.4788                 8.4072

                     43                     44                     45
                      A                      A                      A
 Frequencies --   1466.4787              1482.8254              1494.7992
 Red. masses --      1.3393                 1.1184                 1.1040
 Frc consts  --      1.6970                 1.4488                 1.4534
 IR Inten    --      3.1409                10.7268                 5.5797

                     46                     47                     48
                      A                      A                      A
 Frequencies --   1508.1365              1510.1676              1640.7678
 Red. masses --      1.2607                 1.1224                 1.0916
 Frc consts  --      1.6895                 1.5081                 1.7315
 IR Inten    --     16.7170                 1.3384                44.4069

                     49                     50                     51
                      A                      A                      A
 Frequencies --   1657.6197              2932.7947              2941.8079
 Red. masses --      1.0985                 1.0763                 1.0771
 Frc consts  --      1.7784                 5.4543                 5.4922
 IR Inten    --     11.9092                 4.5427               120.2343

                     52                     53                     54
                      A                      A                      A
 Frequencies --   3003.5549              3026.7949              3053.4238
 Red. masses --      1.0856                 1.0374                 1.0856
 Frc consts  --      5.7702                 5.5998                 5.9633
 IR Inten    --     43.7001                26.4077                35.3400

                     55                     56                     57
                      A                      A                      A
 Frequencies --   3084.0303              3086.7442              3115.5667
 Red. masses --      1.0888                 1.1011                 1.0991
 Frc consts  --      6.1017                 6.1812                 6.2861
 IR Inten    --     28.2948                29.5439                32.9596

                     58                     59                     60
                      A                      A                      A
 Frequencies --   3484.6644              3491.7768              3515.0894
 Red. masses --      1.0489                 1.0478                 1.0741
 Frc consts  --      7.5039                 7.5270                 7.8192
 IR Inten    --      0.4789                 1.4916                 0.7366

                     61                     62                     63
                      A                      A                      A
 Frequencies --   3545.4596              3563.2125              3577.9983
 Red. masses --      1.0743                 1.0915                 1.0926
 Frc consts  --      7.9568                 8.1651                 8.2415
 IR Inten    --      0.3074                 0.7760                 2.0102

 - Thermochemistry -
 -------------------
 Temperature   298.150 Kelvin.  Pressure   1.00000 Atm.
 Atom     1 has atomic number  6 and mass  12.00000

 Molecular mass:   130.12185 amu.
 Principal axes and moments of inertia in atomic units:
                           1         2         3
     Eigenvalues --   780.200391205.831241632.02627
           X            0.99985   0.00723  -0.01556
           Y           -0.00707   0.99993   0.00992
           Z            0.01563  -0.00981   0.99983
 This molecule is an asymmetric top.
 Rotational symmetry number  1.
 Warning -- assumption of classical behavior for rotation
           may cause significant error
 Rotational temperatures (Kelvin)      0.11101     0.07183     0.05307
 Rotational constants (GHZ):           2.31318     1.49668     1.10583
 Zero-point vibrational energy     550857.3 (Joules/Mol)
                                  131.65807 (Kcal/Mol)
 Warning -- explicit consideration of  13 degrees of freedom as
           vibrations may cause significant error
 Vibrational temperatures:    182.18   206.17   306.28   330.87   352.79
          (Kelvin)            384.03   483.28   507.97   558.32   601.20
                              660.90   680.53   817.02   894.61   983.04
                             1066.74  1116.74  1181.74  1252.56  1295.73
                             1298.51  1325.87  1388.44  1422.71  1472.20
                             1535.14  1569.12  1599.23  1624.87  1644.64
                             1729.98  1736.24  1789.17  1816.23  1872.02
                             1920.89  1959.04  1986.44  2008.92  2019.63
                             2035.98  2052.02  2109.94  2133.46  2150.68
                             2169.87  2172.79  2360.70  2384.95  4219.64
                             4232.61  4321.45  4354.88  4393.20  4437.23
                             4441.14  4482.61  5013.65  5023.89  5057.43
                             5101.13  5126.67  5147.94

 Zero-point correction=                           0.209810 (Hartree/Particle)
 Thermal correction to Energy=                    0.219156
 Thermal correction to Enthalpy=                  0.220101
 Thermal correction to Gibbs Free Energy=         0.176573
 Sum of electronic and zero-point Energies=           -417.768348
 Sum of electronic and thermal Energies=              -417.759002
 Sum of electronic and thermal Enthalpies=            -417.758058
 Sum of electronic and thermal Free Energies=         -417.801586

                     E (Thermal)             CV                S
                      KCal/Mol        Cal/Mol-Kelvin    Cal/Mol-Kelvin
 Total                  137.523             37.359             91.611
 Electronic               0.000              0.000              0.000
 Translational            0.889              2.981             40.503
 Rotational               0.889              2.981             28.820
 Vibrational            135.745             31.398             22.289
 Vibration     1          0.611              1.927              2.997
 Vibration     2          0.616              1.910              2.759
 Vibration     3          0.644              1.821              2.019
 Vibration     4          0.652              1.795              1.879
 Vibration     5          0.660              1.771              1.765
 Vibration     6          0.672              1.734              1.616
 Vibration     7          0.717              1.604              1.232
 Vibration     8          0.729              1.569              1.153
 Vibration     9          0.756              1.496              1.008
 Vibration    10          0.781              1.431              0.899
 Vibration    11          0.817              1.340              0.768
 Vibration    12          0.830              1.310              0.729
 Vibration    13          0.924              1.101              0.508

 Optimization completed.
    -- Stationary point found.
 Normal termination of Gaussian 16 at Tue Jun  1 02:10:27 2021.
