 Gaussian 16, Revision A.03,
 Gaussian 16:  ES64L-G16RevA.03 25-Dec-2016

 -----------------------------
 # opt freq b3lyp/6-31g(2df,p)
 -----------------------------

 -------------------
 Title Card Required
 -------------------
 Symbolic Z-matrix:
 Charge =  0 Multiplicity = 1

 SCF Done:  E(RB3LYP) =  -417.935560528     A.U. after   12 cycles
 SCF Done:  E(RB3LYP) =  -417.942355903     A.U. after   10 cycles
 SCF Done:  E(RB3LYP) =  -417.943248443     A.U. after   10 cycles
 SCF Done:  E(RB3LYP) =  -417.943353404     A.U. after    9 cycles
 SCF Done:  E(RB3LYP) =  -417.943370350     A.U. after    9 cycles
 SCF Done:  E(RB3LYP) =  -417.943374529     A.U. after    7 cycles
 SCF Done:  E(RB3LYP) =  -417.943375822     A.U. after    7 cycles
 SCF Done:  E(RB3LYP) =  -417.943376407     A.U. after    7 cycles
 SCF Done:  E(RB3LYP) =  -417.943377046     A.U. after    7 cycles
 SCF Done:  E(RB3LYP) =  -417.943377255     A.U. after    6 cycles
 Optimization completed.
    -- Stationary point found.
 Normal termination of Gaussian 16 at Mon May 31 14:44:31 2021.

 ----------------------------------------------------------------------
 #N Geom=AllCheck Guess=TCheck SCRF=Check GenChk RB3LYP/6-31G(2df,p) Fr
 eq
 ----------------------------------------------------------------------

 Structure from the checkpoint file:  "CC1NCNNC1pCpN.chk"
 -------------------
 Title Card Required
 -------------------
 Charge =  0 Multiplicity = 1

                         Standard orientation:
 ---------------------------------------------------------------------
 Center     Atomic      Atomic             Coordinates (Angstroms)
 Number     Number       Type             X           Y           Z
 ---------------------------------------------------------------------
      1          6           0        0.189811    2.155183   -0.408274
      2          6           0        0.105047    0.957504    0.558675
      3          7           0       -1.277125    0.578741    0.905884
      4          6           0       -1.988243   -0.098207   -0.171740
      5          7           0       -1.240680   -1.308461   -0.474043
      6          7           0        0.063309   -1.011637   -0.984428
      7          6           0        0.847019   -0.343487    0.076104
      8          6           0        2.230731   -0.038528   -0.497560
      9          7           0        1.004584   -1.319559    1.154394
     10          1           0       -0.415230    2.985086   -0.025359
     11          1           0       -0.180409    1.918083   -1.410979
     12          1           0        1.216046    2.518835   -0.509268
     13          1           0        0.586421    1.264657    1.496635
     14          1           0       -1.796735    1.397272    1.203251
     15          1           0       -2.117453    0.534900   -1.079794
     16          1           0       -2.985854   -0.377176    0.186011
     17          1           0       -1.713729   -1.892428   -1.152866
     18          1           0       -0.016287   -0.350537   -1.764826
     19          1           0        2.176455    0.560319   -1.411369
     20          1           0        2.728186   -0.983329   -0.722075
     21          1           0        2.837086    0.513223    0.228840
     22          1           0        0.073766   -1.591023    1.459072
     23          1           0        1.450930   -0.866266    1.946845
 ---------------------------------------------------------------------

 SCF Done:  E(RB3LYP) =  -417.943377255     A.U. after    1 cycles

 The electronic state is 1-A.
 Alpha  occ. eigenvalues --  -14.33630 -14.33347 -14.31244 -14.28551 -10.23230
 Alpha  occ. eigenvalues --  -10.23032 -10.20683 -10.17674 -10.16659  -0.98434
 Alpha  occ. eigenvalues --   -0.88885  -0.87270  -0.78952  -0.72689  -0.70692
 Alpha  occ. eigenvalues --   -0.64414  -0.61816  -0.54750  -0.52543  -0.47824
 Alpha  occ. eigenvalues --   -0.47163  -0.46646  -0.45375  -0.42430  -0.41680
 Alpha  occ. eigenvalues --   -0.40019  -0.39394  -0.38437  -0.36847  -0.35530
 Alpha  occ. eigenvalues --   -0.34654  -0.33545  -0.25176  -0.23066  -0.21827
 Alpha  occ. eigenvalues --   -0.21431
 Alpha virt. eigenvalues --    0.06236   0.09614   0.10402   0.11145   0.13593
 Alpha virt. eigenvalues --    0.14011   0.14612   0.14892   0.15970   0.17095
 Alpha virt. eigenvalues --    0.18278   0.19385   0.19931   0.20784   0.21413

 Mulliken charges:
               1
     1  C   -0.414444
     2  C    0.010707
     3  N   -0.288803
     4  C   -0.111920
     5  N   -0.261844
     6  N   -0.289008
     7  C    0.287013
     8  C   -0.430109
     9  N   -0.509474
    10  H    0.104472
    11  H    0.109304
    12  H    0.121087
    13  H    0.064130
    14  H    0.212924
    15  H    0.057746
    16  H    0.102629
    17  H    0.230996
    18  H    0.198376
    19  H    0.105851
    20  H    0.139398
    21  H    0.107204
    22  H    0.241345
    23  H    0.212421
 Sum of Mulliken charges =  -0.00000

 Dipole moment (field-independent basis, Debye):
    X=             -1.5339    Y=              2.7632    Z=             -0.6272  Tot=              3.2220
 Quadrupole moment (field-independent basis, Debye-Ang):
   XX=            -52.8265   YY=            -60.0561   ZZ=            -53.9311
   XY=              2.9306   XZ=              2.4876   YZ=              2.1224

  Exact polarizability:  90.119   2.248  80.494   1.067  -0.325  74.273
 Approx polarizability: 121.978   3.758 115.262   1.523  -0.084 115.364

                      1                      2                      3
                      A                      A                      A
 Frequencies --    146.5003               182.1462               211.7819
 Red. masses --      3.0393                 1.0841                 1.1768
 Frc consts  --      0.0384                 0.0212                 0.0311
 IR Inten    --      2.3022                35.4675                 5.8400

                      4                      5                      6
                      A                      A                      A
 Frequencies --    230.3323               234.2356               276.3334
 Red. masses --      2.4768                 1.3779                 1.7328
 Frc consts  --      0.0774                 0.0445                 0.0780
 IR Inten    --      3.4040                 0.0267                 5.0588

                      7                      8                      9
                      A                      A                      A
 Frequencies --    319.9941               348.6723               377.3275
 Red. masses --      2.4642                 2.4077                 2.6422
 Frc consts  --      0.1487                 0.1725                 0.2216
 IR Inten    --      0.5858                 5.4714                 0.4196

                     10                     11                     12
                      A                      A                      A
 Frequencies --    437.8675               453.0987               490.9567
 Red. masses --      2.2182                 3.0914                 3.1360
 Frc consts  --      0.2506                 0.3739                 0.4454
 IR Inten    --      4.5234                14.8393                 0.8404

                     13                     14                     15
                      A                      A                      A
 Frequencies --    529.3539               580.2218               625.7631
 Red. masses --      2.8422                 2.6836                 2.1609
 Frc consts  --      0.4692                 0.5323                 0.4985
 IR Inten    --      2.5846                 9.9398                49.5980

                     16                     17                     18
                      A                      A                      A
 Frequencies --    705.7150               714.8229               839.4254
 Red. masses --      1.8717                 2.4117                 2.0064
 Frc consts  --      0.5492                 0.7260                 0.8330
 IR Inten    --     85.7363                19.3815                44.1699

                     19                     20                     21
                      A                      A                      A
 Frequencies --    858.9813               907.9660               921.7013
 Red. masses --      2.9953                 2.0124                 1.8287
 Frc consts  --      1.3021                 0.9775                 0.9153
 IR Inten    --      8.3808                98.7159                59.3937

                     22                     23                     24
                      A                      A                      A
 Frequencies --    955.2249               976.7342              1003.9034
 Red. masses --      1.6925                 1.8131                 1.2654
 Frc consts  --      0.9099                 1.0191                 0.7514
 IR Inten    --     38.3895                30.1330                29.3080

                     25                     26                     27
                      A                      A                      A
 Frequencies --   1022.6112              1055.4625              1061.9791
 Red. masses --      2.0317                 1.6287                 1.8588
 Frc consts  --      1.2518                 1.0690                 1.2352
 IR Inten    --     19.1999                 6.3259                 5.7321

                     28                     29                     30
                      A                      A                      A
 Frequencies --   1083.4935              1128.0752              1150.5714
 Red. masses --      2.1629                 2.7242                 2.3345
 Frc consts  --      1.4960                 2.0425                 1.8209
 IR Inten    --      8.5381                23.3219                 9.9329

                     31                     32                     33
                      A                      A                      A
 Frequencies --   1170.3393              1192.6061              1251.7029
 Red. masses --      1.9765                 2.7093                 1.5279
 Frc consts  --      1.5950                 2.2704                 1.4104
 IR Inten    --     18.3325                53.3793                 7.2021

                     34                     35                     36
                      A                      A                      A
 Frequencies --   1257.7274              1303.9370              1346.5338
 Red. masses --      1.7119                 1.4436                 1.4095
 Frc consts  --      1.5955                 1.4462                 1.5057
 IR Inten    --     17.8466                 8.7668                12.5923

                     37                     38                     39
                      A                      A                      A
 Frequencies --   1371.6948              1395.8346              1404.5840
 Red. masses --      1.3796                 1.2728                 1.2703
 Frc consts  --      1.5294                 1.4611                 1.4766
 IR Inten    --      6.8707                12.2710                 9.6843

                     40                     41                     42
                      A                      A                      A
 Frequencies --   1407.7021              1465.8217              1474.3427
 Red. masses --      1.4285                 1.2400                 1.2057
 Frc consts  --      1.6678                 1.5697                 1.5442
 IR Inten    --      9.9165                 2.6499                 4.6487

                     43                     44                     45
                      A                      A                      A
 Frequencies --   1481.6911              1493.9636              1494.9531
 Red. masses --      1.0983                 1.0733                 1.1096
 Frc consts  --      1.4206                 1.4114                 1.4611
 IR Inten    --      5.3993                 0.6030                 2.6539

                     46                     47                     48
                      A                      A                      A
 Frequencies --   1498.4843              1509.1731              1522.6509
 Red. masses --      1.0641                 1.1184                 1.1753
 Frc consts  --      1.4078                 1.5008                 1.6054
 IR Inten    --      4.5938                 2.3650                 8.7748

                     49                     50                     51
                      A                      A                      A
 Frequencies --   1639.4271              2823.6305              3007.2147
 Red. masses --      1.0983                 1.0710                 1.0846
 Frc consts  --      1.7393                 5.0310                 5.7790
 IR Inten    --     40.1202               126.2560                33.8634

                     52                     53                     54
                      A                      A                      A
 Frequencies --   3029.3155              3040.5435              3053.4943
 Red. masses --      1.0372                 1.0379                 1.0866
 Frc consts  --      5.6077                 5.6536                 5.9692
 IR Inten    --     19.7372                18.4644                43.7192

                     55                     56                     57
                      A                      A                      A
 Frequencies --   3089.5124              3104.9733              3111.6703
 Red. masses --      1.0997                 1.0999                 1.0997
 Frc consts  --      6.1844                 6.2475                 6.2733
 IR Inten    --     26.0734                36.5380                23.0300

                     58                     59                     60
                      A                      A                      A
 Frequencies --   3141.5851              3345.9496              3490.1670
 Red. masses --      1.1003                 1.0724                 1.0491
 Frc consts  --      6.3982                 7.0737                 7.5290
 IR Inten    --     12.1100                21.5551                 5.4960

                     61                     62                     63
                      A                      A                      A
 Frequencies --   3528.0853              3550.6400              3570.9271
 Red. masses --      1.0741                 1.0757                 1.0908
 Frc consts  --      7.8774                 7.9899                 8.1955
 IR Inten    --      0.1642                 1.5794                 3.8954

 - Thermochemistry -
 -------------------
 Temperature   298.150 Kelvin.  Pressure   1.00000 Atm.
 Atom     1 has atomic number  6 and mass  12.00000

 Molecular mass:   130.12185 amu.
 Principal axes and moments of inertia in atomic units:
                           1         2         3
     Eigenvalues --   868.759751054.763701379.63592
           X            0.99949   0.03175   0.00396
           Y           -0.03164   0.99916  -0.02586
           Z           -0.00478   0.02572   0.99966
 This molecule is an asymmetric top.
 Rotational symmetry number  1.
 Warning -- assumption of classical behavior for rotation
           may cause significant error
 Rotational temperatures (Kelvin)      0.09970     0.08212     0.06278
 Rotational constants (GHZ):           2.07738     1.71104     1.30813
 Zero-point vibrational energy     546706.2 (Joules/Mol)
                                  130.66591 (Kcal/Mol)
 Warning -- explicit consideration of  14 degrees of freedom as
           vibrations may cause significant error
 Vibrational temperatures:    210.78   262.07   304.71   331.40   337.01
          (Kelvin)            397.58   460.40   501.66   542.89   629.99
                              651.91   706.38   761.62   834.81   900.33
                             1015.37  1028.47  1207.75  1235.88  1306.36
                             1326.12  1374.36  1405.30  1444.39  1471.31
                             1518.58  1527.95  1558.91  1623.05  1655.42
                             1683.86  1715.89  1800.92  1809.59  1876.07
                             1937.36  1973.56  2008.29  2020.88  2025.37
                             2108.99  2121.25  2131.82  2149.48  2150.90
                             2155.98  2171.36  2190.76  2358.77  4062.57
                             4326.71  4358.51  4374.66  4393.30  4445.12
                             4467.36  4477.00  4520.04  4814.08  5021.57
                             5076.13  5108.58  5137.77

 Zero-point correction=                           0.208229 (Hartree/Particle)
 Thermal correction to Energy=                    0.217584
 Thermal correction to Enthalpy=                  0.218529
 Thermal correction to Gibbs Free Energy=         0.175262
 Sum of electronic and zero-point Energies=           -417.735148
 Sum of electronic and thermal Energies=              -417.725793
 Sum of electronic and thermal Enthalpies=            -417.724849
 Sum of electronic and thermal Free Energies=         -417.768115

                     E (Thermal)             CV                S
                      KCal/Mol        Cal/Mol-Kelvin    Cal/Mol-Kelvin
 Total                  136.536             37.691             91.062
 Electronic               0.000              0.000              0.000
 Translational            0.889              2.981             40.503
 Rotational               0.889              2.981             28.627
 Vibrational            134.759             31.729             21.933
 Vibration     1          0.617              1.906              2.717
 Vibration     2          0.630              1.864              2.306
 Vibration     3          0.643              1.823              2.028
 Vibration     4          0.652              1.795              1.876
 Vibration     5          0.654              1.788              1.846
 Vibration     6          0.678              1.717              1.556
 Vibration     7          0.706              1.635              1.310
 Vibration     8          0.726              1.578              1.172
 Vibration     9          0.748              1.518              1.050
 Vibration    10          0.798              1.388              0.833
 Vibration    11          0.812              1.354              0.786
 Vibration    12          0.847              1.270              0.681
 Vibration    13          0.884              1.185              0.589
 Vibration    14          0.937              1.074              0.485

 Optimization completed.
    -- Stationary point found.
 Normal termination of Gaussian 16 at Mon May 31 15:28:01 2021.
