 Gaussian 16, Revision A.03,
 Gaussian 16:  ES64L-G16RevA.03 25-Dec-2016

 -----------------------------
 # opt freq b3lyp/6-31g(2df,p)
 -----------------------------

 -------------------
 Title Card Required
 -------------------
 Symbolic Z-matrix:
 Charge =  0 Multiplicity = 1

 SCF Done:  E(RB3LYP) =  -432.680914373     A.U. after   13 cycles
 SCF Done:  E(RB3LYP) =  -432.692532103     A.U. after   13 cycles
 SCF Done:  E(RB3LYP) =  -432.694665431     A.U. after   12 cycles
 SCF Done:  E(RB3LYP) =  -432.695133624     A.U. after   11 cycles
 SCF Done:  E(RB3LYP) =  -432.695412761     A.U. after   12 cycles
 SCF Done:  E(RB3LYP) =  -432.695565631     A.U. after   12 cycles
 SCF Done:  E(RB3LYP) =  -432.695664352     A.U. after   12 cycles
 SCF Done:  E(RB3LYP) =  -432.695748181     A.U. after   11 cycles
 SCF Done:  E(RB3LYP) =  -432.695808856     A.U. after   11 cycles
 SCF Done:  E(RB3LYP) =  -432.695836060     A.U. after   10 cycles
 SCF Done:  E(RB3LYP) =  -432.666683687     A.U. after   14 cycles
 SCF Done:  E(RB3LYP) =  -432.706090986     A.U. after   14 cycles
 SCF Done:  E(RB3LYP) =  -432.706003925     A.U. after   13 cycles
 SCF Done:  E(RB3LYP) =  -432.706668939     A.U. after   12 cycles
 SCF Done:  E(RB3LYP) =  -432.706775282     A.U. after   12 cycles
 SCF Done:  E(RB3LYP) =  -432.706805262     A.U. after   11 cycles
 SCF Done:  E(RB3LYP) =  -432.706810864     A.U. after    9 cycles
 SCF Done:  E(RB3LYP) =  -432.706812060     A.U. after    7 cycles
 SCF Done:  E(RB3LYP) =  -432.706812193     A.U. after    7 cycles
 Optimization completed.
    -- Stationary point found.
 Normal termination of Gaussian 16 at Mon May 31 21:58:38 2021.

 ----------------------------------------------------------------------
 #N Geom=AllCheck Guess=TCheck SCRF=Check GenChk RB3LYP/6-31G(2df,p) Fr
 eq
 ----------------------------------------------------------------------

 Structure from the checkpoint file:  "CC1NdNC1NCNN.chk"
 -------------------
 Title Card Required
 -------------------
 Charge =  0 Multiplicity = 1

                         Standard orientation:
 ---------------------------------------------------------------------
 Center     Atomic      Atomic             Coordinates (Angstroms)
 Number     Number       Type             X           Y           Z
 ---------------------------------------------------------------------
      1          6           0        2.677632    1.548839    0.101518
      2          6           0        2.049797    0.246633   -0.357461
      3          7           0        2.442505   -0.985440    0.404123
      4          7           0        1.269508   -1.342981    0.693926
      5          6           0        0.605907   -0.129360    0.068175
      6          7           0       -0.388867   -0.328865   -0.934177
      7          6           0       -1.730566   -0.606903   -0.441660
      8          7           0       -2.306808    0.637080    0.052093
      9          7           0       -3.635284    0.519031    0.550625
     10          1           0        3.753293    1.550765   -0.097790
     11          1           0        2.529569    1.699452    1.175311
     12          1           0        2.229818    2.395037   -0.429074
     13          1           0        2.226104    0.079527   -1.426097
     14          1           0        0.188949    0.506181    0.854257
     15          1           0       -0.098860   -1.019414   -1.616479
     16          1           0       -1.754368   -1.329810    0.389901
     17          1           0       -2.304898   -1.050253   -1.275783
     18          1           0       -2.314388    1.320363   -0.698346
     19          1           0       -3.576025    0.184727    1.508121
     20          1           0       -4.163193   -0.183599    0.026421
 ---------------------------------------------------------------------

 SCF Done:  E(RB3LYP) =  -432.706812193     A.U. after    1 cycles

 The electronic state is 1-A.
 Alpha  occ. eigenvalues --  -14.36992 -14.36489 -14.34242 -14.34012 -14.33755
 Alpha  occ. eigenvalues --  -10.24105 -10.23932 -10.22016 -10.18839  -1.05008
 Alpha  occ. eigenvalues --   -0.97073  -0.91428  -0.77941  -0.76828  -0.69753
 Alpha  occ. eigenvalues --   -0.65519  -0.63382  -0.55506  -0.51709  -0.50474
 Alpha  occ. eigenvalues --   -0.49154  -0.47475  -0.46634  -0.44324  -0.42325
 Alpha  occ. eigenvalues --   -0.41423  -0.40088  -0.38716  -0.37799  -0.33740
 Alpha  occ. eigenvalues --   -0.30162  -0.27301  -0.25568  -0.24064  -0.21763
 Alpha virt. eigenvalues --   -0.03650   0.07350   0.08181   0.10208   0.11436
 Alpha virt. eigenvalues --    0.11564   0.12510   0.14503   0.14632   0.15450
 Alpha virt. eigenvalues --    0.16890   0.17601   0.17780   0.18143   0.20153

 Mulliken charges:
               1
     1  C   -0.410226
     2  C    0.022913
     3  N   -0.130464
     4  N   -0.146435
     5  C    0.063311
     6  N   -0.305952
     7  C   -0.101849
     8  N   -0.253389
     9  N   -0.465197
    10  H    0.134693
    11  H    0.129672
    12  H    0.131477
    13  H    0.095107
    14  H    0.122183
    15  H    0.230599
    16  H    0.108413
    17  H    0.079622
    18  H    0.231355
    19  H    0.245266
    20  H    0.218900
 Sum of Mulliken charges =  -0.00000

 Dipole moment (field-independent basis, Debye):
    X=             -1.3862    Y=              0.5499    Z=             -1.9983  Tot=              2.4934
 Quadrupole moment (field-independent basis, Debye-Ang):
   XX=            -56.2123   YY=            -58.2277   ZZ=            -51.8378
   XY=             11.4352   XZ=             -2.1003   YZ=              2.5354

  Exact polarizability:  98.955   4.485  69.510  -2.315  -0.698  65.594
 Approx polarizability: 127.671   4.327 102.825  -4.755  -3.690 102.631

                      1                      2                      3
                      A                      A                      A
 Frequencies --     49.2805                71.2168               114.7349
 Red. masses --      4.4312                 4.3146                 1.9886
 Frc consts  --      0.0063                 0.0129                 0.0154
 IR Inten    --      3.8110                 2.3917                10.1257

                      4                      5                      6
                      A                      A                      A
 Frequencies --    167.0425               191.7891               216.6600
 Red. masses --      3.5195                 1.3590                 2.0579
 Frc consts  --      0.0579                 0.0295                 0.0569
 IR Inten    --      0.1236                 1.8884                 4.4083

                      7                      8                      9
                      A                      A                      A
 Frequencies --    273.7275               279.7392               334.3350
 Red. masses --      3.3150                 3.5036                 2.9691
 Frc consts  --      0.1463                 0.1615                 0.1955
 IR Inten    --      3.3673                 4.2538                 2.6372

                     10                     11                     12
                      A                      A                      A
 Frequencies --    356.6587               422.9203               551.7691
 Red. masses --      1.1662                 3.0490                 3.4299
 Frc consts  --      0.0874                 0.3213                 0.6152
 IR Inten    --     20.0591                13.3824                14.4376

                     13                     14                     15
                      A                      A                      A
 Frequencies --    608.4177               683.4573               773.5333
 Red. masses --      3.2765                 2.1390                 2.6013
 Frc consts  --      0.7146                 0.5887                 0.9170
 IR Inten    --      7.3977                53.6879                18.9204

                     16                     17                     18
                      A                      A                      A
 Frequencies --    811.9189               896.6489               911.5245
 Red. masses --      1.6996                 1.8574                 3.3861
 Frc consts  --      0.6601                 0.8799                 1.6576
 IR Inten    --     82.5349                 1.6637                15.7721

                     19                     20                     21
                      A                      A                      A
 Frequencies --    930.1435               955.5218              1043.0763
 Red. masses --      2.4440                 1.4510                 1.9929
 Frc consts  --      1.2458                 0.7806                 1.2775
 IR Inten    --     12.2515                82.7291                 2.1314

                     22                     23                     24
                      A                      A                      A
 Frequencies --   1068.9323              1080.5352              1116.6655
 Red. masses --      1.6463                 2.2773                 1.8302
 Frc consts  --      1.1083                 1.5666                 1.3446
 IR Inten    --      7.2527                 2.8155                 0.0769

                     25                     26                     27
                      A                      A                      A
 Frequencies --   1139.2148              1155.9479              1175.7007
 Red. masses --      3.1262                 2.4828                 2.2674
 Frc consts  --      2.3905                 1.9547                 1.8466
 IR Inten    --     23.8931                 1.4062                85.7765

                     28                     29                     30
                      A                      A                      A
 Frequencies --   1206.5696              1232.4548              1252.5187
 Red. masses --      2.0067                 1.6880                 1.3436
 Frc consts  --      1.7212                 1.5106                 1.2419
 IR Inten    --     68.0996                 1.3376                 0.4648

                     31                     32                     33
                      A                      A                      A
 Frequencies --   1270.0180              1319.1071              1343.5088
 Red. masses --      1.5531                 1.2939                 1.2594
 Frc consts  --      1.4759                 1.3265                 1.3393
 IR Inten    --     31.8108                 1.6385                 7.6093

                     34                     35                     36
                      A                      A                      A
 Frequencies --   1373.8926              1402.0363              1408.3366
 Red. masses --      1.6998                 1.2635                 1.2769
 Frc consts  --      1.8904                 1.4633                 1.4922
 IR Inten    --      2.5616                24.9503                18.8427

                     37                     38                     39
                      A                      A                      A
 Frequencies --   1487.6653              1489.4815              1495.9608
 Red. masses --      1.0752                 1.1494                 1.0626
 Frc consts  --      1.4020                 1.5024                 1.4011
 IR Inten    --      9.6552                15.0258                10.4533

                     40                     41                     42
                      A                      A                      A
 Frequencies --   1506.1330              1528.4449              1569.5787
 Red. masses --      1.2956                 1.1089                 8.3376
 Frc consts  --      1.7316                 1.5263                12.1020
 IR Inten    --      7.2858                 3.7560                 6.0410

                     43                     44                     45
                      A                      A                      A
 Frequencies --   1684.7391              2930.5248              2981.0888
 Red. masses --      1.0667                 1.0651                 1.0952
 Frc consts  --      1.7838                 5.3892                 5.7344
 IR Inten    --     14.7833                93.0699                43.0212

                     46                     47                     48
                      A                      A                      A
 Frequencies --   3038.6222              3049.8312              3088.5886
 Red. masses --      1.0346                 1.0850                 1.0850
 Frc consts  --      5.6284                 5.9461                 6.0982
 IR Inten    --     16.6963                10.6961                 6.3055

                     49                     50                     51
                      A                      A                      A
 Frequencies --   3111.9023              3115.3596              3386.8077
 Red. masses --      1.1018                 1.1018                 1.0560
 Frc consts  --      6.2865                 6.3006                 7.1369
 IR Inten    --     18.0107                17.3317                19.6495

                     52                     53                     54
                      A                      A                      A
 Frequencies --   3514.7887              3533.4771              3549.7579
 Red. masses --      1.0769                 1.0825                 1.0744
 Frc consts  --      7.8385                 7.9631                 7.9767
 IR Inten    --      1.8165                 0.5918                 2.3801

 - Thermochemistry -
 -------------------
 Temperature   298.150 Kelvin.  Pressure   1.00000 Atm.
 Atom     1 has atomic number  6 and mass  12.00000

 Molecular mass:   129.10145 amu.
 Principal axes and moments of inertia in atomic units:
                           1         2         3
     Eigenvalues --   505.413422360.569112573.10936
           X            0.99942   0.03376  -0.00337
           Y           -0.03356   0.99833   0.04710
           Z            0.00495  -0.04696   0.99888
 This molecule is an asymmetric top.
 Rotational symmetry number  1.
 Warning -- assumption of classical behavior for rotation
           may cause significant error
 Rotational temperatures (Kelvin)      0.17137     0.03669     0.03366
 Rotational constants (GHZ):           3.57082     0.76454     0.70139
 Zero-point vibrational energy     450108.8 (Joules/Mol)
                                  107.57857 (Kcal/Mol)
 Warning -- explicit consideration of  13 degrees of freedom as
           vibrations may cause significant error
 Vibrational temperatures:     70.90   102.47   165.08   240.34   275.94
          (Kelvin)            311.73   393.83   402.48   481.03   513.15
                              608.49   793.87   875.38   983.34  1112.94
                             1168.17  1290.08  1311.48  1338.27  1374.78
                             1500.75  1537.96  1554.65  1606.63  1639.08
                             1663.15  1691.57  1735.98  1773.23  1802.09
                             1827.27  1897.90  1933.01  1976.72  2017.22
                             2026.28  2140.42  2143.03  2152.35  2166.99
                             2199.09  2258.27  2423.96  4216.37  4289.12
                             4371.90  4388.03  4443.79  4477.33  4482.31
                             4872.86  5057.00  5083.89  5107.31

 Zero-point correction=                           0.171437 (Hartree/Particle)
 Thermal correction to Energy=                    0.181371
 Thermal correction to Enthalpy=                  0.182315
 Thermal correction to Gibbs Free Energy=         0.135680
 Sum of electronic and zero-point Energies=           -432.535375
 Sum of electronic and thermal Energies=              -432.525441
 Sum of electronic and thermal Enthalpies=            -432.524497
 Sum of electronic and thermal Free Energies=         -432.571132

                     E (Thermal)             CV                S
                      KCal/Mol        Cal/Mol-Kelvin    Cal/Mol-Kelvin
 Total                  113.812             35.323             98.152
 Electronic               0.000              0.000              0.000
 Translational            0.889              2.981             40.479
 Rotational               0.889              2.981             29.508
 Vibrational            112.034             29.362             28.165
 Vibration     1          0.595              1.978              4.846
 Vibration     2          0.598              1.968              4.119
 Vibration     3          0.608              1.937              3.187
 Vibration     4          0.624              1.883              2.468
 Vibration     5          0.634              1.851              2.210
 Vibration     6          0.645              1.816              1.987
 Vibration     7          0.676              1.722              1.573
 Vibration     8          0.680              1.711              1.535
 Vibration     9          0.716              1.607              1.239
 Vibration    10          0.732              1.562              1.137
 Vibration    11          0.785              1.420              0.882
 Vibration    12          0.907              1.136              0.541
 Vibration    13          0.967              1.014              0.435

 Optimization completed.
    -- Stationary point found.
 Normal termination of Gaussian 16 at Mon May 31 22:26:02 2021.
