 Gaussian 16, Revision A.03,
 Gaussian 16:  ES64L-G16RevA.03 25-Dec-2016

 -----------------------------
 # opt freq b3lyp/6-31g(2df,p)
 -----------------------------

 -------------------
 Title Card Required
 -------------------
 Symbolic Z-matrix:
 Charge =  0 Multiplicity = 1

 SCF Done:  E(RB3LYP) =  -415.453546194     A.U. after   14 cycles
 SCF Done:  E(RB3LYP) =  -415.479336373     A.U. after   12 cycles
 SCF Done:  E(RB3LYP) =  -415.480864476     A.U. after   12 cycles
 SCF Done:  E(RB3LYP) =  -415.481850393     A.U. after   12 cycles
 SCF Done:  E(RB3LYP) =  -415.482299368     A.U. after   12 cycles
 SCF Done:  E(RB3LYP) =  -415.482498741     A.U. after   11 cycles
 SCF Done:  E(RB3LYP) =  -415.482592480     A.U. after   11 cycles
 SCF Done:  E(RB3LYP) =  -415.482615029     A.U. after   10 cycles
 SCF Done:  E(RB3LYP) =  -415.482623290     A.U. after    9 cycles
 SCF Done:  E(RB3LYP) =  -415.482625648     A.U. after    8 cycles
 SCF Done:  E(RB3LYP) =  -415.482625950     A.U. after    8 cycles
 Optimization completed.
    -- Stationary point found.
 Normal termination of Gaussian 16 at Tue Jun  1 13:24:33 2021.

 ----------------------------------------------------------------------
 #N Geom=AllCheck Guess=TCheck SCRF=Check GenChk RB3LYP/6-31G(2df,p) Fr
 eq
 ----------------------------------------------------------------------

 Structure from the checkpoint file:  "CC1NN1CNCCtN.chk"
 -------------------
 Title Card Required
 -------------------
 Charge =  0 Multiplicity = 1

                         Standard orientation:
 ---------------------------------------------------------------------
 Center     Atomic      Atomic             Coordinates (Angstroms)
 Number     Number       Type             X           Y           Z
 ---------------------------------------------------------------------
      1          6           0       -2.967557    1.525493   -0.051412
      2          6           0       -2.182084    0.333121    0.426961
      3          7           0       -2.567626   -1.026050    0.094868
      4          7           0       -1.382299   -0.379598   -0.541057
      5          6           0       -0.168345   -0.995067   -0.007411
      6          7           0        0.942270   -0.079358   -0.212620
      7          6           0        2.217314   -0.661140    0.185855
      8          6           0        3.309967    0.300169    0.015458
      9          7           0        4.170034    1.063246   -0.092261
     10          1           0       -3.863030    1.669186    0.562354
     11          1           0       -3.267830    1.388055   -1.093833
     12          1           0       -2.365482    2.437775    0.012866
     13          1           0       -1.782068    0.414843    1.440551
     14          1           0       -3.285676   -0.994186   -0.630615
     15          1           0        0.026042   -1.906629   -0.584696
     16          1           0       -0.307430   -1.296537    1.050520
     17          1           0        0.783773    0.780960    0.303097
     18          1           0        2.421149   -1.532271   -0.449637
     19          1           0        2.248133   -1.024331    1.230183
 ---------------------------------------------------------------------

 SCF Done:  E(RB3LYP) =  -415.482625950     A.U. after    1 cycles

 The electronic state is 1-A.
 Alpha  occ. eigenvalues --  -14.36404 -14.36013 -14.34363 -14.33290 -10.26556
 Alpha  occ. eigenvalues --  -10.25402 -10.24672 -10.22431 -10.19582  -1.04176
 Alpha  occ. eigenvalues --   -0.94090  -0.90090  -0.79318  -0.75041  -0.72014
 Alpha  occ. eigenvalues --   -0.64996  -0.60102  -0.54794  -0.50873  -0.50198
 Alpha  occ. eigenvalues --   -0.48523  -0.46683  -0.44450  -0.42961  -0.41824
 Alpha  occ. eigenvalues --   -0.40466  -0.36379  -0.35872  -0.35131  -0.33322
 Alpha  occ. eigenvalues --   -0.33007  -0.28915  -0.26037  -0.25051
 Alpha virt. eigenvalues --    0.01856   0.03750   0.07494   0.08607   0.08788
 Alpha virt. eigenvalues --    0.09381   0.10763   0.12637   0.13045   0.15187
 Alpha virt. eigenvalues --    0.15435   0.16322   0.16710   0.17481   0.19408

 Mulliken charges:
               1
     1  C   -0.414279
     2  C    0.048459
     3  N   -0.318918
     4  N   -0.130177
     5  C   -0.053295
     6  N   -0.300339
     7  C   -0.260438
     8  C    0.258228
     9  N   -0.295454
    10  H    0.129472
    11  H    0.133693
    12  H    0.132273
    13  H    0.093016
    14  H    0.245533
    15  H    0.117765
    16  H    0.088163
    17  H    0.231493
    18  H    0.161291
    19  H    0.133515
 Sum of Mulliken charges =  -0.00000

 Dipole moment (field-independent basis, Debye):
    X=             -3.4846    Y=             -1.0762    Z=              1.5015  Tot=              3.9440
 Quadrupole moment (field-independent basis, Debye-Ang):
   XX=            -66.1280   YY=            -54.2883   ZZ=            -54.6861
   XY=            -12.9436   XZ=              3.2839   YZ=              2.6871

  Exact polarizability: 101.084   3.167  75.766  -0.300   1.217  59.603
 Approx polarizability: 127.260  14.819 116.237  -3.260   1.731  94.579

                      1                      2                      3
                      A                      A                      A
 Frequencies --     45.3679                66.3474                78.0519
 Red. masses --      4.5152                 2.4408                 4.3248
 Frc consts  --      0.0055                 0.0063                 0.0155
 IR Inten    --      5.3699                 5.2246                 3.8859

                      4                      5                      6
                      A                      A                      A
 Frequencies --    130.5382               191.7993               206.6186
 Red. masses --      3.1166                 3.7993                 1.1125
 Frc consts  --      0.0313                 0.0823                 0.0280
 IR Inten    --      1.6583                 3.4780                 0.2052

                      7                      8                      9
                      A                      A                      A
 Frequencies --    288.9784               309.5212               381.0439
 Red. masses --      4.4131                 2.4380                 4.7376
 Frc consts  --      0.2171                 0.1376                 0.4053
 IR Inten    --      0.3751                 2.0254                 2.5877

                     10                     11                     12
                      A                      A                      A
 Frequencies --    393.0014               471.6228               500.4233
 Red. masses --      3.7110                 3.7671                 2.9252
 Frc consts  --      0.3377                 0.4937                 0.4316
 IR Inten    --      1.5274                 6.1319                 2.6247

                     13                     14                     15
                      A                      A                      A
 Frequencies --    592.6299               771.9284               784.2121
 Red. masses --      6.2957                 1.4979                 2.5367
 Frc consts  --      1.3027                 0.5259                 0.9192
 IR Inten    --      4.0625                62.8111                15.7379

                     16                     17                     18
                      A                      A                      A
 Frequencies --    809.3130               917.3198               951.5891
 Red. masses --      3.7929                 3.3918                 3.6997
 Frc consts  --      1.4637                 1.6816                 1.9739
 IR Inten    --     19.4302                10.3590                 0.8933

                     19                     20                     21
                      A                      A                      A
 Frequencies --    987.1099              1007.9523              1051.1389
 Red. masses --      1.5670                 1.2919                 2.0484
 Frc consts  --      0.8996                 0.7733                 1.3335
 IR Inten    --     12.6110                12.0705                10.1068

                     22                     23                     24
                      A                      A                      A
 Frequencies --   1069.8888              1091.4588              1151.9523
 Red. masses --      1.7881                 2.6340                 4.1626
 Frc consts  --      1.2059                 1.8487                 3.2545
 IR Inten    --     24.6621                 4.2578                93.9439

                     25                     26                     27
                      A                      A                      A
 Frequencies --   1157.6905              1185.0384              1225.3614
 Red. masses --      1.9632                 1.3960                 1.1808
 Frc consts  --      1.5502                 1.1550                 1.0446
 IR Inten    --      2.6549                 9.2820                12.8225

                     28                     29                     30
                      A                      A                      A
 Frequencies --   1251.3156              1264.8583              1299.5489
 Red. masses --      1.5637                 1.4126                 1.3025
 Frc consts  --      1.4426                 1.3315                 1.2960
 IR Inten    --     35.5360                 5.2626                 1.2160

                     31                     32                     33
                      A                      A                      A
 Frequencies --   1336.5821              1358.2545              1405.3975
 Red. masses --      1.4418                 1.3123                 1.2710
 Frc consts  --      1.5176                 1.4265                 1.4791
 IR Inten    --     53.8840                18.8202                 4.8648

                     34                     35                     36
                      A                      A                      A
 Frequencies --   1421.5886              1444.2223              1483.9517
 Red. masses --      1.3646                 1.7861                 1.0485
 Frc consts  --      1.6248                 2.1949                 1.3604
 IR Inten    --     15.2659                34.7811                 1.8905

                     37                     38                     39
                      A                      A                      A
 Frequencies --   1491.5294              1493.9466              1496.5754
 Red. masses --      1.0703                 1.1220                 1.2028
 Frc consts  --      1.4029                 1.4754                 1.5872
 IR Inten    --     11.5308                28.6597                20.8527

                     40                     41                     42
                      A                      A                      A
 Frequencies --   1525.0136              2370.3365              2893.7651
 Red. masses --      1.0916                12.6238                 1.0720
 Frc consts  --      1.4957                41.7887                 5.2890
 IR Inten    --      2.5269                 3.2575                62.9419

                     43                     44                     45
                      A                      A                      A
 Frequencies --   2931.7868              3036.8041              3046.2521
 Red. masses --      1.0724                 1.0354                 1.0847
 Frc consts  --      5.4311                 5.6258                 5.9303
 IR Inten    --     47.1419                16.2847                 4.5049

                     46                     47                     48
                      A                      A                      A
 Frequencies --   3052.7090              3078.4026              3103.8799
 Red. masses --      1.0876                 1.0865                 1.1009
 Frc consts  --      5.9714                 6.0665                 6.2492
 IR Inten    --     31.6273                19.3668                15.4193

                     49                     50                     51
                      A                      A                      A
 Frequencies --   3123.6871              3445.0198              3517.3940
 Red. masses --      1.1019                 1.0762                 1.0739
 Frc consts  --      6.3350                 7.5257                 7.8282
 IR Inten    --     19.8505                 0.1466                 1.2450

 - Thermochemistry -
 -------------------
 Temperature   298.150 Kelvin.  Pressure   1.00000 Atm.
 Atom     1 has atomic number  6 and mass  12.00000

 Molecular mass:   126.09055 amu.
 Principal axes and moments of inertia in atomic units:
                           1         2         3
     Eigenvalues --   413.493582858.998063166.24032
           X            0.99960  -0.02797   0.00297
           Y            0.02796   0.99961   0.00042
           Z           -0.00298  -0.00033   1.00000
 This molecule is an asymmetric top.
 Rotational symmetry number  1.
 Rotational temperatures (Kelvin)      0.20947     0.03030     0.02736
 Rotational constants (GHZ):           4.36462     0.63125     0.57000
 Zero-point vibrational energy     416843.1 (Joules/Mol)
                                   99.62789 (Kcal/Mol)
 Warning -- explicit consideration of  13 degrees of freedom as
           vibrations may cause significant error
 Vibrational temperatures:     65.27    95.46   112.30   187.82   275.96
          (Kelvin)            297.28   415.78   445.33   548.24   565.44
                              678.56   720.00   852.66  1110.63  1128.31
                             1164.42  1319.82  1369.12  1420.23  1450.22
                             1512.35  1539.33  1570.37  1657.40  1665.66
                             1705.01  1763.02  1800.36  1819.85  1869.76
                             1923.04  1954.23  2022.05  2045.35  2077.91
                             2135.08  2145.98  2149.46  2153.24  2194.15
                             3410.39  4163.48  4218.19  4369.28  4382.88
                             4392.17  4429.13  4465.79  4494.29  4956.62
                             5060.75

 Zero-point correction=                           0.158767 (Hartree/Particle)
 Thermal correction to Energy=                    0.168619
 Thermal correction to Enthalpy=                  0.169564
 Thermal correction to Gibbs Free Energy=         0.122531
 Sum of electronic and zero-point Energies=           -415.323859
 Sum of electronic and thermal Energies=              -415.314007
 Sum of electronic and thermal Enthalpies=            -415.313062
 Sum of electronic and thermal Free Energies=         -415.360095

                     E (Thermal)             CV                S
                      KCal/Mol        Cal/Mol-Kelvin    Cal/Mol-Kelvin
 Total                  105.810             34.326             98.988
 Electronic               0.000              0.000              0.000
 Translational            0.889              2.981             40.409
 Rotational               0.889              2.981             29.705
 Vibrational            104.033             28.365             28.874
 Vibration     1          0.595              1.979              5.010
 Vibration     2          0.598              1.970              4.259
 Vibration     3          0.599              1.964              3.939
 Vibration     4          0.612              1.923              2.938
 Vibration     5          0.634              1.851              2.210
 Vibration     6          0.641              1.830              2.073
 Vibration     7          0.686              1.694              1.480
 Vibration     8          0.699              1.656              1.365
 Vibration     9          0.751              1.511              1.035
 Vibration    10          0.760              1.485              0.989
 Vibration    11          0.829              1.313              0.733
 Vibration    12          0.856              1.249              0.657
 Vibration    13          0.950              1.047              0.463

                           ! Non-Optimized Parameters !
 Normal termination of Gaussian 16 at Tue Jun  1 13:49:32 2021.
