 Gaussian 16, Revision A.03,
 Gaussian 16:  ES64L-G16RevA.03 25-Dec-2016

 -----------------------------
 # opt freq b3lyp/6-31g(2df,p)
 -----------------------------

 -------------------
 Title Card Required
 -------------------
 Symbolic Z-matrix:
 Charge =  0 Multiplicity = 1

 SCF Done:  E(RB3LYP) =  -399.445444062     A.U. after   14 cycles
 SCF Done:  E(RB3LYP) =  -399.474252252     A.U. after   12 cycles
 SCF Done:  E(RB3LYP) =  -399.475962928     A.U. after   11 cycles
 SCF Done:  E(RB3LYP) =  -399.476449056     A.U. after   11 cycles
 SCF Done:  E(RB3LYP) =  -399.476639085     A.U. after   10 cycles
 SCF Done:  E(RB3LYP) =  -399.476711814     A.U. after   10 cycles
 SCF Done:  E(RB3LYP) =  -399.476756987     A.U. after   10 cycles
 SCF Done:  E(RB3LYP) =  -399.476763535     A.U. after    8 cycles
 SCF Done:  E(RB3LYP) =  -399.476765761     A.U. after    8 cycles
 SCF Done:  E(RB3LYP) =  -399.476766381     A.U. after    7 cycles
 SCF Done:  E(RB3LYP) =  -399.476766436     A.U. after    6 cycles
 Optimization completed.
    -- Stationary point found.
 Normal termination of Gaussian 16 at Tue Jun  1 14:06:38 2021.

 ----------------------------------------------------------------------
 #N Geom=AllCheck Guess=TCheck SCRF=Check GenChk RB3LYP/6-31G(2df,p) Fr
 eq
 ----------------------------------------------------------------------

 Structure from the checkpoint file:  "CC1pCNCCtNpCN1.chk"
 -------------------
 Title Card Required
 -------------------
 Charge =  0 Multiplicity = 1

                         Standard orientation:
 ---------------------------------------------------------------------
 Center     Atomic      Atomic             Coordinates (Angstroms)
 Number     Number       Type             X           Y           Z
 ---------------------------------------------------------------------
      1          6           0       -2.986237   -0.874242    0.060245
      2          6           0       -1.711382   -0.065430   -0.042577
      3          6           0       -0.445814   -0.909077   -0.108375
      4          7           0        0.746445   -0.075677   -0.114372
      5          6           0        1.973213   -0.844181    0.005091
      6          6           0        3.149914    0.030806    0.014547
      7          7           0        4.080735    0.713926    0.041082
      8          6           0       -1.751276    1.270190   -0.688528
      9          7           0       -1.571405    1.152207    0.775887
     10          1           0       -3.094902   -1.551246   -0.794572
     11          1           0       -3.864801   -0.221884    0.082225
     12          1           0       -2.993255   -1.485743    0.970119
     13          1           0       -0.462455   -1.514752   -1.025499
     14          1           0       -0.460998   -1.623220    0.739455
     15          1           0        0.665003    0.600768    0.640306
     16          1           0        2.059084   -1.519923   -0.855978
     17          1           0        2.020862   -1.485876    0.905587
     18          1           0       -2.708505    1.623083   -1.063469
     19          1           0       -0.879475    1.638643   -1.218255
     20          1           0       -2.441491    1.358563    1.259477
 ---------------------------------------------------------------------

 SCF Done:  E(RB3LYP) =  -399.476766436     A.U. after    1 cycles

 The electronic state is 1-A.
 Alpha  occ. eigenvalues --  -14.33364 -14.33038 -14.32569 -10.25680 -10.23171
 Alpha  occ. eigenvalues --  -10.22075 -10.21724 -10.21224 -10.19495  -0.96861
 Alpha  occ. eigenvalues --   -0.92491  -0.89245  -0.76799  -0.73648  -0.66839
 Alpha  occ. eigenvalues --   -0.65164  -0.57887  -0.52981  -0.50435  -0.49360
 Alpha  occ. eigenvalues --   -0.46534  -0.46317  -0.44483  -0.41814  -0.40125
 Alpha  occ. eigenvalues --   -0.39621  -0.36751  -0.35189  -0.33440  -0.32840
 Alpha  occ. eigenvalues --   -0.32602  -0.31971  -0.26166  -0.23787
 Alpha virt. eigenvalues --    0.02821   0.04415   0.06903   0.09024   0.10235
 Alpha virt. eigenvalues --    0.10811   0.12333   0.13293   0.14527   0.15212
 Alpha virt. eigenvalues --    0.16476   0.17359   0.17559   0.18630   0.20095

 Mulliken charges:
               1
     1  C   -0.468231
     2  C    0.305603
     3  C   -0.176169
     4  N   -0.308866
     5  C   -0.255417
     6  C    0.257518
     7  N   -0.299853
     8  C   -0.262624
     9  N   -0.354962
    10  H    0.127391
    11  H    0.116925
    12  H    0.124521
    13  H    0.107161
    14  H    0.079881
    15  H    0.249102
    16  H    0.152016
    17  H    0.128485
    18  H    0.109050
    19  H    0.138081
    20  H    0.230389
 Sum of Mulliken charges =   0.00000

 Dipole moment (field-independent basis, Debye):
    X=             -4.9515    Y=             -2.6714    Z=              0.0608  Tot=              5.6265
 Quadrupole moment (field-independent basis, Debye-Ang):
   XX=            -66.4410   YY=            -53.9538   ZZ=            -53.9110
   XY=             -8.5758   XZ=             -0.2300   YZ=             -0.1434

  Exact polarizability: 100.345   4.818  78.516   0.107  -1.789  64.293
 Approx polarizability: 125.944  12.643 120.070   0.410  -0.892 101.653

                      1                      2                      3
                      A                      A                      A
 Frequencies --     51.8168                90.2999               108.4920
 Red. masses --      4.2401                 5.6536                 2.5617
 Frc consts  --      0.0067                 0.0272                 0.0178
 IR Inten    --      1.5094                 2.3626                 8.9570

                      4                      5                      6
                      A                      A                      A
 Frequencies --    165.7304               214.0757               220.4507
 Red. masses --      2.2801                 1.1277                 3.9877
 Frc consts  --      0.0369                 0.0304                 0.1142
 IR Inten    --      0.9258                 0.4869                 6.0782

                      7                      8                      9
                      A                      A                      A
 Frequencies --    294.7798               360.6903               375.9958
 Red. masses --      3.8965                 2.3339                 3.2435
 Frc consts  --      0.1995                 0.1789                 0.2702
 IR Inten    --      1.5755                 9.0441                 2.1966

                     10                     11                     12
                      A                      A                      A
 Frequencies --    394.8375               404.2205               471.8229
 Red. masses --      3.7126                 2.2978                 3.4957
 Frc consts  --      0.3410                 0.2212                 0.4585
 IR Inten    --      1.4072                 1.0314                 2.5211

                     13                     14                     15
                      A                      A                      A
 Frequencies --    593.4211               714.1061               816.3165
 Red. masses --      5.4761                 4.1709                 2.2198
 Frc consts  --      1.1362                 1.2531                 0.8715
 IR Inten    --      0.6003                 2.6488                60.6781

                     16                     17                     18
                      A                      A                      A
 Frequencies --    837.6226               905.6464               934.6295
 Red. masses --      1.6378                 1.8547                 2.0017
 Frc consts  --      0.6770                 0.8963                 1.0302
 IR Inten    --     56.5263                 3.3361                 3.0323

                     19                     20                     21
                      A                      A                      A
 Frequencies --    958.9630               965.4795               989.2476
 Red. masses --      1.1562                 2.7868                 1.7061
 Frc consts  --      0.6265                 1.5305                 0.9837
 IR Inten    --      8.2029                13.3931                 9.9043

                     22                     23                     24
                      A                      A                      A
 Frequencies --    992.4350              1044.5353              1054.8780
 Red. masses --      1.5757                 1.5827                 1.7743
 Frc consts  --      0.9144                 1.0174                 1.1633
 IR Inten    --      6.0994                 2.2430                29.3733

                     25                     26                     27
                      A                      A                      A
 Frequencies --   1118.5214              1135.7382              1161.5416
 Red. masses --      1.7221                 1.4803                 1.6239
 Frc consts  --      1.2694                 1.1250                 1.2908
 IR Inten    --      0.8426                 5.9036                 7.8682

                     28                     29                     30
                      A                      A                      A
 Frequencies --   1166.2940              1232.0589              1263.8640
 Red. masses --      3.7506                 1.1443                 1.3515
 Frc consts  --      3.0059                 1.0234                 1.2719
 IR Inten    --     40.6285                11.0453                12.3772

                     31                     32                     33
                      A                      A                      A
 Frequencies --   1285.8992              1293.6583              1362.2401
 Red. masses --      1.4363                 1.3631                 1.5779
 Frc consts  --      1.3993                 1.3441                 1.7252
 IR Inten    --     15.9599                 9.9768                 4.7617

                     34                     35                     36
                      A                      A                      A
 Frequencies --   1388.2778              1417.9654              1425.6524
 Red. masses --      2.2969                 1.2901                 1.6629
 Frc consts  --      2.6082                 1.5283                 1.9913
 IR Inten    --     11.7057                 0.4912                14.6296

                     37                     38                     39
                      A                      A                      A
 Frequencies --   1484.1322              1489.5601              1492.0381
 Red. masses --      1.0676                 1.0795                 1.1937
 Frc consts  --      1.3855                 1.4112                 1.5657
 IR Inten    --      6.4691                 7.0043                42.5425

                     40                     41                     42
                      A                      A                      A
 Frequencies --   1498.1119              1509.6828              1516.6806
 Red. masses --      1.0789                 1.2402                 1.1363
 Frc consts  --      1.4267                 1.6653                 1.5400
 IR Inten    --     11.7713                19.4538                 3.7113

                     43                     44                     45
                      A                      A                      A
 Frequencies --   2369.1587              2898.7584              2923.8954
 Red. masses --     12.6245                 1.0728                 1.0725
 Frc consts  --     41.7495                 5.3114                 5.4024
 IR Inten    --      3.5743                72.4239                55.3673

                     46                     47                     48
                      A                      A                      A
 Frequencies --   3018.2142              3025.2732              3037.8300
 Red. masses --      1.0823                 1.0383                 1.0839
 Frc consts  --      5.8088                 5.5986                 5.8935
 IR Inten    --     26.2113                30.3864                11.1781

                     49                     50                     51
                      A                      A                      A
 Frequencies --   3087.2389              3101.9589              3115.3451
 Red. masses --      1.1006                 1.1010                 1.0540
 Frc consts  --      6.1803                 6.2416                 6.0270
 IR Inten    --     20.7805                21.2339                23.4058

                     52                     53                     54
                      A                      A                      A
 Frequencies --   3211.1735              3504.1987              3508.7766
 Red. masses --      1.1172                 1.0761                 1.0738
 Frc consts  --      6.7877                 7.7857                 7.7892
 IR Inten    --      7.8561                 0.0819                23.8547

 - Thermochemistry -
 -------------------
 Temperature   298.150 Kelvin.  Pressure   1.00000 Atm.
 Atom     1 has atomic number  6 and mass  12.00000

 Molecular mass:   125.09530 amu.
 Principal axes and moments of inertia in atomic units:
                           1         2         3
     Eigenvalues --   423.072252509.182872761.45416
           X            0.99999  -0.00495   0.00128
           Y            0.00498   0.99975  -0.02163
           Z           -0.00117   0.02163   0.99977
 This molecule is an asymmetric top.
 Rotational symmetry number  1.
 Rotational temperatures (Kelvin)      0.20473     0.03452     0.03137
 Rotational constants (GHZ):           4.26580     0.71925     0.65355
 Zero-point vibrational energy     448624.9 (Joules/Mol)
                                  107.22393 (Kcal/Mol)
 Warning -- explicit consideration of  13 degrees of freedom as
           vibrations may cause significant error
 Vibrational temperatures:     74.55   129.92   156.10   238.45   308.01
          (Kelvin)            317.18   424.12   518.95   540.97   568.08
                              581.58   678.85   853.80  1027.44  1174.50
                             1205.15  1303.02  1344.72  1379.73  1389.11
                             1423.31  1427.89  1502.85  1517.73  1609.30
                             1634.07  1671.20  1678.04  1772.66  1818.42
                             1850.12  1861.29  1959.96  1997.42  2040.14
                             2051.20  2135.34  2143.14  2146.71  2155.45
                             2172.10  2182.17  3408.69  4170.67  4206.83
                             4342.54  4352.69  4370.76  4441.85  4463.03
                             4482.29  4620.16  5041.76  5048.35

 Zero-point correction=                           0.170872 (Hartree/Particle)
 Thermal correction to Energy=                    0.180598
 Thermal correction to Enthalpy=                  0.181542
 Thermal correction to Gibbs Free Energy=         0.135598
 Sum of electronic and zero-point Energies=           -399.305894
 Sum of electronic and thermal Energies=              -399.296169
 Sum of electronic and thermal Enthalpies=            -399.295225
 Sum of electronic and thermal Free Energies=         -399.341169

                     E (Thermal)             CV                S
                      KCal/Mol        Cal/Mol-Kelvin    Cal/Mol-Kelvin
 Total                  113.327             35.157             96.697
 Electronic               0.000              0.000              0.000
 Translational            0.889              2.981             40.385
 Rotational               0.889              2.981             29.462
 Vibrational            111.549             29.196             26.850
 Vibration     1          0.596              1.977              4.747
 Vibration     2          0.602              1.956              3.654
 Vibration     3          0.606              1.942              3.296
 Vibration     4          0.624              1.885              2.483
 Vibration     5          0.644              1.820              2.009
 Vibration     6          0.647              1.810              1.955
 Vibration     7          0.689              1.683              1.446
 Vibration     8          0.735              1.553              1.119
 Vibration     9          0.747              1.521              1.055
 Vibration    10          0.762              1.481              0.982
 Vibration    11          0.769              1.461              0.947
 Vibration    12          0.829              1.313              0.732
 Vibration    13          0.951              1.046              0.461

 Optimization completed.
    -- Stationary point found.
 Normal termination of Gaussian 16 at Tue Jun  1 14:30:25 2021.
