 Gaussian 16, Revision A.03,
 Gaussian 16:  ES64L-G16RevA.03 25-Dec-2016

 -----------------------------
 # opt freq b3lyp/6-31g(2df,p)
 -----------------------------

 -------------------
 Title Card Required
 -------------------
 Symbolic Z-matrix:
 Charge =  0 Multiplicity = 1

 SCF Done:  E(RB3LYP) =  -484.369911225     A.U. after   12 cycles
 SCF Done:  E(RB3LYP) =  -484.378262047     A.U. after   11 cycles
 SCF Done:  E(RB3LYP) =  -484.381987270     A.U. after   10 cycles
 SCF Done:  E(RB3LYP) =  -484.383439554     A.U. after   10 cycles
 SCF Done:  E(RB3LYP) =  -484.384423071     A.U. after   10 cycles
 SCF Done:  E(RB3LYP) =  -484.384784916     A.U. after   10 cycles
 SCF Done:  E(RB3LYP) =  -484.384941191     A.U. after    9 cycles
 SCF Done:  E(RB3LYP) =  -484.385016529     A.U. after   10 cycles
 SCF Done:  E(RB3LYP) =  -484.385054596     A.U. after    9 cycles
 SCF Done:  E(RB3LYP) =  -484.385076804     A.U. after    9 cycles
 SCF Done:  E(RB3LYP) =  -484.385080273     A.U. after    8 cycles
 SCF Done:  E(RB3LYP) =  -484.385082589     A.U. after    8 cycles
 SCF Done:  E(RB3LYP) =  -484.385083140     A.U. after    7 cycles
 SCF Done:  E(RB3LYP) =  -484.385083365     A.U. after    7 cycles
 SCF Done:  E(RB3LYP) =  -484.385083418     A.U. after    6 cycles
 Optimization completed.
    -- Stationary point found.
 Normal termination of Gaussian 16 at Mon May 31 15:52:12 2021.

 ----------------------------------------------------------------------
 #N Geom=AllCheck Guess=TCheck SCRF=Check GenChk RB3LYP/6-31G(2df,p) Fr
 eq
 ----------------------------------------------------------------------

 Structure from the checkpoint file:  "CC1pCpNCCCCCCO1.chk"
 -------------------
 Title Card Required
 -------------------
 Charge =  0 Multiplicity = 1

                         Standard orientation:
 ---------------------------------------------------------------------
 Center     Atomic      Atomic             Coordinates (Angstroms)
 Number     Number       Type             X           Y           Z
 ---------------------------------------------------------------------
      1          6           0        1.684229    0.316372    1.493710
      2          6           0        1.538359   -0.074709    0.011406
      3          6           0        2.902062    0.053722   -0.687015
      4          7           0        1.090852   -1.480957   -0.141719
      5          6           0       -0.293694   -1.768780   -0.509168
      6          6           0       -1.392585   -1.480533    0.554324
      7          6           0       -2.602973   -0.668215    0.062822
      8          6           0       -2.295311    0.730850   -0.508261
      9          6           0       -1.403416    1.621555    0.389739
     10          6           0       -0.011716    1.884912   -0.207160
     11          8           0        0.632238    0.736290   -0.734213
     12          1           0        2.345843   -0.408051    1.979296
     13          1           0        0.730271    0.308076    2.024699
     14          1           0        2.146476    1.300262    1.615578
     15          1           0        3.627281   -0.640442   -0.250788
     16          1           0        3.293537    1.073067   -0.600211
     17          1           0        2.781940   -0.194830   -1.743201
     18          1           0        1.359491   -2.014847    0.675896
     19          1           0       -0.322098   -2.831943   -0.774542
     20          1           0       -0.508745   -1.221443   -1.427276
     21          1           0       -0.933935   -0.963482    1.402573
     22          1           0       -1.763633   -2.427879    0.964825
     23          1           0       -3.302770   -0.561038    0.902633
     24          1           0       -3.141318   -1.242738   -0.702533
     25          1           0       -3.252052    1.231942   -0.692104
     26          1           0       -1.818481    0.628783   -1.488222
     27          1           0       -1.311379    1.183158    1.389284
     28          1           0       -1.869313    2.603167    0.541123
     29          1           0        0.621114    2.411384    0.516970
     30          1           0       -0.125822    2.552184   -1.070634
 ---------------------------------------------------------------------

 SCF Done:  E(RB3LYP) =  -484.385083418     A.U. after    1 cycles

 The electronic state is 1-A.
 Alpha  occ. eigenvalues --  -19.13039 -14.29608 -10.25978 -10.22486 -10.18916
 Alpha  occ. eigenvalues --  -10.17744 -10.17576 -10.17320 -10.17208 -10.16707
 Alpha  occ. eigenvalues --  -10.15843  -1.02634  -0.88070  -0.79990  -0.75576
 Alpha  occ. eigenvalues --   -0.74142  -0.69583  -0.67464  -0.63131  -0.61042
 Alpha  occ. eigenvalues --   -0.55739  -0.53693  -0.49457  -0.47794  -0.47205
 Alpha  occ. eigenvalues --   -0.44505  -0.43347  -0.42612  -0.41626  -0.40878
 Alpha  occ. eigenvalues --   -0.39453  -0.38369  -0.37499  -0.36936  -0.36424
 Alpha  occ. eigenvalues --   -0.36182  -0.33836  -0.33072  -0.32010  -0.31112
 Alpha  occ. eigenvalues --   -0.30572  -0.29161  -0.24764  -0.20206
 Alpha virt. eigenvalues --    0.07390   0.09183   0.09771   0.11583   0.12039
 Alpha virt. eigenvalues --    0.13000   0.13956   0.14562   0.15070   0.15964
 Alpha virt. eigenvalues --    0.16736   0.17367   0.17600   0.18985   0.19182

 Mulliken charges:
               1
     1  C   -0.451366
     2  C    0.379770
     3  C   -0.362677
     4  N   -0.325224
     5  C   -0.147188
     6  C   -0.191594
     7  C   -0.194289
     8  C   -0.177427
     9  C   -0.209247
    10  C   -0.063909
    11  O   -0.293093
    12  H    0.116207
    13  H    0.125121
    14  H    0.121269
    15  H    0.100876
    16  H    0.097547
    17  H    0.122421
    18  H    0.205333
    19  H    0.088382
    20  H    0.120295
    21  H    0.089327
    22  H    0.083916
    23  H    0.088224
    24  H    0.091975
    25  H    0.089408
    26  H    0.111848
    27  H    0.095325
    28  H    0.091988
    29  H    0.093178
    30  H    0.103604
 Sum of Mulliken charges =   0.00000

 Dipole moment (field-independent basis, Debye):
    X=             -0.3267    Y=              0.5940    Z=              1.6508  Tot=              1.7846
 Quadrupole moment (field-independent basis, Debye-Ang):
   XX=            -70.2042   YY=            -68.0388   ZZ=            -70.7442
   XY=              0.2283   XZ=              2.9662   YZ=             -1.2839

  Exact polarizability: 119.312   0.359 109.252   1.925  -0.277  91.713
 Approx polarizability: 151.004  -0.868 153.619   3.770  -0.644 143.694

                      1                      2                      3
                      A                      A                      A
 Frequencies --     52.5419                92.7977               151.5540
 Red. masses --      3.0027                 3.3027                 2.7215
 Frc consts  --      0.0049                 0.0168                 0.0368
 IR Inten    --      0.5646                 1.4157                 1.0180

                      4                      5                      6
                      A                      A                      A
 Frequencies --    182.3557               221.2588               246.8980
 Red. masses --      2.4914                 1.9770                 1.1026
 Frc consts  --      0.0488                 0.0570                 0.0396
 IR Inten    --      2.4895                 1.5314                 0.1512

                      7                      8                      9
                      A                      A                      A
 Frequencies --    263.2521               298.5658               310.3683
 Red. masses --      1.9016                 1.9438                 1.3429
 Frc consts  --      0.0776                 0.1021                 0.0762
 IR Inten    --      0.1514                 3.5654                 0.7043

                     10                     11                     12
                      A                      A                      A
 Frequencies --    323.4088               345.7147               358.7440
 Red. masses --      2.1936                 2.4868                 1.9690
 Frc consts  --      0.1352                 0.1751                 0.1493
 IR Inten    --      1.1391                 4.1472                 1.6299

                     13                     14                     15
                      A                      A                      A
 Frequencies --    394.9946               425.4931               450.7189
 Red. masses --      2.1028                 2.4135                 2.0961
 Frc consts  --      0.1933                 0.2574                 0.2509
 IR Inten    --      4.0024                 3.9718                 3.2320

                     16                     17                     18
                      A                      A                      A
 Frequencies --    474.8817               517.2112               569.5099
 Red. masses --      2.4969                 2.9550                 3.7063
 Frc consts  --      0.3318                 0.4657                 0.7083
 IR Inten    --      6.9915                 7.5538                 4.9857

                     19                     20                     21
                      A                      A                      A
 Frequencies --    660.3465               690.1958               715.1082
 Red. masses --      2.0699                 1.8747                 1.3680
 Frc consts  --      0.5318                 0.5262                 0.4122
 IR Inten    --     37.4669                15.8779                19.1499

                     22                     23                     24
                      A                      A                      A
 Frequencies --    773.6502               815.0694               862.6327
 Red. masses --      2.3356                 2.1039                 1.7737
 Frc consts  --      0.8236                 0.8235                 0.7776
 IR Inten    --      2.3230                 4.1836                 8.2180

                     25                     26                     27
                      A                      A                      A
 Frequencies --    883.3258               903.6322               918.4328
 Red. masses --      2.2477                 1.5306                 2.2683
 Frc consts  --      1.0333                 0.7364                 1.1273
 IR Inten    --      5.1072                 1.7167                 0.5567

                     28                     29                     30
                      A                      A                      A
 Frequencies --    956.2215               972.7323              1003.9759
 Red. masses --      2.0857                 1.9346                 1.4448
 Frc consts  --      1.1236                 1.0785                 0.8580
 IR Inten    --      3.4060                 4.7335                 7.0709

                     31                     32                     33
                      A                      A                      A
 Frequencies --   1014.9259              1030.7744              1068.7938
 Red. masses --      1.6817                 2.1348                 2.1386
 Frc consts  --      1.0206                 1.3364                 1.4393
 IR Inten    --      1.3336                 4.9842                21.8376

                     34                     35                     36
                      A                      A                      A
 Frequencies --   1101.0156              1106.2359              1118.0382
 Red. masses --      2.2929                 1.9749                 3.7349
 Frc consts  --      1.6376                 1.4239                 2.7507
 IR Inten    --      3.6117                19.4069                73.7649

                     37                     38                     39
                      A                      A                      A
 Frequencies --   1148.4551              1183.1062              1200.3184
 Red. masses --      3.3235                 1.5712                 1.8616
 Frc consts  --      2.5827                 1.2958                 1.5803
 IR Inten    --     36.7436                28.0218                43.8163

                     40                     41                     42
                      A                      A                      A
 Frequencies --   1216.7859              1221.1865              1225.4384
 Red. masses --      2.8526                 1.6953                 1.4840
 Frc consts  --      2.4884                 1.4896                 1.3130
 IR Inten    --    123.5760                28.2324                12.9498

                     43                     44                     45
                      A                      A                      A
 Frequencies --   1263.6811              1295.7869              1314.6889
 Red. masses --      1.2986                 1.2813                 1.2284
 Frc consts  --      1.2218                 1.2676                 1.2510
 IR Inten    --     17.2444                 1.8899                15.9109

                     46                     47                     48
                      A                      A                      A
 Frequencies --   1329.3555              1346.1643              1365.6627
 Red. masses --      1.1438                 1.2892                 1.2916
 Frc consts  --      1.1910                 1.3765                 1.4193
 IR Inten    --      5.0728                 1.2340                 7.0070

                     49                     50                     51
                      A                      A                      A
 Frequencies --   1384.7656              1391.8327              1394.4014
 Red. masses --      1.3479                 1.2964                 1.3314
 Frc consts  --      1.5229                 1.4796                 1.5252
 IR Inten    --      5.2137                 8.9411                 4.3753

                     52                     53                     54
                      A                      A                      A
 Frequencies --   1398.2804              1410.7436              1418.0427
 Red. masses --      1.2950                 1.2505                 1.2255
 Frc consts  --      1.4918                 1.4663                 1.4519
 IR Inten    --      1.9954                14.5062                16.1078

                     55                     56                     57
                      A                      A                      A
 Frequencies --   1471.4085              1473.0575              1476.7081
 Red. masses --      1.0769                 1.0490                 1.0688
 Frc consts  --      1.3737                 1.3411                 1.3732
 IR Inten    --      1.8617                 0.1234                 6.6180

                     58                     59                     60
                      A                      A                      A
 Frequencies --   1480.0364              1483.6466              1488.3651
 Red. masses --      1.0804                 1.0827                 1.0892
 Frc consts  --      1.3944                 1.4041                 1.4216
 IR Inten    --      1.1353                 2.8680                 1.2533

                     61                     62                     63
                      A                      A                      A
 Frequencies --   1493.4217              1496.4682              1501.1107
 Red. masses --      1.1031                 1.0595                 1.1048
 Frc consts  --      1.4495                 1.3980                 1.4667
 IR Inten    --      2.7555                 3.9161                13.8024

                     64                     65                     66
                      A                      A                      A
 Frequencies --   1507.6050              1522.2640              3006.3986
 Red. masses --      1.0872                 1.1257                 1.0617
 Frc consts  --      1.4559                 1.5370                 5.6540
 IR Inten    --      9.3109                 3.4998                26.3897

                     67                     68                     69
                      A                      A                      A
 Frequencies --   3017.9981              3024.5325              3029.0410
 Red. masses --      1.0597                 1.0712                 1.0636
 Frc consts  --      5.6868                 5.7736                 5.7494
 IR Inten    --     27.5377                26.8254                27.6941

                     70                     71                     72
                      A                      A                      A
 Frequencies --   3032.4835              3034.8796              3041.7631
 Red. masses --      1.0363                 1.0807                 1.0751
 Frc consts  --      5.6146                 5.8645                 5.8605
 IR Inten    --     21.5794                41.7832                30.0509

                     73                     74                     75
                      A                      A                      A
 Frequencies --   3043.8768              3044.4210              3055.1123
 Red. masses --      1.0537                 1.0665                 1.0928
 Frc consts  --      5.7523                 5.8239                 6.0095
 IR Inten    --     28.7756                17.6404                25.2611

                     76                     77                     78
                      A                      A                      A
 Frequencies --   3071.7041              3078.1667              3082.4896
 Red. masses --      1.1001                 1.0997                 1.0946
 Frc consts  --      6.1157                 6.1391                 6.1278
 IR Inten    --     54.1406                47.6452                74.3347

                     79                     80                     81
                      A                      A                      A
 Frequencies --   3099.3512              3108.8158              3121.6110
 Red. masses --      1.1010                 1.1004                 1.0907
 Frc consts  --      6.2313                 6.2663                 6.2620
 IR Inten    --      1.4666                50.6175                17.1714

                     82                     83                     84
                      A                      A                      A
 Frequencies --   3132.6345              3134.8151              3543.3957
 Red. masses --      1.1003                 1.1006                 1.0740
 Frc consts  --      6.3616                 6.3724                 7.9449
 IR Inten    --     21.2942                23.2736                 0.1587

 - Thermochemistry -
 -------------------
 Temperature   298.150 Kelvin.  Pressure   1.00000 Atm.
 Atom     1 has atomic number  6 and mass  12.00000

 Molecular mass:   157.14666 amu.
 Principal axes and moments of inertia in atomic units:
                           1         2         3
     Eigenvalues --  1144.693551964.358592527.13962
           X            0.99994   0.00889   0.00646
           Y           -0.00893   0.99995   0.00519
           Z           -0.00641  -0.00525   0.99997
 This molecule is an asymmetric top.
 Rotational symmetry number  1.
 Warning -- assumption of classical behavior for rotation
           may cause significant error
 Rotational temperatures (Kelvin)      0.07567     0.04409     0.03427
 Rotational constants (GHZ):           1.57662     0.91874     0.71414
 Zero-point vibrational energy     723032.9 (Joules/Mol)
                                  172.80900 (Kcal/Mol)
 Warning -- explicit consideration of  18 degrees of freedom as
           vibrations may cause significant error
 Vibrational temperatures:     75.60   133.52   218.05   262.37   318.34
          (Kelvin)            355.23   378.76   429.57   446.55   465.31
                              497.41   516.15   568.31   612.19   648.48
                              683.25   744.15   819.40   950.09   993.04
                             1028.88  1113.11  1172.70  1241.14  1270.91
                             1300.13  1321.42  1375.79  1399.54  1444.50
                             1460.25  1483.05  1537.76  1584.12  1591.63
                             1608.61  1652.37  1702.23  1726.99  1750.68
                             1757.02  1763.13  1818.16  1864.35  1891.54
                             1912.65  1936.83  1964.88  1992.37  2002.54
                             2006.23  2011.81  2029.75  2040.25  2117.03
                             2119.40  2124.65  2129.44  2134.64  2141.43
                             2148.70  2153.08  2159.76  2169.11  2190.20
                             4325.54  4342.23  4351.63  4358.11  4363.07
                             4366.51  4376.42  4379.46  4380.24  4395.63
                             4419.50  4428.80  4435.02  4459.28  4472.89
                             4491.30  4507.16  4510.30  5098.16

 Zero-point correction=                           0.275389 (Hartree/Particle)
 Thermal correction to Energy=                    0.287241
 Thermal correction to Enthalpy=                  0.288185
 Thermal correction to Gibbs Free Energy=         0.238756
 Sum of electronic and zero-point Energies=           -484.109695
 Sum of electronic and thermal Energies=              -484.097842
 Sum of electronic and thermal Enthalpies=            -484.096898
 Sum of electronic and thermal Free Energies=         -484.146327

                     E (Thermal)             CV                S
                      KCal/Mol        Cal/Mol-Kelvin    Cal/Mol-Kelvin
 Total                  180.246             47.475            104.032
 Electronic               0.000              0.000              0.000
 Translational            0.889              2.981             41.065
 Rotational               0.889              2.981             30.120
 Vibrational            178.469             41.514             32.847
 Vibration     1          0.596              1.977              4.719
 Vibration     2          0.602              1.954              3.600
 Vibration     3          0.619              1.901              2.653
 Vibration     4          0.630              1.864              2.304
 Vibration     5          0.648              1.809              1.949
 Vibration     6          0.661              1.768              1.753
 Vibration     7          0.670              1.740              1.640
 Vibration     8          0.692              1.676              1.425
 Vibration     9          0.699              1.654              1.360
 Vibration    10          0.708              1.629              1.293
 Vibration    11          0.724              1.584              1.186
 Vibration    12          0.734              1.557              1.128
 Vibration    13          0.762              1.481              0.981
 Vibration    14          0.787              1.415              0.874
 Vibration    15          0.809              1.359              0.794
 Vibration    16          0.832              1.306              0.724
 Vibration    17          0.872              1.212              0.616
 Vibration    18          0.926              1.097              0.505

                           ! Non-Optimized Parameters !
 Normal termination of Gaussian 16 at Mon May 31 17:24:10 2021.
