 Gaussian 16, Revision A.03,
 Gaussian 16:  ES64L-G16RevA.03 25-Dec-2016

 -----------------------------
 # opt freq b3lyp/6-31g(2df,p)
 -----------------------------

 -------------------
 Title Card Required
 -------------------
 Symbolic Z-matrix:
 Charge =  0 Multiplicity = 1

 SCF Done:  E(RB3LYP) =  -275.170260178     A.U. after   12 cycles
 SCF Done:  E(RB3LYP) =  -275.173750932     A.U. after   10 cycles
 SCF Done:  E(RB3LYP) =  -275.174249239     A.U. after    9 cycles
 SCF Done:  E(RB3LYP) =  -275.175310316     A.U. after   10 cycles
 SCF Done:  E(RB3LYP) =  -275.173322501     A.U. after   11 cycles
 SCF Done:  E(RB3LYP) =  -275.176125377     A.U. after   10 cycles
 SCF Done:  E(RB3LYP) =  -275.176698079     A.U. after   10 cycles
 SCF Done:  E(RB3LYP) =  -275.177165791     A.U. after   10 cycles
 SCF Done:  E(RB3LYP) =  -275.177296497     A.U. after    9 cycles
 SCF Done:  E(RB3LYP) =  -275.177374054     A.U. after    9 cycles
 SCF Done:  E(RB3LYP) =  -275.177424818     A.U. after    9 cycles
 SCF Done:  E(RB3LYP) =  -275.177436985     A.U. after    9 cycles
 SCF Done:  E(RB3LYP) =  -275.177440432     A.U. after    8 cycles
 SCF Done:  E(RB3LYP) =  -275.177441165     A.U. after    7 cycles
 SCF Done:  E(RB3LYP) =  -275.177441283     A.U. after    6 cycles
 SCF Done:  E(RB3LYP) =  -275.177441370     A.U. after    5 cycles
 SCF Done:  E(RB3LYP) =  -275.177441415     A.U. after    5 cycles
 Optimization completed.
    -- Stationary point found.
 Normal termination of Gaussian 16 at Tue Jun  1 04:16:22 2021.

 ----------------------------------------------------------------------
 #N Geom=AllCheck Guess=TCheck SCRF=Check GenChk RB3LYP/6-31G(2df,p) Fr
 eq
 ----------------------------------------------------------------------

 Structure from the checkpoint file:  "CCC1pCpCC1C.chk"
 -------------------
 Title Card Required
 -------------------
 Charge =  0 Multiplicity = 1

                         Standard orientation:
 ---------------------------------------------------------------------
 Center     Atomic      Atomic             Coordinates (Angstroms)
 Number     Number       Type             X           Y           Z
 ---------------------------------------------------------------------
      1          6           0       -2.333499   -0.800409   -0.217535
      2          6           0       -1.525248    0.497187   -0.308120
      3          6           0       -0.053394    0.457398    0.106411
      4          6           0        0.610932    1.811064   -0.082034
      5          6           0        0.377724   -0.369977    1.298815
      6          6           0        0.758824   -0.806311   -0.099174
      7          6           0        2.199175   -0.820300   -0.566396
      8          1           0       -3.375151   -0.610798   -0.494715
      9          1           0       -2.338052   -1.214126    0.795905
     10          1           0       -1.954415   -1.571796   -0.894729
     11          1           0       -2.022979    1.262559    0.304235
     12          1           0       -1.576484    0.869564   -1.341189
     13          1           0        0.068618    2.583636    0.476283
     14          1           0        0.612340    2.110429   -1.137324
     15          1           0        1.645427    1.823428    0.268698
     16          1           0       -0.358527   -0.952827    1.841885
     17          1           0        1.161940    0.039599    1.929217
     18          1           0        0.189497   -1.653173   -0.472701
     19          1           0        2.786891   -0.010907   -0.125221
     20          1           0        2.269722   -0.725247   -1.656221
     21          1           0        2.684091   -1.762257   -0.285924
 ---------------------------------------------------------------------

 SCF Done:  E(RB3LYP) =  -275.177441415     A.U. after    1 cycles

 The electronic state is 1-A.
 Alpha  occ. eigenvalues --  -10.18750 -10.18009 -10.17675 -10.17124 -10.17100
 Alpha  occ. eigenvalues --  -10.17045 -10.16931  -0.85895  -0.75377  -0.71242
 Alpha  occ. eigenvalues --   -0.69228  -0.62154  -0.57078  -0.51720  -0.47758
 Alpha  occ. eigenvalues --   -0.44205  -0.43635  -0.40915  -0.40135  -0.40063
 Alpha  occ. eigenvalues --   -0.37843  -0.37078  -0.34968  -0.34315  -0.33928
 Alpha  occ. eigenvalues --   -0.31846  -0.26593  -0.25473
 Alpha virt. eigenvalues --    0.08929   0.10403   0.12083   0.12865   0.13115
 Alpha virt. eigenvalues --    0.14665   0.15810   0.16158   0.17156   0.18000
 Alpha virt. eigenvalues --    0.18713   0.19648   0.20118   0.21650   0.22048

 Mulliken charges:
               1
     1  C   -0.402712
     2  C   -0.222977
     3  C    0.342393
     4  C   -0.452458
     5  C   -0.332881
     6  C   -0.009402
     7  C   -0.415264
     8  H    0.112465
     9  H    0.118252
    10  H    0.119864
    11  H    0.093846
    12  H    0.092761
    13  H    0.111611
    14  H    0.110403
    15  H    0.111226
    16  H    0.103701
    17  H    0.100251
    18  H    0.076545
    19  H    0.114204
    20  H    0.113454
    21  H    0.114718
 Sum of Mulliken charges =  -0.00000

 Dipole moment (field-independent basis, Debye):
    X=             -0.0897    Y=              0.0229    Z=             -0.1240  Tot=              0.1548
 Quadrupole moment (field-independent basis, Debye-Ang):
   XX=            -45.8803   YY=            -46.5183   ZZ=            -46.2953
   XY=              0.2975   XZ=              0.1398   YZ=              0.2751

  Exact polarizability:  81.731  -1.419  74.007  -0.204  -0.616  68.455
 Approx polarizability: 103.885  -3.086 103.685   0.212  -0.368 103.878

                      1                      2                      3
                      A                      A                      A
 Frequencies --     57.9311               170.6170               184.6809
 Red. masses --      1.7561                 1.1886                 1.2640
 Frc consts  --      0.0035                 0.0204                 0.0254
 IR Inten    --      0.0021                 0.0417                 0.1429

                      4                      5                      6
                      A                      A                      A
 Frequencies --    198.2545               234.1468               266.2309
 Red. masses --      1.8511                 1.7867                 1.3161
 Frc consts  --      0.0429                 0.0577                 0.0550
 IR Inten    --      0.1202                 0.0161                 0.0106

                      7                      8                      9
                      A                      A                      A
 Frequencies --    293.5477               367.5827               423.6077
 Red. masses --      1.9809                 2.3770                 2.3045
 Frc consts  --      0.1006                 0.1892                 0.2436
 IR Inten    --      0.0270                 0.2589                 0.2816

                     10                     11                     12
                      A                      A                      A
 Frequencies --    444.6466               486.4877               659.2497
 Red. masses --      2.1129                 2.4553                 3.2403
 Frc consts  --      0.2461                 0.3424                 0.8297
 IR Inten    --      0.5051                 1.4545                 0.4962

                     13                     14                     15
                      A                      A                      A
 Frequencies --    746.4782               803.8873               868.4246
 Red. masses --      1.8394                 1.3503                 1.6661
 Frc consts  --      0.6039                 0.5141                 0.7403
 IR Inten    --      0.9029                 2.8734                 3.1393

                     16                     17                     18
                      A                      A                      A
 Frequencies --    885.9610               924.8278               958.2060
 Red. masses --      1.3717                 1.7934                 1.5997
 Frc consts  --      0.6343                 0.9038                 0.8654
 IR Inten    --      2.0074                 2.8574                 0.2998

                     19                     20                     21
                      A                      A                      A
 Frequencies --   1009.2871              1024.1083              1050.8022
 Red. masses --      1.3399                 1.3266                 1.4125
 Frc consts  --      0.8042                 0.8198                 0.9190
 IR Inten    --      1.4075                 4.8624                 3.5647

                     22                     23                     24
                      A                      A                      A
 Frequencies --   1066.4804              1078.2023              1132.2080
 Red. masses --      2.2241                 1.3450                 1.7213
 Frc consts  --      1.4904                 0.9212                 1.3000
 IR Inten    --      0.4243                 2.4706                 2.0935

                     25                     26                     27
                      A                      A                      A
 Frequencies --   1139.0124              1163.9922              1194.1297
 Red. masses --      2.0005                 1.9600                 1.7673
 Frc consts  --      1.5291                 1.5646                 1.4848
 IR Inten    --      1.0319                 2.0306                 0.1027

                     28                     29                     30
                      A                      A                      A
 Frequencies --   1260.0157              1308.3770              1315.8308
 Red. masses --      2.1718                 1.8264                 1.1569
 Frc consts  --      2.0316                 1.8421                 1.1801
 IR Inten    --      6.3681                 0.8279                 0.3967

                     31                     32                     33
                      A                      A                      A
 Frequencies --   1388.3203              1404.7483              1415.5419
 Red. masses --      1.5031                 1.2845                 1.3335
 Frc consts  --      1.7069                 1.4934                 1.5744
 IR Inten    --      3.4366                 0.6528                 1.6366

                     34                     35                     36
                      A                      A                      A
 Frequencies --   1420.4503              1425.1050              1483.2222
 Red. masses --      1.2543                 1.5215                 1.0799
 Frc consts  --      1.4911                 1.8207                 1.3997
 IR Inten    --      4.0137                 0.3834                 0.4403

                     37                     38                     39
                      A                      A                      A
 Frequencies --   1486.6716              1490.2321              1494.5187
 Red. masses --      1.0462                 1.1757                 1.0573
 Frc consts  --      1.3624                 1.5384                 1.3914
 IR Inten    --      3.8713                 5.6063                 1.8506

                     40                     41                     42
                      A                      A                      A
 Frequencies --   1502.0675              1508.1633              1508.7224
 Red. masses --      1.0579                 1.0537                 1.0604
 Frc consts  --      1.4063                 1.4121                 1.4222
 IR Inten    --      2.0299                11.5193                 1.3591

                     43                     44                     45
                      A                      A                      A
 Frequencies --   1518.8414              2998.0799              3020.8402
 Red. masses --      1.2395                 1.0588                 1.0383
 Frc consts  --      1.6847                 5.6075                 5.5825
 IR Inten    --      2.1813                36.9694                44.6230

                     46                     47                     48
                      A                      A                      A
 Frequencies --   3025.1243              3027.7388              3038.6102
 Red. masses --      1.1011                 1.0382                 1.0355
 Frc consts  --      5.9372                 5.6075                 5.6333
 IR Inten    --     20.5981                37.4938                21.5629

                     49                     50                     51
                      A                      A                      A
 Frequencies --   3074.0518              3081.6400              3101.9566
 Red. masses --      1.1003                 1.1008                 1.1003
 Frc consts  --      6.1262                 6.1592                 6.2379
 IR Inten    --     26.9794                29.6764                34.9583

                     52                     53                     54
                      A                      A                      A
 Frequencies --   3102.5911              3106.5931              3116.6276
 Red. masses --      1.0981                 1.1005                 1.0894
 Frc consts  --      6.2280                 6.2578                 6.2346
 IR Inten    --     18.6098                21.6078                18.6430

                     55                     56                     57
                      A                      A                      A
 Frequencies --   3121.8672              3142.9450              3202.9967
 Red. masses --      1.0616                 1.0877                 1.1147
 Frc consts  --      6.0961                 6.3304                 6.7380
 IR Inten    --     30.8480                29.8065                17.1927

 - Thermochemistry -
 -------------------
 Temperature   298.150 Kelvin.  Pressure   1.00000 Atm.
 Atom     1 has atomic number  6 and mass  12.00000

 Molecular mass:    98.10955 amu.
 Principal axes and moments of inertia in atomic units:
                           1         2         3
     Eigenvalues --   500.69461 922.926671126.59826
           X            0.99983   0.01834  -0.00308
           Y           -0.01834   0.99983   0.00141
           Z            0.00311  -0.00136   0.99999
 This molecule is an asymmetric top.
 Rotational symmetry number  1.
 Warning -- assumption of classical behavior for rotation
           may cause significant error
 Rotational temperatures (Kelvin)      0.17299     0.09385     0.07688
 Rotational constants (GHZ):           3.60448     1.95545     1.60194
 Zero-point vibrational energy     507967.2 (Joules/Mol)
                                  121.40707 (Kcal/Mol)
 Warning -- explicit consideration of  11 degrees of freedom as
           vibrations may cause significant error
 Vibrational temperatures:     83.35   245.48   265.71   285.24   336.88
          (Kelvin)            383.05   422.35   528.87   609.48   639.75
                              699.95   948.51  1074.02  1156.61  1249.47
                             1274.70  1330.62  1378.64  1452.14  1473.46
                             1511.87  1534.43  1551.29  1628.99  1638.78
                             1674.73  1718.09  1812.88  1882.46  1893.19
                             1997.48  2021.12  2036.65  2043.71  2050.41
                             2134.03  2138.99  2144.11  2150.28  2161.14
                             2169.91  2170.72  2185.27  4313.57  4346.32
                             4352.48  4356.24  4371.88  4422.87  4433.79
                             4463.02  4463.94  4469.69  4484.13  4491.67
                             4522.00  4608.40

 Zero-point correction=                           0.193474 (Hartree/Particle)
 Thermal correction to Energy=                    0.202273
 Thermal correction to Enthalpy=                  0.203217
 Thermal correction to Gibbs Free Energy=         0.160740
 Sum of electronic and zero-point Energies=           -274.983967
 Sum of electronic and thermal Energies=              -274.975168
 Sum of electronic and thermal Enthalpies=            -274.974224
 Sum of electronic and thermal Free Energies=         -275.016702

                     E (Thermal)             CV                S
                      KCal/Mol        Cal/Mol-Kelvin    Cal/Mol-Kelvin
 Total                  126.928             32.751             89.401
 Electronic               0.000              0.000              0.000
 Translational            0.889              2.981             39.661
 Rotational               0.889              2.981             27.745
 Vibrational            125.151             26.789             21.995
 Vibration     1          0.596              1.974              4.526
 Vibration     2          0.626              1.879              2.429
 Vibration     3          0.631              1.861              2.281
 Vibration     4          0.637              1.842              2.149
 Vibration     5          0.654              1.789              1.847
 Vibration     6          0.672              1.735              1.621
 Vibration     7          0.688              1.686              1.453
 Vibration     8          0.740              1.539              1.090
 Vibration     9          0.786              1.419              0.880
 Vibration    10          0.804              1.373              0.812
 Vibration    11          0.842              1.280              0.693

 Optimization completed.
    -- Stationary point found.
 Normal termination of Gaussian 16 at Tue Jun  1 04:38:55 2021.
