 Gaussian 16, Revision A.03,
 Gaussian 16:  ES64L-G16RevA.03 25-Dec-2016

 -----------------------------
 # opt freq b3lyp/6-31g(2df,p)
 -----------------------------

 -------------------
 Title Card Required
 -------------------
 Symbolic Z-matrix:
 Charge =  0 Multiplicity = 1

 SCF Done:  E(RB3LYP) =  -500.382539563     A.U. after   12 cycles
 SCF Done:  E(RB3LYP) =  -500.392775919     A.U. after   11 cycles
 SCF Done:  E(RB3LYP) =  -500.394745756     A.U. after   11 cycles
 SCF Done:  E(RB3LYP) =  -500.396479719     A.U. after   11 cycles
 SCF Done:  E(RB3LYP) =  -500.397749801     A.U. after   10 cycles
 SCF Done:  E(RB3LYP) =  -500.398421508     A.U. after   10 cycles
 SCF Done:  E(RB3LYP) =  -500.398563089     A.U. after   10 cycles
 SCF Done:  E(RB3LYP) =  -500.398642136     A.U. after   10 cycles
 SCF Done:  E(RB3LYP) =  -500.398681529     A.U. after   10 cycles
 SCF Done:  E(RB3LYP) =  -500.398698765     A.U. after    9 cycles
 SCF Done:  E(RB3LYP) =  -500.402394737     A.U. after   11 cycles
 SCF Done:  E(RB3LYP) =  -500.403622453     A.U. after    8 cycles
 SCF Done:  E(RB3LYP) =  -500.403790094     A.U. after   10 cycles
 SCF Done:  E(RB3LYP) =  -500.403883936     A.U. after   10 cycles
 SCF Done:  E(RB3LYP) =  -500.403895994     A.U. after    8 cycles
 SCF Done:  E(RB3LYP) =  -500.403898330     A.U. after    7 cycles
 SCF Done:  E(RB3LYP) =  -500.403899085     A.U. after    7 cycles
 SCF Done:  E(RB3LYP) =  -500.403899458     A.U. after    6 cycles
 SCF Done:  E(RB3LYP) =  -500.403899573     A.U. after    6 cycles
 Optimization completed.
    -- Stationary point found.
 Normal termination of Gaussian 16 at Wed Jun  2 03:43:10 2021.

 ----------------------------------------------------------------------
 #N Geom=AllCheck Guess=TCheck SCRF=Check GenChk RB3LYP/6-31G(2df,p) Fr
 eq
 ----------------------------------------------------------------------

 Structure from the checkpoint file:  "CCC1pNCpNC1CCCO.chk"
 -------------------
 Title Card Required
 -------------------
 Charge =  0 Multiplicity = 1

                         Standard orientation:
 ---------------------------------------------------------------------
 Center     Atomic      Atomic             Coordinates (Angstroms)
 Number     Number       Type             X           Y           Z
 ---------------------------------------------------------------------
      1          6           0       -2.622787   -2.186935   -0.419101
      2          6           0       -2.350359   -0.743243   -0.853097
      3          6           0       -1.357150    0.074955   -0.024021
      4          7           0       -1.102299    1.407601   -0.522352
      5          6           0       -2.154845    2.385280   -0.257490
      6          7           0       -1.414239    0.041712    1.439629
      7          6           0       -0.263230   -0.584297    0.755822
      8          6           0        1.090273    0.050514    0.971543
      9          6           0        2.115917   -0.383921   -0.082969
     10          6           0        3.498914    0.223343    0.150613
     11          8           0        4.440075   -0.130753   -0.851910
     12          1           0       -3.393782   -2.631740   -1.055166
     13          1           0       -2.986583   -2.248595    0.612713
     14          1           0       -1.730411   -2.814360   -0.499584
     15          1           0       -3.300411   -0.193147   -0.873921
     16          1           0       -1.987914   -0.749995   -1.890118
     17          1           0       -0.895445    1.366621   -1.514467
     18          1           0       -2.303064    2.447278    0.823329
     19          1           0       -3.128996    2.161600   -0.724954
     20          1           0       -1.829273    3.366175   -0.616321
     21          1           0       -2.071124   -0.666410    1.755631
     22          1           0       -0.251197   -1.673356    0.733822
     23          1           0        1.451153   -0.215316    1.974464
     24          1           0        0.964946    1.136033    0.947914
     25          1           0        1.772453   -0.095577   -1.083725
     26          1           0        2.205334   -1.481225   -0.087792
     27          1           0        3.863248   -0.050269    1.154816
     28          1           0        3.435816    1.316717    0.121904
     29          1           0        4.540008   -1.087782   -0.831999
 ---------------------------------------------------------------------

 SCF Done:  E(RB3LYP) =  -500.403899573     A.U. after    1 cycles

 The electronic state is 1-A.
 Alpha  occ. eigenvalues --  -19.12630 -14.31757 -14.30993 -10.23538 -10.21795
 Alpha  occ. eigenvalues --  -10.20424 -10.19219 -10.18943 -10.18509 -10.17486
 Alpha  occ. eigenvalues --  -10.17045  -1.00693  -0.96540  -0.87354  -0.77931
 Alpha  occ. eigenvalues --   -0.76821  -0.69037  -0.67845  -0.63372  -0.61152
 Alpha  occ. eigenvalues --   -0.58552  -0.55869  -0.49881  -0.49486  -0.47893
 Alpha  occ. eigenvalues --   -0.45283  -0.44523  -0.44198  -0.41978  -0.41367
 Alpha  occ. eigenvalues --   -0.39991  -0.38776  -0.38070  -0.36742  -0.36108
 Alpha  occ. eigenvalues --   -0.35771  -0.34562  -0.33863  -0.32276  -0.30768
 Alpha  occ. eigenvalues --   -0.29979  -0.25781  -0.24413  -0.21534
 Alpha virt. eigenvalues --    0.07004   0.08133   0.08890   0.10223   0.11650
 Alpha virt. eigenvalues --    0.12367   0.12758   0.13714   0.15014   0.15587
 Alpha virt. eigenvalues --    0.16168   0.16496   0.17297   0.17677   0.19033

 Mulliken charges:
               1
     1  C   -0.403041
     2  C   -0.249242
     3  C    0.294323
     4  N   -0.302005
     5  C   -0.326386
     6  N   -0.365150
     7  C   -0.060566
     8  C   -0.199139
     9  C   -0.196848
    10  C   -0.055182
    11  O   -0.421504
    12  H    0.119420
    13  H    0.115007
    14  H    0.125682
    15  H    0.107327
    16  H    0.097903
    17  H    0.212615
    18  H    0.144784
    19  H    0.089828
    20  H    0.114259
    21  H    0.223721
    22  H    0.070386
    23  H    0.089641
    24  H    0.121906
    25  H    0.102212
    26  H    0.075892
    27  H    0.083019
    28  H    0.113792
    29  H    0.277347
 Sum of Mulliken charges =  -0.00000

 Dipole moment (field-independent basis, Debye):
    X=             -1.8440    Y=             -2.2967    Z=             -0.6565  Tot=              3.0176
 Quadrupole moment (field-independent basis, Debye-Ang):
   XX=            -73.1059   YY=            -66.0126   ZZ=            -70.5576
   XY=             -3.8235   XZ=              5.1269   YZ=             -1.9303

  Exact polarizability: 118.308  -1.805 104.765   2.984  -1.500  92.315
 Approx polarizability: 146.913  -4.958 145.952  -0.247  -2.866 144.049

                      1                      2                      3
                      A                      A                      A
 Frequencies --     37.5337                51.1050                70.5272
 Red. masses --      3.4244                 2.6513                 1.7288
 Frc consts  --      0.0028                 0.0041                 0.0051
 IR Inten    --      0.4259                 0.2095                 3.6810

                      4                      5                      6
                      A                      A                      A
 Frequencies --     81.9922                97.0704               128.7509
 Red. masses --      2.3997                 2.2636                 2.8196
 Frc consts  --      0.0095                 0.0126                 0.0275
 IR Inten    --      0.3091                 1.9397                 1.5956

                      7                      8                      9
                      A                      A                      A
 Frequencies --    192.1315               198.7069               213.8107
 Red. masses --      1.3952                 2.2316                 1.7126
 Frc consts  --      0.0303                 0.0519                 0.0461
 IR Inten    --      0.0989                 1.0991                 1.4864

                     10                     11                     12
                      A                      A                      A
 Frequencies --    249.7827               259.2035               287.2025
 Red. masses --      2.4980                 1.6827                 1.9831
 Frc consts  --      0.0918                 0.0666                 0.0964
 IR Inten    --      2.7009                 4.3517                26.2808

                     13                     14                     15
                      A                      A                      A
 Frequencies --    306.4933               354.2283               411.9011
 Red. masses --      1.2867                 4.3282                 3.2066
 Frc consts  --      0.0712                 0.3200                 0.3205
 IR Inten    --     86.3865                 4.2658                 3.5569

                     16                     17                     18
                      A                      A                      A
 Frequencies --    419.1350               516.4967               533.3331
 Red. masses --      2.9439                 3.1193                 3.1364
 Frc consts  --      0.3047                 0.4903                 0.5256
 IR Inten    --      2.5285                25.7561                 2.6146

                     19                     20                     21
                      A                      A                      A
 Frequencies --    564.6622               658.2381               750.1713
 Red. masses --      2.6667                 2.9289                 1.3371
 Frc consts  --      0.5010                 0.7477                 0.4433
 IR Inten    --      9.6625                29.1570                10.9140

                     22                     23                     24
                      A                      A                      A
 Frequencies --    760.2252               773.7376               839.2544
 Red. masses --      1.5499                 1.2679                 1.5090
 Frc consts  --      0.5278                 0.4472                 0.6262
 IR Inten    --     57.9112                11.1929                 6.2887

                     25                     26                     27
                      A                      A                      A
 Frequencies --    882.8430               916.0620               956.4797
 Red. masses --      1.6311                 2.1897                 2.1319
 Frc consts  --      0.7490                 1.0826                 1.1491
 IR Inten    --     11.9415                27.4479                10.1260

                     28                     29                     30
                      A                      A                      A
 Frequencies --    989.4479              1009.2530              1031.8261
 Red. masses --      2.1388                 1.4331                 2.6090
 Frc consts  --      1.2337                 0.8600                 1.6366
 IR Inten    --     20.1070                40.7205                 3.8114

                     31                     32                     33
                      A                      A                      A
 Frequencies --   1047.8383              1071.1401              1079.3795
 Red. masses --      2.0608                 2.3077                 1.9492
 Frc consts  --      1.3331                 1.5600                 1.3380
 IR Inten    --      6.9555                22.9110                25.8586

                     34                     35                     36
                      A                      A                      A
 Frequencies --   1080.4155              1099.7712              1115.1429
 Red. masses --      3.3162                 2.3360                 1.9107
 Frc consts  --      2.2807                 1.6647                 1.3999
 IR Inten    --     55.3279                22.3665                 4.0670

                     37                     38                     39
                      A                      A                      A
 Frequencies --   1137.1230              1142.5221              1160.0121
 Red. masses --      1.3461                 1.5225                 1.4316
 Frc consts  --      1.0255                 1.1710                 1.1350
 IR Inten    --     18.7414                 2.0891                11.6029

                     40                     41                     42
                      A                      A                      A
 Frequencies --   1197.2866              1241.0070              1258.9690
 Red. masses --      1.9128                 1.5274                 1.4287
 Frc consts  --      1.6156                 1.3859                 1.3342
 IR Inten    --     14.4594                 6.3838                32.3859

                     43                     44                     45
                      A                      A                      A
 Frequencies --   1270.4727              1300.7189              1312.0851
 Red. masses --      1.4484                 1.3054                 1.5858
 Frc consts  --      1.3775                 1.3012                 1.6085
 IR Inten    --     15.5088                 6.9245                15.8904

                     46                     47                     48
                      A                      A                      A
 Frequencies --   1317.8712              1325.7917              1364.8430
 Red. masses --      1.2534                 1.1831                 1.4223
 Frc consts  --      1.2825                 1.2253                 1.5610
 IR Inten    --      6.9980                 4.4655                 3.5556

                     49                     50                     51
                      A                      A                      A
 Frequencies --   1389.4992              1399.3201              1414.5460
 Red. masses --      1.4977                 1.3575                 1.2604
 Frc consts  --      1.7037                 1.5661                 1.4860
 IR Inten    --      9.6988                 6.5241                 3.7887

                     52                     53                     54
                      A                      A                      A
 Frequencies --   1422.5856              1442.9918              1457.0908
 Red. masses --      1.3043                 1.2656                 1.5434
 Frc consts  --      1.5552                 1.5527                 1.9307
 IR Inten    --     51.2545                 6.3400                11.4914

                     55                     56                     57
                      A                      A                      A
 Frequencies --   1477.0330              1477.9796              1490.6602
 Red. masses --      1.0900                 1.1644                 1.1024
 Frc consts  --      1.4011                 1.4986                 1.4432
 IR Inten    --      4.1592                 4.8155                 1.3025

                     58                     59                     60
                      A                      A                      A
 Frequencies --   1491.4370              1498.7824              1501.3654
 Red. masses --      1.2860                 1.0810                 1.0653
 Frc consts  --      1.6854                 1.4307                 1.4148
 IR Inten    --      7.9763                 3.1902                 4.8872

                     61                     62                     63
                      A                      A                      A
 Frequencies --   1507.8545              1515.1136              1523.3628
 Red. masses --      1.0730                 1.0948                 1.0955
 Frc consts  --      1.4374                 1.4807                 1.4979
 IR Inten    --      5.4539                 0.8304                 7.1748

                     64                     65                     66
                      A                      A                      A
 Frequencies --   2954.8881              2966.4806              2991.6718
 Red. masses --      1.0590                 1.0713                 1.0669
 Frc consts  --      5.4480                 5.5545                 5.6261
 IR Inten    --     85.6869                54.4419                27.9143

                     67                     68                     69
                      A                      A                      A
 Frequencies --   3010.7313              3017.3493              3034.4972
 Red. masses --      1.0603                 1.0696                 1.0403
 Frc consts  --      5.6628                 5.7377                 5.6437
 IR Inten    --     33.9902                28.2783                20.9482

                     70                     71                     72
                      A                      A                      A
 Frequencies --   3041.7039              3053.8855              3072.4356
 Red. masses --      1.0964                 1.0863                 1.0945
 Frc consts  --      5.9764                 5.9693                 6.0871
 IR Inten    --     20.5583                27.7930                29.8991

                     73                     74                     75
                      A                      A                      A
 Frequencies --   3072.9485              3096.7663              3099.3809
 Red. masses --      1.0750                 1.0968                 1.0923
 Frc consts  --      5.9811                 6.1974                 6.1822
 IR Inten    --     46.9201                20.0191                14.2877

                     76                     77                     78
                      A                      A                      A
 Frequencies --   3108.7004              3119.3403              3124.0697
 Red. masses --      1.0993                 1.0914                 1.1011
 Frc consts  --      6.2591                 6.2568                 6.3317
 IR Inten    --     27.8000                42.7968                11.6881

                     79                     80                     81
                      A                      A                      A
 Frequencies --   3509.0905              3527.7937              3814.1925
 Red. masses --      1.0753                 1.0732                 1.0661
 Frc consts  --      7.8011                 7.8690                 9.1376
 IR Inten    --      0.1871                 0.2164                13.7489

 - Thermochemistry -
 -------------------
 Temperature   298.150 Kelvin.  Pressure   1.00000 Atm.
 Atom     1 has atomic number  6 and mass  12.00000

 Molecular mass:   158.14191 amu.
 Principal axes and moments of inertia in atomic units:
                           1         2         3
     Eigenvalues --  1134.166813642.944584089.76083
           X            0.99991   0.00206   0.01329
           Y           -0.00209   1.00000   0.00180
           Z           -0.01329  -0.00182   0.99991
 This molecule is an asymmetric top.
 Rotational symmetry number  1.
 Warning -- assumption of classical behavior for rotation
           may cause significant error
 Rotational temperatures (Kelvin)      0.07637     0.02378     0.02118
 Rotational constants (GHZ):           1.59125     0.49541     0.44128
 Zero-point vibrational energy     685995.8 (Joules/Mol)
                                  163.95693 (Kcal/Mol)
 Warning -- explicit consideration of  19 degrees of freedom as
           vibrations may cause significant error
 Vibrational temperatures:     54.00    73.53   101.47   117.97   139.66
          (Kelvin)            185.24   276.43   285.89   307.63   359.38
                              372.94   413.22   440.98   509.66   592.63
                              603.04   743.12   767.35   812.42   947.06
                             1079.33  1093.79  1113.24  1207.50  1270.21
                             1318.01  1376.16  1423.59  1452.09  1484.57
                             1507.61  1541.13  1552.99  1554.48  1582.33
                             1604.44  1636.07  1643.83  1669.00  1722.63
                             1785.53  1811.38  1827.93  1871.44  1887.80
                             1896.12  1907.52  1963.70  1999.18  2013.31
                             2035.22  2046.78  2076.14  2096.43  2125.12
                             2126.48  2144.73  2145.85  2156.41  2160.13
                             2169.47  2179.91  2191.78  4251.42  4268.10
                             4304.35  4331.77  4341.29  4365.96  4376.33
                             4393.86  4420.55  4421.29  4455.56  4459.32
                             4472.73  4488.04  4494.84  5048.80  5075.71
                             5487.77

 Zero-point correction=                           0.261282 (Hartree/Particle)
 Thermal correction to Energy=                    0.274960
 Thermal correction to Enthalpy=                  0.275904
 Thermal correction to Gibbs Free Energy=         0.220236
 Sum of electronic and zero-point Energies=           -500.142618
 Sum of electronic and thermal Energies=              -500.128939
 Sum of electronic and thermal Enthalpies=            -500.127995
 Sum of electronic and thermal Free Energies=         -500.183664

                     E (Thermal)             CV                S
                      KCal/Mol        Cal/Mol-Kelvin    Cal/Mol-Kelvin
 Total                  172.540             49.405            117.164
 Electronic               0.000              0.000              0.000
 Translational            0.889              2.981             41.084
 Rotational               0.889              2.981             31.203
 Vibrational            170.763             43.443             44.877
 Vibration     1          0.594              1.982              5.385
 Vibration     2          0.595              1.977              4.774
 Vibration     3          0.598              1.968              4.139
 Vibration     4          0.600              1.961              3.843
 Vibration     5          0.603              1.951              3.512
 Vibration     6          0.611              1.924              2.965
 Vibration     7          0.634              1.851              2.207
 Vibration     8          0.637              1.842              2.145
 Vibration     9          0.644              1.820              2.011
 Vibration    10          0.663              1.763              1.732
 Vibration    11          0.668              1.747              1.667
 Vibration    12          0.684              1.697              1.490
 Vibration    13          0.697              1.661              1.381
 Vibration    14          0.730              1.567              1.147
 Vibration    15          0.776              1.444              0.920
 Vibration    16          0.782              1.429              0.895
 Vibration    17          0.872              1.213              0.618
 Vibration    18          0.888              1.176              0.580
 Vibration    19          0.920              1.108              0.515

                           ! Non-Optimized Parameters !
 Normal termination of Gaussian 16 at Wed Jun  2 05:16:55 2021.
