 Gaussian 16, Revision A.03,
 Gaussian 16:  ES64L-G16RevA.03 25-Dec-2016

 -----------------------------
 # opt freq b3lyp/6-31g(2df,p)
 -----------------------------

 -------------------
 Title Card Required
 -------------------
 Symbolic Z-matrix:
 Charge =  0 Multiplicity = 1

 SCF Done:  E(RB3LYP) =  -399.464833107     A.U. after   13 cycles
 SCF Done:  E(RB3LYP) =  -399.481164004     A.U. after   12 cycles
 SCF Done:  E(RB3LYP) =  -399.483774036     A.U. after   12 cycles
 SCF Done:  E(RB3LYP) =  -399.485462056     A.U. after   11 cycles
 SCF Done:  E(RB3LYP) =  -399.487877832     A.U. after   11 cycles
 SCF Done:  E(RB3LYP) =  -399.488844763     A.U. after   10 cycles
 SCF Done:  E(RB3LYP) =  -399.489762639     A.U. after   11 cycles
 SCF Done:  E(RB3LYP) =  -399.490164261     A.U. after   10 cycles
 SCF Done:  E(RB3LYP) =  -399.490243791     A.U. after    9 cycles
 SCF Done:  E(RB3LYP) =  -399.490263334     A.U. after    8 cycles
 SCF Done:  E(RB3LYP) =  -399.490287170     A.U. after    9 cycles
 SCF Done:  E(RB3LYP) =  -399.490290098     A.U. after    7 cycles
 SCF Done:  E(RB3LYP) =  -399.490291077     A.U. after    8 cycles
 SCF Done:  E(RB3LYP) =  -399.490291153     A.U. after    6 cycles
 Optimization completed.
    -- Stationary point found.
 Normal termination of Gaussian 16 at Tue Jun  1 21:26:20 2021.

 ----------------------------------------------------------------------
 #N Geom=AllCheck Guess=TCheck SCRF=Check GenChk RB3LYP/6-31G(2df,p) Fr
 eq
 ----------------------------------------------------------------------

 Structure from the checkpoint file:  "CCC1pNpNCC1CtN.chk"
 -------------------
 Title Card Required
 -------------------
 Charge =  0 Multiplicity = 1

                         Standard orientation:
 ---------------------------------------------------------------------
 Center     Atomic      Atomic             Coordinates (Angstroms)
 Number     Number       Type             X           Y           Z
 ---------------------------------------------------------------------
      1          6           0        2.876146   -0.595774   -0.170101
      2          6           0        1.481723   -0.585930   -0.805777
      3          6           0        0.400235    0.020775    0.093408
      4          7           0        0.188497   -0.644831    1.366942
      5          7           0        0.552338    1.478323    0.385437
      6          6           0       -0.881562    1.711508    0.041172
      7          6           0       -0.984343    0.302272   -0.607722
      8          6           0       -2.113599   -0.555644   -0.302196
      9          7           0       -3.009638   -1.249217   -0.071083
     10          1           0        3.613699   -1.012197   -0.861676
     11          1           0        2.892911   -1.202529    0.740040
     12          1           0        3.201690    0.414491    0.098674
     13          1           0        1.178605   -1.610718   -1.058746
     14          1           0        1.510600   -0.033554   -1.754302
     15          1           0        0.943789   -0.409626    2.001518
     16          1           0        0.145712   -1.653882    1.262089
     17          1           0        1.149302    1.906024   -0.316748
     18          1           0       -1.074658    2.557147   -0.622392
     19          1           0       -1.488957    1.810117    0.942833
     20          1           0       -0.862669    0.361552   -1.693068
 ---------------------------------------------------------------------

 SCF Done:  E(RB3LYP) =  -399.490291153     A.U. after    1 cycles

 The electronic state is 1-A.
 Alpha  occ. eigenvalues --  -14.32755 -14.31872 -14.31780 -10.26277 -10.22894
 Alpha  occ. eigenvalues --  -10.22777 -10.21081 -10.19969 -10.19055  -0.96452
 Alpha  occ. eigenvalues --   -0.89070  -0.86767  -0.77981  -0.76130  -0.67975
 Alpha  occ. eigenvalues --   -0.63038  -0.59348  -0.52781  -0.50488  -0.50332
 Alpha  occ. eigenvalues --   -0.46167  -0.44311  -0.42259  -0.41177  -0.40024
 Alpha  occ. eigenvalues --   -0.38746  -0.36750  -0.36585  -0.35070  -0.34607
 Alpha  occ. eigenvalues --   -0.31864  -0.30594  -0.24750  -0.24475
 Alpha virt. eigenvalues --    0.02455   0.03772   0.06276   0.08974   0.09171
 Alpha virt. eigenvalues --    0.12095   0.12593   0.13266   0.14291   0.15218
 Alpha virt. eigenvalues --    0.16080   0.17045   0.17706   0.19402   0.19988

 Mulliken charges:
               1
     1  C   -0.389898
     2  C   -0.254886
     3  C    0.294900
     4  N   -0.512100
     5  N   -0.338299
     6  C   -0.175876
     7  C   -0.201339
     8  C    0.286755
     9  N   -0.337575
    10  H    0.122320
    11  H    0.117434
    12  H    0.126639
    13  H    0.108203
    14  H    0.092430
    15  H    0.238326
    16  H    0.233400
    17  H    0.219609
    18  H    0.114981
    19  H    0.140255
    20  H    0.114720
 Sum of Mulliken charges =  -0.00000

 Dipole moment (field-independent basis, Debye):
    X=              4.2063    Y=              1.4438    Z=             -1.8540  Tot=              4.8182
 Quadrupole moment (field-independent basis, Debye-Ang):
   XX=            -65.3957   YY=            -53.5763   ZZ=            -53.5785
   XY=             -8.3423   XZ=              1.0166   YZ=             -3.4306

  Exact polarizability:  93.765   4.475  78.399  -1.217  -2.853  67.110
 Approx polarizability: 127.965  16.855 118.726  -3.819  -5.872 102.612

                      1                      2                      3
                      A                      A                      A
 Frequencies --     75.9368               101.2873               142.0598
 Red. masses --      3.8764                 2.3924                 2.6153
 Frc consts  --      0.0132                 0.0145                 0.0311
 IR Inten    --      5.7170                 2.5363                 9.5654

                      4                      5                      6
                      A                      A                      A
 Frequencies --    155.1807               206.4481               222.1858
 Red. masses --      2.3787                 1.3505                 1.5284
 Frc consts  --      0.0337                 0.0339                 0.0445
 IR Inten    --      5.7069                 4.0695                19.9739

                      7                      8                      9
                      A                      A                      A
 Frequencies --    260.3003               349.3935               376.7164
 Red. masses --      2.2552                 3.0081                 2.5320
 Frc consts  --      0.0900                 0.2164                 0.2117
 IR Inten    --      0.4980                11.9032                 3.7515

                     10                     11                     12
                      A                      A                      A
 Frequencies --    407.4911               465.2554               532.1369
 Red. masses --      5.0026                 2.8396                 5.7034
 Frc consts  --      0.4894                 0.3622                 0.9515
 IR Inten    --      2.1643                 0.7344                 2.4912

                     13                     14                     15
                      A                      A                      A
 Frequencies --    600.6218               640.1700               753.3534
 Red. masses --      3.9999                 2.7903                 2.8690
 Frc consts  --      0.8502                 0.6737                 0.9594
 IR Inten    --      1.6748                 8.2761                 8.6297

                     16                     17                     18
                      A                      A                      A
 Frequencies --    786.9341               813.0348               826.3587
 Red. masses --      1.2533                 1.5163                 1.4512
 Frc consts  --      0.4573                 0.5905                 0.5838
 IR Inten    --     26.7497               141.3044                67.4358

                     19                     20                     21
                      A                      A                      A
 Frequencies --    920.3227               932.5396               954.9272
 Red. masses --      1.9913                 1.8619                 2.3882
 Frc consts  --      0.9937                 0.9540                 1.2831
 IR Inten    --      6.3318                 2.9340                11.1488

                     22                     23                     24
                      A                      A                      A
 Frequencies --    987.0023              1037.3959              1038.8281
 Red. masses --      4.7873                 2.5977                 1.6527
 Frc consts  --      2.7477                 1.6471                 1.0508
 IR Inten    --     10.4020                15.9637                 2.2037

                     25                     26                     27
                      A                      A                      A
 Frequencies --   1077.4015              1085.0805              1141.8008
 Red. masses --      2.8553                 1.6699                 1.9019
 Frc consts  --      1.9528                 1.1584                 1.4609
 IR Inten    --      6.4710                 2.8768                11.9777

                     28                     29                     30
                      A                      A                      A
 Frequencies --   1164.6667              1218.3504              1252.0533
 Red. masses --      1.4704                 2.0951                 1.3745
 Frc consts  --      1.1752                 1.8323                 1.2695
 IR Inten    --     20.5476                42.2420                 4.5611

                     31                     32                     33
                      A                      A                      A
 Frequencies --   1265.8942              1303.0840              1329.4846
 Red. masses --      1.6045                 1.2975                 1.4714
 Frc consts  --      1.5149                 1.2981                 1.5323
 IR Inten    --      6.4434                 6.1185                 7.4978

                     34                     35                     36
                      A                      A                      A
 Frequencies --   1359.2928              1370.3590              1404.3513
 Red. masses --      1.4875                 1.6206                 1.3053
 Frc consts  --      1.6193                 1.7930                 1.5167
 IR Inten    --      1.3865                 0.5844                24.2790

                     37                     38                     39
                      A                      A                      A
 Frequencies --   1412.6239              1482.7333              1498.0781
 Red. masses --      1.2528                 1.0716                 1.0439
 Frc consts  --      1.4730                 1.3881                 1.3803
 IR Inten    --      5.3643                 0.8243                 6.7865

                     40                     41                     42
                      A                      A                      A
 Frequencies --   1502.7186              1508.2422              1628.3010
 Red. masses --      1.0954                 1.0622                 1.1155
 Frc consts  --      1.4573                 1.4236                 1.7426
 IR Inten    --      0.5604                 6.0155                24.5143

                     43                     44                     45
                      A                      A                      A
 Frequencies --   2353.0343              3012.1490              3040.7984
 Red. masses --     12.6486                 1.0599                 1.0381
 Frc consts  --     41.2620                 5.6661                 5.6554
 IR Inten    --     15.8148                21.6114                20.7871

                     46                     47                     48
                      A                      A                      A
 Frequencies --   3046.9949              3069.2397              3071.8394
 Red. masses --      1.0988                 1.0604                 1.0807
 Frc consts  --      6.0107                 5.8856                 6.0082
 IR Inten    --     17.6327                37.9188                10.1765

                     49                     50                     51
                      A                      A                      A
 Frequencies --   3108.8790              3114.8216              3126.6292
 Red. masses --      1.1014                 1.1014                 1.1110
 Frc consts  --      6.2720                 6.2962                 6.3993
 IR Inten    --     27.6128                23.4111                16.6957

                     52                     53                     54
                      A                      A                      A
 Frequencies --   3501.4235              3510.6596              3598.8480
 Red. masses --      1.0481                 1.0747                 1.0941
 Frc consts  --      7.5705                 7.8040                 8.3493
 IR Inten    --      1.6276                 0.2517                 4.4242

 - Thermochemistry -
 -------------------
 Temperature   298.150 Kelvin.  Pressure   1.00000 Atm.
 Atom     1 has atomic number  6 and mass  12.00000

 Molecular mass:   125.09530 amu.
 Principal axes and moments of inertia in atomic units:
                           1         2         3
     Eigenvalues --   662.332021545.529821797.36369
           X            0.99883  -0.04790  -0.00587
           Y            0.04770   0.99841  -0.03018
           Z            0.00730   0.02987   0.99953
 This molecule is an asymmetric top.
 Rotational symmetry number  1.
 Warning -- assumption of classical behavior for rotation
           may cause significant error
 Rotational temperatures (Kelvin)      0.13077     0.05604     0.04819
 Rotational constants (GHZ):           2.72483     1.16772     1.00410
 Zero-point vibrational energy     449471.2 (Joules/Mol)
                                  107.42619 (Kcal/Mol)
 Warning -- explicit consideration of  13 degrees of freedom as
           vibrations may cause significant error
 Vibrational temperatures:    109.26   145.73   204.39   223.27   297.03
          (Kelvin)            319.68   374.51   502.70   542.01   586.29
                              669.40   765.63   864.16   921.06  1083.91
                             1132.22  1169.78  1188.95  1324.14  1341.72
                             1373.93  1420.08  1492.58  1494.64  1550.14
                             1561.19  1642.80  1675.70  1752.93  1801.43
                             1821.34  1874.85  1912.83  1955.72  1971.64
                             2020.55  2032.45  2133.32  2155.40  2162.08
                             2170.02  2342.76  3385.49  4333.81  4375.03
                             4383.95  4415.95  4419.69  4472.98  4481.53
                             4498.52  5037.77  5051.06  5177.94

 Zero-point correction=                           0.171195 (Hartree/Particle)
 Thermal correction to Energy=                    0.180907
 Thermal correction to Enthalpy=                  0.181851
 Thermal correction to Gibbs Free Energy=         0.136626
 Sum of electronic and zero-point Energies=           -399.319097
 Sum of electronic and thermal Energies=              -399.309384
 Sum of electronic and thermal Enthalpies=            -399.308440
 Sum of electronic and thermal Free Energies=         -399.353666

                     E (Thermal)             CV                S
                      KCal/Mol        Cal/Mol-Kelvin    Cal/Mol-Kelvin
 Total                  113.521             35.846             95.185
 Electronic               0.000              0.000              0.000
 Translational            0.889              2.981             40.385
 Rotational               0.889              2.981             28.999
 Vibrational            111.743             29.884             25.800
 Vibration     1          0.599              1.965              3.993
 Vibration     2          0.604              1.948              3.429
 Vibration     3          0.616              1.911              2.776
 Vibration     4          0.620              1.897              2.608
 Vibration     5          0.641              1.831              2.075
 Vibration     6          0.648              1.807              1.941
 Vibration     7          0.668              1.745              1.660
 Vibration     8          0.727              1.576              1.169
 Vibration     9          0.747              1.520              1.052
 Vibration    10          0.772              1.454              0.936
 Vibration    11          0.823              1.327              0.751
 Vibration    12          0.887              1.179              0.582
 Vibration    13          0.959              1.030              0.449

                           ! Non-Optimized Parameters !
 Normal termination of Gaussian 16 at Tue Jun  1 21:57:01 2021.
