 Gaussian 16, Revision A.03,
 Gaussian 16:  ES64L-G16RevA.03 25-Dec-2016

 -----------------------------
 # opt freq b3lyp/6-31g(2df,p)
 -----------------------------

 -------------------
 Title Card Required
 -------------------
 Symbolic Z-matrix:
 Charge =  0 Multiplicity = 1

 SCF Done:  E(RB3LYP) =  -287.142817834     A.U. after   17 cycles
 SCF Done:  E(RB3LYP) =  -287.200061520     A.U. after   14 cycles
 SCF Done:  E(RB3LYP) =  -287.281967507     A.U. after   15 cycles
 SCF Done:  E(RB3LYP) =  -287.361838219     A.U. after   16 cycles
 SCF Done:  E(RB3LYP) =  -287.400617798     A.U. after   14 cycles
 SCF Done:  E(RB3LYP) =  -287.404121642     A.U. after   14 cycles
 SCF Done:  E(RB3LYP) =  -287.390236864     A.U. after   16 cycles
 SCF Done:  E(RB3LYP) =  -287.362957860     A.U. after   15 cycles
 SCF Done:  E(RB3LYP) =  -287.348128835     A.U. after   15 cycles
 SCF Done:  E(RB3LYP) =  -287.406957679     A.U. after   11 cycles
 SCF Done:  E(RB3LYP) =  -287.422792062     A.U. after   14 cycles
 SCF Done:  E(RB3LYP) =  -287.423038207     A.U. after   14 cycles
 SCF Done:  E(RB3LYP) =  -287.423080851     A.U. after   14 cycles
 SCF Done:  E(RB3LYP) =  -287.423225907     A.U. after   12 cycles
 SCF Done:  E(RB3LYP) =  -287.423157172     A.U. after   12 cycles
 SCF Done:  E(RB3LYP) =  -287.423342318     A.U. after   11 cycles
 SCF Done:  E(RB3LYP) =  -287.423360405     A.U. after   10 cycles
 SCF Done:  E(RB3LYP) =  -287.423362610     A.U. after    9 cycles
 SCF Done:  E(RB3LYP) =  -287.423363111     A.U. after    8 cycles
 Optimization completed.
    -- Stationary point found.
 Normal termination of Gaussian 16 at Mon May 31 16:58:57 2021.

 ----------------------------------------------------------------------
 #N Geom=AllCheck Guess=TCheck SCRF=Check GenChk RB3LYP/6-31G(2df,p) Fr
 eq
 ----------------------------------------------------------------------

 Structure from the checkpoint file:  "CCC1CtCCdN1.chk"
 -------------------
 Title Card Required
 -------------------
 Charge =  0 Multiplicity = 1

                         Standard orientation:
 ---------------------------------------------------------------------
 Center     Atomic      Atomic             Coordinates (Angstroms)
 Number     Number       Type             X           Y           Z
 ---------------------------------------------------------------------
      1          6           0        2.466211    0.196137    0.015244
      2          6           0        1.196316   -0.581969   -0.365236
      3          6           0        0.015058   -0.100559    0.445129
      4          6           0       -1.618839   -0.427380   -0.115535
      5          6           0       -1.418892   -1.667167    0.103030
      6          6           0       -1.583879    0.996064   -0.228989
      7          7           0       -0.393173    1.292752    0.173940
      8          1           0        3.310868   -0.150986   -0.586185
      9          1           0        2.723693    0.047443    1.069110
     10          1           0        2.338077    1.267876   -0.154444
     11          1           0        1.332787   -1.651913   -0.193443
     12          1           0        0.971693   -0.447191   -1.428320
     13          1           0        0.086521   -0.295869    1.515305
     14          1           0       -2.347271    1.690629   -0.561463
 ---------------------------------------------------------------------

 SCF Done:  E(RB3LYP) =  -287.423363111     A.U. after    1 cycles

 The electronic state is 1-A.
 Alpha  occ. eigenvalues --  -14.35809 -10.27948 -10.26923 -10.21064 -10.20746
 Alpha  occ. eigenvalues --  -10.20310 -10.18723  -0.99165  -0.80182  -0.77390
 Alpha  occ. eigenvalues --   -0.69552  -0.63436  -0.59252  -0.54923  -0.49173
 Alpha  occ. eigenvalues --   -0.45245  -0.43797  -0.41216  -0.37819  -0.36542
 Alpha  occ. eigenvalues --   -0.34596  -0.34071  -0.29575  -0.27683  -0.27054
 Alpha virt. eigenvalues --   -0.05444  -0.03082   0.04488   0.07880   0.11137
 Alpha virt. eigenvalues --    0.12449   0.12687   0.14086   0.14727   0.16735
 Alpha virt. eigenvalues --    0.17172   0.19517   0.21488   0.24276   0.28132

 Mulliken charges:
               1
     1  C   -0.392543
     2  C   -0.172492
     3  C    0.063327
     4  C    0.124694
     5  C   -0.303169
     6  C   -0.082266
     7  N   -0.185588
     8  H    0.125047
     9  H    0.122128
    10  H    0.145406
    11  H    0.137394
    12  H    0.119449
    13  H    0.150090
    14  H    0.148523
 Sum of Mulliken charges =   0.00000

 Dipole moment (field-independent basis, Debye):
    X=              0.5633    Y=              1.6487    Z=             -0.3699  Tot=              1.7811
 Quadrupole moment (field-independent basis, Debye-Ang):
   XX=            -37.7721   YY=            -49.5579   ZZ=            -40.6197
   XY=             -6.4460   XZ=              1.3753   YZ=             -0.6587

  Exact polarizability:  77.770   3.214  72.450   4.160  -1.822  47.100
 Approx polarizability: 117.929  17.962 143.491  11.649  -1.992  75.235

                      1                      2                      3
                      A                      A                      A
 Frequencies --     98.0319               110.3782               179.7798
 Red. masses --      6.1732                 2.6372                 2.2240
 Frc consts  --      0.0350                 0.0189                 0.0424
 IR Inten    --      3.5858                 0.6212                 6.8348

                      4                      5                      6
                      A                      A                      A
 Frequencies --    203.7850               229.7281               319.0857
 Red. masses --      3.7075                 1.5415                 3.8114
 Frc consts  --      0.0907                 0.0479                 0.2286
 IR Inten    --      1.4176                 4.9395                 6.0719

                      7                      8                      9
                      A                      A                      A
 Frequencies --    383.6962               590.3955               600.2074
 Red. masses --      3.4725                 3.3618                 6.8583
 Frc consts  --      0.3012                 0.6904                 1.4557
 IR Inten    --     11.6845                10.4929                64.3135

                     10                     11                     12
                      A                      A                      A
 Frequencies --    740.0088               815.8770               897.0714
 Red. masses --      2.2921                 1.6616                 2.6110
 Frc consts  --      0.7395                 0.6517                 1.2380
 IR Inten    --      3.4732                 5.7607                12.4825

                     13                     14                     15
                      A                      A                      A
 Frequencies --    944.0593               952.5717               986.4141
 Red. masses --      1.3747                 2.2417                 2.5186
 Frc consts  --      0.7219                 1.1984                 1.4439
 IR Inten    --      4.5441                26.2371                15.8287

                     16                     17                     18
                      A                      A                      A
 Frequencies --   1033.4557              1112.1544              1121.3031
 Red. masses --      2.1180                 1.6554                 1.5666
 Frc consts  --      1.3328                 1.2064                 1.1605
 IR Inten    --      3.8760                 2.1947                13.5279

                     19                     20                     21
                      A                      A                      A
 Frequencies --   1165.4988              1266.4047              1300.3210
 Red. masses --      1.8570                 1.2816                 1.5137
 Frc consts  --      1.4862                 1.2110                 1.5079
 IR Inten    --      2.0146                 8.0264                12.5908

                     22                     23                     24
                      A                      A                      A
 Frequencies --   1320.1630              1362.0488              1408.4808
 Red. masses --      1.2471                 1.4594                 1.2131
 Frc consts  --      1.2806                 1.5952                 1.4179
 IR Inten    --      9.6632                 2.5718                 2.7519

                     25                     26                     27
                      A                      A                      A
 Frequencies --   1484.4601              1495.6358              1509.1627
 Red. masses --      1.0705                 1.0397                 1.0686
 Frc consts  --      1.3899                 1.3703                 1.4340
 IR Inten    --      1.6460                 6.1592                 5.2514

                     28                     29                     30
                      A                      A                      A
 Frequencies --   1605.4555              1954.8889              3043.0329
 Red. masses --      6.9097                11.4683                 1.0365
 Frc consts  --     10.4931                25.8222                 5.6550
 IR Inten    --     17.6780               106.7970                20.6240

                     31                     32                     33
                      A                      A                      A
 Frequencies --   3059.3985              3104.0720              3113.7362
 Red. masses --      1.0627                 1.0975                 1.1005
 Frc consts  --      5.8604                 6.2305                 6.2863
 IR Inten    --      7.1600                 5.6865                15.0761

                     34                     35                     36
                      A                      A                      A
 Frequencies --   3128.7959              3134.8676              3202.7452
 Red. masses --      1.0922                 1.0989                 1.0978
 Frc consts  --      6.2994                 6.3627                 6.6347
 IR Inten    --      8.9654                15.6119                13.1792

 - Thermochemistry -
 -------------------
 Temperature   298.150 Kelvin.  Pressure   1.00000 Atm.
 Atom     1 has atomic number  6 and mass  12.00000

 Molecular mass:    93.05785 amu.
 Principal axes and moments of inertia in atomic units:
                           1         2         3
     Eigenvalues --   337.49271 790.324911045.22525
           X            0.99951  -0.03124   0.00206
           Y            0.03126   0.99949  -0.00703
           Z           -0.00184   0.00709   0.99997
 This molecule is an asymmetric top.
 Rotational symmetry number  1.
 Rotational temperatures (Kelvin)      0.25664     0.10959     0.08287
 Rotational constants (GHZ):           5.34750     2.28354     1.72665
 Zero-point vibrational energy     292948.5 (Joules/Mol)
                                   70.01638 (Kcal/Mol)
 Warning -- explicit consideration of   9 degrees of freedom as
           vibrations may cause significant error
 Vibrational temperatures:    141.05   158.81   258.66   293.20   330.53
          (Kelvin)            459.09   552.05   849.45   863.56  1064.71
                             1173.87  1290.69  1358.29  1370.54  1419.23
                             1486.91  1600.14  1613.31  1676.89  1822.07
                             1870.87  1899.42  1959.68  2026.49  2135.81
                             2151.89  2171.35  2309.89  2812.65  4378.25
                             4401.79  4466.07  4479.97  4501.64  4510.38
                             4608.04

 Zero-point correction=                           0.111578 (Hartree/Particle)
 Thermal correction to Energy=                    0.119097
 Thermal correction to Enthalpy=                  0.120042
 Thermal correction to Gibbs Free Energy=         0.079993
 Sum of electronic and zero-point Energies=           -287.311785
 Sum of electronic and thermal Energies=              -287.304266
 Sum of electronic and thermal Enthalpies=            -287.303322
 Sum of electronic and thermal Free Energies=         -287.343370

                     E (Thermal)             CV                S
                      KCal/Mol        Cal/Mol-Kelvin    Cal/Mol-Kelvin
 Total                   74.735             25.798             84.289
 Electronic               0.000              0.000              0.000
 Translational            0.889              2.981             39.504
 Rotational               0.889              2.981             27.124
 Vibrational             72.957             19.837             17.661
 Vibration     1          0.603              1.951              3.493
 Vibration     2          0.606              1.941              3.262
 Vibration     3          0.629              1.867              2.331
 Vibration     4          0.639              1.835              2.099
 Vibration     5          0.652              1.796              1.881
 Vibration     6          0.705              1.637              1.315
 Vibration     7          0.753              1.505              1.025
 Vibration     8          0.948              1.052              0.466
 Vibration     9          0.958              1.031              0.449

                           ! Non-Optimized Parameters !
 Normal termination of Gaussian 16 at Mon May 31 17:16:37 2021.
