 Gaussian 16, Revision A.03,
 Gaussian 16:  ES64L-G16RevA.03 25-Dec-2016

 -----------------------------
 # opt freq b3lyp/6-31g(2df,p)
 -----------------------------

 -------------------
 Title Card Required
 -------------------
 Symbolic Z-matrix:
 Charge =  0 Multiplicity = 1

 SCF Done:  E(RB3LYP) =  -496.541039641     A.U. after   13 cycles
 SCF Done:  E(RB3LYP) =  -496.551544458     A.U. after   12 cycles
 SCF Done:  E(RB3LYP) =  -496.555796787     A.U. after   11 cycles
 SCF Done:  E(RB3LYP) =  -496.558493404     A.U. after   11 cycles
 SCF Done:  E(RB3LYP) =  -496.560389506     A.U. after   11 cycles
 SCF Done:  E(RB3LYP) =  -496.561894944     A.U. after   11 cycles
 SCF Done:  E(RB3LYP) =  -496.563325178     A.U. after   11 cycles
 SCF Done:  E(RB3LYP) =  -496.565153504     A.U. after   11 cycles
 SCF Done:  E(RB3LYP) =  -496.566636621     A.U. after   12 cycles
 SCF Done:  E(RB3LYP) =  -496.568499270     A.U. after   12 cycles
 SCF Done:  E(RB3LYP) =  -496.575899971     A.U. after   10 cycles
 SCF Done:  E(RB3LYP) =  -496.575903364     A.U. after   10 cycles
 SCF Done:  E(RB3LYP) =  -496.575937158     A.U. after   10 cycles
 SCF Done:  E(RB3LYP) =  -496.575939563     A.U. after    9 cycles
 SCF Done:  E(RB3LYP) =  -496.575940019     A.U. after    7 cycles
 SCF Done:  E(RB3LYP) =  -496.575940099     A.U. after    7 cycles
 SCF Done:  E(RB3LYP) =  -496.575940129     A.U. after    6 cycles
 SCF Done:  E(RB3LYP) =  -496.575940143     A.U. after    6 cycles
 SCF Done:  E(RB3LYP) =  -496.575940146     A.U. after    6 cycles
 Optimization completed.
    -- Stationary point found.
 Normal termination of Gaussian 16 at Mon May 31 16:26:10 2021.

 ----------------------------------------------------------------------
 #N Geom=AllCheck Guess=TCheck SCRF=Check GenChk RB3LYP/6-31G(2df,p) Fr
 eq
 ----------------------------------------------------------------------

 Structure from the checkpoint file:  "CCCCCCpNpdNNNC.chk"
 -------------------
 Title Card Required
 -------------------
 Charge =  0 Multiplicity = 1

                         Standard orientation:
 ---------------------------------------------------------------------
 Center     Atomic      Atomic             Coordinates (Angstroms)
 Number     Number       Type             X           Y           Z
 ---------------------------------------------------------------------
      1          6           0       -5.339332   -0.762116    0.059826
      2          6           0       -3.958057   -0.578077   -0.574478
      3          6           0       -2.915230   -0.025890    0.403286
      4          6           0       -1.529248    0.156994   -0.223217
      5          6           0       -0.491940    0.706768    0.773850
      6          6           0        0.882730    0.871616    0.181777
      7          7           0        1.065508    1.886760   -0.743810
      8          7           0        1.831996    0.105488    0.584644
      9          7           0        3.079430    0.365359   -0.064774
     10          7           0        4.061588   -0.581147    0.328873
     11          6           0        3.929220   -1.797260   -0.469520
     12          1           0       -6.061471   -1.156951   -0.661582
     13          1           0       -5.731821    0.188749    0.437371
     14          1           0       -5.297243   -1.459156    0.904146
     15          1           0       -4.037781    0.096235   -1.437717
     16          1           0       -3.606130   -1.538677   -0.973122
     17          1           0       -2.834911   -0.699310    1.267745
     18          1           0       -3.264833    0.936620    0.802850
     19          1           0       -1.613855    0.826058   -1.090930
     20          1           0       -1.169352   -0.803101   -0.613742
     21          1           0       -0.397819    0.026469    1.623668
     22          1           0       -0.837844    1.673751    1.164136
     23          1           0        0.231062    2.216980   -1.204526
     24          1           0        1.838358    1.709270   -1.375909
     25          1           0        3.417633    1.274444    0.251700
     26          1           0        3.885664   -0.819970    1.306382
     27          1           0        4.159457   -1.565356   -1.513303
     28          1           0        2.925038   -2.243915   -0.424031
     29          1           0        4.657336   -2.529564   -0.106811
 ---------------------------------------------------------------------

 SCF Done:  E(RB3LYP) =  -496.575940146     A.U. after    1 cycles

 The electronic state is 1-A.
 Alpha  occ. eigenvalues --  -14.35711 -14.33755 -14.32522 -14.31365 -10.23753
 Alpha  occ. eigenvalues --  -10.18673 -10.18651 -10.18427 -10.18124 -10.18102
 Alpha  occ. eigenvalues --  -10.17379  -0.99655  -0.92500  -0.84755  -0.80687
 Alpha  occ. eigenvalues --   -0.76756  -0.73754  -0.68616  -0.62948  -0.60889
 Alpha  occ. eigenvalues --   -0.57958  -0.55626  -0.52545  -0.50987  -0.49584
 Alpha  occ. eigenvalues --   -0.47610  -0.44248  -0.43075  -0.42817  -0.41560
 Alpha  occ. eigenvalues --   -0.39586  -0.38718  -0.37976  -0.37288  -0.36442
 Alpha  occ. eigenvalues --   -0.34837  -0.33936  -0.33164  -0.32510  -0.31998
 Alpha  occ. eigenvalues --   -0.29661  -0.25826  -0.22589  -0.19900
 Alpha virt. eigenvalues --    0.03901   0.06904   0.09147   0.10734   0.11695
 Alpha virt. eigenvalues --    0.12408   0.12708   0.13911   0.14835   0.15467
 Alpha virt. eigenvalues --    0.16084   0.16644   0.17272   0.17849   0.18028

 Mulliken charges:
               1
     1  C   -0.379368
     2  C   -0.167275
     3  C   -0.155739
     4  C   -0.182864
     5  C   -0.282333
     6  C    0.370988
     7  N   -0.554368
     8  N   -0.281232
     9  N   -0.281328
    10  N   -0.244301
    11  C   -0.278088
    12  H    0.111852
    13  H    0.113236
    14  H    0.115024
    15  H    0.092508
    16  H    0.097097
    17  H    0.097581
    18  H    0.091326
    19  H    0.083441
    20  H    0.110492
    21  H    0.124528
    22  H    0.105213
    23  H    0.246172
    24  H    0.257551
    25  H    0.239571
    26  H    0.212867
    27  H    0.119220
    28  H    0.108647
    29  H    0.109581
 Sum of Mulliken charges =   0.00000

 Dipole moment (field-independent basis, Debye):
    X=             -2.1450    Y=              0.9499    Z=             -0.8535  Tot=              2.4964
 Quadrupole moment (field-independent basis, Debye-Ang):
   XX=            -75.5523   YY=            -66.3942   ZZ=            -67.6879
   XY=             -0.7272   XZ=              0.5645   YZ=             -2.2972

  Exact polarizability: 144.477  -9.788 100.568   1.282  -4.495  90.030
 Approx polarizability: 166.798 -16.513 150.468   4.075 -11.770 137.172

                      1                      2                      3
                      A                      A                      A
 Frequencies --     25.0792                43.0400                57.2040
 Red. masses --      3.1419                 1.9451                 3.3925
 Frc consts  --      0.0012                 0.0021                 0.0065
 IR Inten    --      0.0916                 0.1219                 2.7519

                      4                      5                      6
                      A                      A                      A
 Frequencies --     74.8705               102.6205               119.1846
 Red. masses --      2.7368                 3.1571                 2.1092
 Frc consts  --      0.0090                 0.0196                 0.0177
 IR Inten    --      0.5568                 0.4731                 0.8289

                      7                      8                      9
                      A                      A                      A
 Frequencies --    134.1971               185.9288               202.7714
 Red. masses --      1.9593                 1.7368                 2.6980
 Frc consts  --      0.0208                 0.0354                 0.0654
 IR Inten    --      0.1625                 2.2910                 1.0449

                     10                     11                     12
                      A                      A                      A
 Frequencies --    247.4059               248.9801               267.8344
 Red. masses --      1.1793                 1.5961                 4.7983
 Frc consts  --      0.0425                 0.0583                 0.2028
 IR Inten    --      0.1415                 0.5492                 3.9608

                     13                     14                     15
                      A                      A                      A
 Frequencies --    351.5337               359.0178               408.0614
 Red. masses --      3.1426                 2.5965                 2.3050
 Frc consts  --      0.2288                 0.1972                 0.2261
 IR Inten    --      6.7463                 1.2855                17.7014

                     16                     17                     18
                      A                      A                      A
 Frequencies --    468.6372               486.6195               520.2918
 Red. masses --      2.8395                 1.4778                 1.9182
 Frc consts  --      0.3674                 0.2062                 0.3059
 IR Inten    --     18.2159                10.8486                45.3915

                     19                     20                     21
                      A                      A                      A
 Frequencies --    599.1066               646.4811               725.1562
 Red. masses --      2.9892                 1.5354                 2.5347
 Frc consts  --      0.6321                 0.3781                 0.7853
 IR Inten    --     42.3881               119.5512                16.4484

                     22                     23                     24
                      A                      A                      A
 Frequencies --    733.6819               762.7374               809.5895
 Red. masses --      1.1502                 1.2081                 2.2649
 Frc consts  --      0.3648                 0.4141                 0.8746
 IR Inten    --     13.2691                 3.9744                95.7830

                     25                     26                     27
                      A                      A                      A
 Frequencies --    851.0361               874.7232               896.3811
 Red. masses --      1.2760                 2.9323                 2.0291
 Frc consts  --      0.5445                 1.3219                 0.9606
 IR Inten    --      2.0763                11.8366                13.9775

                     28                     29                     30
                      A                      A                      A
 Frequencies --    932.3258               972.6753              1004.8591
 Red. masses --      2.1023                 1.2409                 1.7355
 Frc consts  --      1.0767                 0.6917                 1.0325
 IR Inten    --      2.3528                 2.4913                 5.1973

                     31                     32                     33
                      A                      A                      A
 Frequencies --   1009.4553              1038.6157              1060.1125
 Red. masses --      3.2042                 2.9694                 2.6392
 Frc consts  --      1.9237                 1.8873                 1.7476
 IR Inten    --      1.4684                 3.5982                23.1484

                     34                     35                     36
                      A                      A                      A
 Frequencies --   1068.6120              1096.1728              1128.1969
 Red. masses --      2.3314                 1.3739                 2.2654
 Frc consts  --      1.5686                 0.9727                 1.6989
 IR Inten    --      0.2586                 1.5967                 2.7239

                     37                     38                     39
                      A                      A                      A
 Frequencies --   1155.2957              1178.6426              1193.3312
 Red. masses --      1.6868                 1.7333                 2.3998
 Frc consts  --      1.3265                 1.4187                 2.0135
 IR Inten    --      3.0165                 4.1307                15.4018

                     40                     41                     42
                      A                      A                      A
 Frequencies --   1227.9618              1235.7645              1261.6331
 Red. masses --      1.6252                 1.6311                 1.2991
 Frc consts  --      1.4439                 1.4676                 1.2183
 IR Inten    --      8.1059                13.8250                 3.4562

                     43                     44                     45
                      A                      A                      A
 Frequencies --   1292.4013              1327.5545              1329.6982
 Red. masses --      1.2647                 1.2401                 1.1852
 Frc consts  --      1.2446                 1.2876                 1.2347
 IR Inten    --      2.0493                 2.9217                 0.8298

                     46                     47                     48
                      A                      A                      A
 Frequencies --   1332.7720              1372.8097              1394.4325
 Red. masses --      1.1093                 1.7033                 2.3856
 Frc consts  --      1.1609                 1.8913                 2.7330
 IR Inten    --      0.6199                19.7701                28.6904

                     49                     50                     51
                      A                      A                      A
 Frequencies --   1399.4928              1413.7404              1440.7149
 Red. masses --      1.6010                 1.2419                 1.1812
 Frc consts  --      1.8475                 1.4624                 1.4446
 IR Inten    --      0.4936                 0.7193                 0.9148

                     52                     53                     54
                      A                      A                      A
 Frequencies --   1460.1970              1474.7978              1479.1546
 Red. masses --      1.1422                 1.0866                 1.0514
 Frc consts  --      1.4349                 1.3925                 1.3553
 IR Inten    --      2.3170                 2.7744                 7.2291

                     55                     56                     57
                      A                      A                      A
 Frequencies --   1483.2572              1489.4946              1500.0444
 Red. masses --      1.0710                 1.0720                 1.0402
 Frc consts  --      1.3882                 1.4013                 1.3790
 IR Inten    --      0.3289                 1.0489                 5.1039

                     58                     59                     60
                      A                      A                      A
 Frequencies --   1502.3273              1507.5338              1513.3683
 Red. masses --      1.0797                 1.1158                 1.0912
 Frc consts  --      1.4357                 1.4940                 1.4724
 IR Inten    --      0.5043                 3.8417                 3.4786

                     61                     62                     63
                      A                      A                      A
 Frequencies --   1528.2481              1625.1699              1715.4859
 Red. masses --      1.0902                 1.1905                 6.6906
 Frc consts  --      1.5001                 1.8526                11.6008
 IR Inten    --      1.8275                65.8328               171.3159

                     64                     65                     66
                      A                      A                      A
 Frequencies --   2995.3328              3002.2020              3006.7591
 Red. masses --      1.0461                 1.0582                 1.0622
 Frc consts  --      5.5297                 5.6193                 5.6580
 IR Inten    --     45.0637                 2.4204                 7.9307

                     67                     68                     69
                      A                      A                      A
 Frequencies --   3015.6171              3018.4809              3028.1590
 Red. masses --      1.0629                 1.0716                 1.0767
 Frc consts  --      5.6950                 5.7523                 5.8172
 IR Inten    --     40.3491                35.2401                 6.6631

                     70                     71                     72
                      A                      A                      A
 Frequencies --   3029.4510              3045.9515              3063.0148
 Red. masses --      1.0509                 1.0984                 1.1016
 Frc consts  --      5.6825                 6.0041                 6.0892
 IR Inten    --     45.4410                 5.1124                54.3577

                     73                     74                     75
                      A                      A                      A
 Frequencies --   3076.3861              3095.3793              3101.4158
 Red. masses --      1.0868                 1.1020                 1.1010
 Frc consts  --      6.0602                 6.2212                 6.2395
 IR Inten    --     45.5394                52.4850                37.1137

                     76                     77                     78
                      A                      A                      A
 Frequencies --   3107.0272              3113.1751              3415.8737
 Red. masses --      1.0950                 1.1028                 1.0727
 Frc consts  --      6.2279                 6.2973                 7.3742
 IR Inten    --     19.7375                25.1140                18.2090

                     79                     80                     81
                      A                      A                      A
 Frequencies --   3428.8031              3523.3837              3654.7477
 Red. masses --      1.0744                 1.0493                 1.0952
 Frc consts  --      7.4423                 7.6748                 8.6188
 IR Inten    --      0.3797                17.3546                25.2854

 - Thermochemistry -
 -------------------
 Temperature   298.150 Kelvin.  Pressure   1.00000 Atm.
 Atom     1 has atomic number  6 and mass  12.00000

 Molecular mass:   158.15315 amu.
 Principal axes and moments of inertia in atomic units:
                           1         2         3
     Eigenvalues --   743.521075585.528705965.65451
           X            0.99999  -0.00275  -0.00278
           Y            0.00275   0.99999   0.00195
           Z            0.00278  -0.00196   0.99999
 This molecule is an asymmetric top.
 Rotational symmetry number  1.
 Warning -- assumption of classical behavior for rotation
           may cause significant error
 Rotational temperatures (Kelvin)      0.11649     0.01551     0.01452
 Rotational constants (GHZ):           2.42729     0.32311     0.30252
 Zero-point vibrational energy     688269.5 (Joules/Mol)
                                  164.50037 (Kcal/Mol)
 Warning -- explicit consideration of  19 degrees of freedom as
           vibrations may cause significant error
 Vibrational temperatures:     36.08    61.92    82.30   107.72   147.65
          (Kelvin)            171.48   193.08   267.51   291.74   355.96
                              358.23   385.35   505.78   516.55   587.11
                              674.26   700.14   748.58   861.98   930.14
                             1043.34  1055.60  1097.41  1164.82  1224.45
                             1258.53  1289.69  1341.41  1399.46  1445.77
                             1452.38  1494.34  1525.27  1537.49  1577.15
                             1623.22  1662.21  1695.80  1716.94  1766.76
                             1777.99  1815.21  1859.48  1910.05  1913.14
                             1917.56  1975.17  2006.28  2013.56  2034.06
                             2072.87  2100.90  2121.91  2128.17  2134.08
                             2143.05  2158.23  2161.51  2169.00  2177.40
                             2198.81  2338.26  2468.20  4309.62  4319.50
                             4326.06  4338.80  4342.92  4356.85  4358.70
                             4382.44  4407.00  4426.23  4453.56  4462.25
                             4470.32  4479.16  4914.68  4933.28  5069.36
                             5258.37

 Zero-point correction=                           0.262148 (Hartree/Particle)
 Thermal correction to Energy=                    0.276078
 Thermal correction to Enthalpy=                  0.277022
 Thermal correction to Gibbs Free Energy=         0.219878
 Sum of electronic and zero-point Energies=           -496.313792
 Sum of electronic and thermal Energies=              -496.299862
 Sum of electronic and thermal Enthalpies=            -496.298918
 Sum of electronic and thermal Free Energies=         -496.356062

                     E (Thermal)             CV                S
                      KCal/Mol        Cal/Mol-Kelvin    Cal/Mol-Kelvin
 Total                  173.242             49.724            120.271
 Electronic               0.000              0.000              0.000
 Translational            0.889              2.981             41.084
 Rotational               0.889              2.981             31.583
 Vibrational            171.464             43.762             47.604
 Vibration     1          0.593              1.985              6.185
 Vibration     2          0.595              1.980              5.114
 Vibration     3          0.596              1.975              4.551
 Vibration     4          0.599              1.966              4.021
 Vibration     5          0.605              1.947              3.404
 Vibration     6          0.609              1.933              3.114
 Vibration     7          0.613              1.919              2.885
 Vibration     8          0.632              1.859              2.268
 Vibration     9          0.639              1.836              2.108
 Vibration    10          0.661              1.767              1.749
 Vibration    11          0.662              1.764              1.738
 Vibration    12          0.673              1.732              1.610
 Vibration    13          0.728              1.572              1.159
 Vibration    14          0.734              1.557              1.126
 Vibration    15          0.773              1.453              0.933
 Vibration    16          0.826              1.320              0.741
 Vibration    17          0.843              1.280              0.692
 Vibration    18          0.875              1.205              0.609
 Vibration    19          0.957              1.034              0.451

 Optimization completed.
    -- Stationary point found.
 Normal termination of Gaussian 16 at Mon May 31 17:18:10 2021.
