 Gaussian 16, Revision A.03,
 Gaussian 16:  ES64L-G16RevA.03 25-Dec-2016

 -----------------------------
 # opt freq b3lyp/6-31g(2df,p)
 -----------------------------

 -------------------
 Title Card Required
 -------------------
 Symbolic Z-matrix:
 Charge =  0 Multiplicity = 1

 SCF Done:  E(RB3LYP) =  -387.079930859     A.U. after   12 cycles
 SCF Done:  E(RB3LYP) =  -387.084984561     A.U. after   10 cycles
 SCF Done:  E(RB3LYP) =  -387.086017395     A.U. after   10 cycles
 SCF Done:  E(RB3LYP) =  -387.086091444     A.U. after    9 cycles
 SCF Done:  E(RB3LYP) =  -387.086102318     A.U. after    8 cycles
 SCF Done:  E(RB3LYP) =  -387.086104413     A.U. after    8 cycles
 SCF Done:  E(RB3LYP) =  -387.086104856     A.U. after    7 cycles
 SCF Done:  E(RB3LYP) =  -387.086104938     A.U. after    6 cycles
 Optimization completed.
    -- Stationary point found.
 Normal termination of Gaussian 16 at Tue Jun  1 11:47:47 2021.

 ----------------------------------------------------------------------
 #N Geom=AllCheck Guess=TCheck SCRF=Check GenChk RB3LYP/6-31G(2df,p) Fr
 eq
 ----------------------------------------------------------------------

 Structure from the checkpoint file:  "CCCCCCNpCpN.chk"
 -------------------
 Title Card Required
 -------------------
 Charge =  0 Multiplicity = 1

                         Standard orientation:
 ---------------------------------------------------------------------
 Center     Atomic      Atomic             Coordinates (Angstroms)
 Number     Number       Type             X           Y           Z
 ---------------------------------------------------------------------
      1          6           0       -4.808850    0.321679   -0.123549
      2          6           0       -3.537732   -0.462340    0.213679
      3          6           0       -2.251689    0.285803   -0.153547
      4          6           0       -0.974719   -0.492008    0.181625
      5          6           0        0.308777    0.257898   -0.193912
      6          6           0        1.571706   -0.527177    0.170955
      7          7           0        2.807571    0.056433   -0.351492
      8          6           0        3.129020    1.349488    0.232021
      9          7           0        3.932492   -0.804633   -0.154342
     10          1           0       -5.709169   -0.237667    0.149596
     11          1           0       -4.865872    0.541110   -1.195622
     12          1           0       -4.837024    1.278544    0.409733
     13          1           0       -3.554502   -1.429275   -0.306682
     14          1           0       -3.525477   -0.697314    1.286394
     15          1           0       -2.234712    1.254099    0.366203
     16          1           0       -2.262602    0.520955   -1.227067
     17          1           0       -0.994587   -1.461709   -0.335063
     18          1           0       -0.962689   -0.722508    1.256160
     19          1           0        0.310621    1.233046    0.307551
     20          1           0        0.323963    0.459822   -1.272142
     21          1           0        1.494405   -1.535270   -0.255213
     22          1           0        1.628039   -0.654736    1.273324
     23          1           0        2.352473    2.077429   -0.015578
     24          1           0        4.078423    1.691592   -0.182609
     25          1           0        3.225789    1.311451    1.334973
     26          1           0        3.833872   -1.579572   -0.804873
     27          1           0        3.899538   -1.212654    0.788128
 ---------------------------------------------------------------------

 SCF Done:  E(RB3LYP) =  -387.086104938     A.U. after    1 cycles

 The electronic state is 1-A.
 Alpha  occ. eigenvalues --  -14.33731 -14.32867 -10.20078 -10.19005 -10.17821
 Alpha  occ. eigenvalues --  -10.17724 -10.17720 -10.17576 -10.17087  -0.96212
 Alpha  occ. eigenvalues --   -0.80931  -0.78765  -0.75419  -0.70664  -0.65645
 Alpha  occ. eigenvalues --   -0.60554  -0.57474  -0.57323  -0.49559  -0.48365
 Alpha  occ. eigenvalues --   -0.47524  -0.44707  -0.43968  -0.41707  -0.40882
 Alpha  occ. eigenvalues --   -0.39866  -0.38736  -0.37274  -0.36597  -0.35262
 Alpha  occ. eigenvalues --   -0.34103  -0.32682  -0.32435  -0.31973  -0.31720
 Alpha  occ. eigenvalues --   -0.24712  -0.21403
 Alpha virt. eigenvalues --    0.07990   0.08976   0.10534   0.11229   0.12334
 Alpha virt. eigenvalues --    0.12849   0.14176   0.15059   0.15840   0.16766
 Alpha virt. eigenvalues --    0.17358   0.17665   0.17838   0.19041   0.19418

 Mulliken charges:
               1
     1  C   -0.379385
     2  C   -0.163729
     3  C   -0.158907
     4  C   -0.178306
     5  C   -0.202762
     6  C   -0.113981
     7  N   -0.068121
     8  C   -0.289881
     9  N   -0.465327
    10  H    0.110304
    11  H    0.113279
    12  H    0.112928
    13  H    0.093385
    14  H    0.093145
    15  H    0.091000
    16  H    0.092369
    17  H    0.092267
    18  H    0.092953
    19  H    0.098328
    20  H    0.105808
    21  H    0.088184
    22  H    0.064835
    23  H    0.117344
    24  H    0.130315
    25  H    0.081527
    26  H    0.236509
    27  H    0.205918
 Sum of Mulliken charges =  -0.00000

 Dipole moment (field-independent basis, Debye):
    X=             -1.1416    Y=             -0.7974    Z=              0.7474  Tot=              1.5804
 Quadrupole moment (field-independent basis, Debye-Ang):
   XX=            -67.4229   YY=            -56.3824   ZZ=            -59.4933
   XY=             -2.5979   XZ=              2.5980   YZ=              0.8142

  Exact polarizability: 117.508  -1.817  88.301   0.870   0.094  80.562
 Approx polarizability: 129.017  -2.414 128.393   0.185   0.704 126.418

                      1                      2                      3
                      A                      A                      A
 Frequencies --     45.3958                49.6552                76.3054
 Red. masses --      2.4213                 2.1473                 3.4361
 Frc consts  --      0.0029                 0.0031                 0.0118
 IR Inten    --      0.0648                 0.3889                 0.3274

                      4                      5                      6
                      A                      A                      A
 Frequencies --    110.6274               128.4783               157.5122
 Red. masses --      2.1857                 1.8458                 1.9961
 Frc consts  --      0.0158                 0.0180                 0.0292
 IR Inten    --      0.3132                 0.0794                 0.1544

                      7                      8                      9
                      A                      A                      A
 Frequencies --    204.2445               242.0213               247.1430
 Red. masses --      3.0383                 1.9598                 1.1396
 Frc consts  --      0.0747                 0.0676                 0.0410
 IR Inten    --      1.3999                 1.5878                 0.0193

                     10                     11                     12
                      A                      A                      A
 Frequencies --    261.6206               308.1874               353.3647
 Red. masses --      1.5402                 1.1626                 2.9213
 Frc consts  --      0.0621                 0.0651                 0.2149
 IR Inten    --      1.8361                32.1437                 0.8683

                     13                     14                     15
                      A                      A                      A
 Frequencies --    389.9053               441.1069               501.7216
 Red. masses --      2.0472                 2.6239                 2.7136
 Frc consts  --      0.1834                 0.3008                 0.4025
 IR Inten    --      0.7487                 1.6506                 7.9805

                     16                     17                     18
                      A                      A                      A
 Frequencies --    515.5448               733.2363               751.2741
 Red. masses --      3.0075                 1.0646                 1.1018
 Frc consts  --      0.4710                 0.3372                 0.3664
 IR Inten    --      5.2451                 3.7108                 0.2207

                     19                     20                     21
                      A                      A                      A
 Frequencies --    806.3376               843.5015               898.2999
 Red. masses --      1.1710                 4.5325                 1.5856
 Frc consts  --      0.4486                 1.9000                 0.7539
 IR Inten    --      0.8597                26.2511                 1.2235

                     22                     23                     24
                      A                      A                      A
 Frequencies --    902.2346               961.6664              1006.5375
 Red. masses --      1.4131                 2.0108                 1.1663
 Frc consts  --      0.6777                 1.0956                 0.6962
 IR Inten    --      0.8736                59.6551                 0.3250

                     25                     26                     27
                      A                      A                      A
 Frequencies --   1008.1946              1042.0091              1054.2198
 Red. masses --      3.6068                 3.0399                 2.3768
 Frc consts  --      2.1600                 1.9447                 1.5564
 IR Inten    --      8.3436                 2.8046                15.5455

                     28                     29                     30
                      A                      A                      A
 Frequencies --   1070.3001              1072.5726              1128.2175
 Red. masses --      1.9997                 2.1347                 1.6393
 Frc consts  --      1.3497                 1.4469                 1.2294
 IR Inten    --     25.7964                10.7513                10.6836

                     31                     32                     33
                      A                      A                      A
 Frequencies --   1135.6354              1171.2400              1215.0177
 Red. masses --      1.6846                 1.5865                 2.0689
 Frc consts  --      1.2800                 1.2823                 1.7995
 IR Inten    --      0.9555                11.9759                 2.8119

                     34                     35                     36
                      A                      A                      A
 Frequencies --   1226.5673              1249.0851              1267.3105
 Red. masses --      1.7637                 1.8562                 1.4755
 Frc consts  --      1.5633                 1.7063                 1.3962
 IR Inten    --      2.0415                 2.1173                 7.6577

                     37                     38                     39
                      A                      A                      A
 Frequencies --   1290.3674              1315.1148              1325.6535
 Red. masses --      1.2910                 1.1257                 1.3024
 Frc consts  --      1.2665                 1.1471                 1.3485
 IR Inten    --      0.2785                 2.9556                 0.4709

                     40                     41                     42
                      A                      A                      A
 Frequencies --   1330.6191              1334.5018              1359.8096
 Red. masses --      1.0866                 1.1339                 1.3774
 Frc consts  --      1.1336                 1.1897                 1.5006
 IR Inten    --      1.4059                 0.6051                14.1373

                     43                     44                     45
                      A                      A                      A
 Frequencies --   1379.9714              1400.7227              1411.7191
 Red. masses --      1.4338                 1.6139                 1.4506
 Frc consts  --      1.6087                 1.8657                 1.7033
 IR Inten    --      3.4963                 1.3780                16.4444

                     46                     47                     48
                      A                      A                      A
 Frequencies --   1413.4391              1448.7228              1482.0111
 Red. masses --      1.2505                 1.1867                 1.0698
 Frc consts  --      1.4719                 1.4675                 1.3844
 IR Inten    --      0.5917                 1.7303                 3.0340

                     49                     50                     51
                      A                      A                      A
 Frequencies --   1484.0329              1485.8980              1491.4823
 Red. masses --      1.0688                 1.0663                 1.0638
 Frc consts  --      1.3869                 1.3871                 1.3942
 IR Inten    --      1.3302                 4.0803                 4.6468

                     52                     53                     54
                      A                      A                      A
 Frequencies --   1497.8273              1499.7993              1502.5529
 Red. masses --      1.0690                 1.0403                 1.0593
 Frc consts  --      1.4130                 1.3787                 1.4090
 IR Inten    --      1.0045                 4.9644                 3.2825

                     55                     56                     57
                      A                      A                      A
 Frequencies --   1509.0207              1516.1316              1666.7819
 Red. masses --      1.0874                 1.0969                 1.0836
 Frc consts  --      1.4590                 1.4855                 1.7737
 IR Inten    --      1.2186                 3.2436                15.8201

                     58                     59                     60
                      A                      A                      A
 Frequencies --   2876.9260              2917.7952              2999.9331
 Red. masses --      1.0720                 1.0620                 1.0575
 Frc consts  --      5.2278                 5.3271                 5.6074
 IR Inten    --     57.1299                86.3347                 0.1104

                     61                     62                     63
                      A                      A                      A
 Frequencies --   3004.0953              3015.1828              3021.8197
 Red. masses --      1.0583                 1.0597                 1.0985
 Frc consts  --      5.6272                 5.6760                 5.9102
 IR Inten    --      8.3341                49.3820                 0.1488

                     64                     65                     66
                      A                      A                      A
 Frequencies --   3026.2840              3028.3527              3034.3071
 Red. masses --      1.0611                 1.0377                 1.0936
 Frc consts  --      5.7256                 5.6070                 5.9321
 IR Inten    --     15.9286                43.1181                17.6461

                     67                     68                     69
                      A                      A                      A
 Frequencies --   3036.1937              3054.7389              3074.3650
 Red. masses --      1.0891                 1.1045                 1.1025
 Frc consts  --      5.9153                 6.0722                 6.1399
 IR Inten    --     26.9126                23.6399                75.2006

                     70                     71                     72
                      A                      A                      A
 Frequencies --   3087.2409              3094.4455              3099.9635
 Red. masses --      1.0710                 1.1020                 1.1010
 Frc consts  --      6.0144                 6.2174                 6.2336
 IR Inten    --     33.2905                61.3186                39.0325

                     73                     74                     75
                      A                      A                      A
 Frequencies --   3138.9832              3331.7766              3521.7739
 Red. masses --      1.1023                 1.0583                 1.0811
 Frc consts  --      6.3990                 6.9216                 7.9004
 IR Inten    --     20.6077                28.7465                 0.3868

 - Thermochemistry -
 -------------------
 Temperature   298.150 Kelvin.  Pressure   1.00000 Atm.
 Atom     1 has atomic number  6 and mass  12.00000

 Molecular mass:   130.14700 amu.
 Principal axes and moments of inertia in atomic units:
                           1         2         3
     Eigenvalues --   312.643874208.954704391.87702
           X            0.99999   0.00057   0.00470
           Y           -0.00055   1.00000  -0.00242
           Z           -0.00471   0.00242   0.99999
 This molecule is an asymmetric top.
 Rotational symmetry number  1.
 Rotational temperatures (Kelvin)      0.27704     0.02058     0.01972
 Rotational constants (GHZ):           5.77251     0.42879     0.41093
 Zero-point vibrational energy     658464.4 (Joules/Mol)
                                  157.37677 (Kcal/Mol)
 Warning -- explicit consideration of  16 degrees of freedom as
           vibrations may cause significant error
 Vibrational temperatures:     65.31    71.44   109.79   159.17   184.85
          (Kelvin)            226.62   293.86   348.21   355.58   376.41
                              443.41   508.41   560.99   634.65   721.87
                              741.75  1054.96  1080.92  1160.14  1213.61
                             1292.45  1298.11  1383.62  1448.18  1450.57
                             1499.22  1516.79  1539.92  1543.19  1623.25
                             1633.93  1685.15  1748.14  1764.76  1797.15
                             1823.38  1856.55  1892.16  1907.32  1914.46
                             1920.05  1956.46  1985.47  2015.33  2031.15
                             2033.62  2084.39  2132.28  2135.19  2137.88
                             2145.91  2155.04  2157.88  2161.84  2171.14
                             2181.38  2398.13  4139.25  4198.06  4316.23
                             4322.22  4338.18  4347.72  4354.15  4357.12
                             4365.69  4368.41  4395.09  4423.33  4441.85
                             4452.22  4460.16  4516.30  4793.68  5067.05

 Zero-point correction=                           0.250796 (Hartree/Particle)
 Thermal correction to Energy=                    0.262863
 Thermal correction to Enthalpy=                  0.263807
 Thermal correction to Gibbs Free Energy=         0.212217
 Sum of electronic and zero-point Energies=           -386.835309
 Sum of electronic and thermal Energies=              -386.823242
 Sum of electronic and thermal Enthalpies=            -386.822298
 Sum of electronic and thermal Free Energies=         -386.873888

                     E (Thermal)             CV                S
                      KCal/Mol        Cal/Mol-Kelvin    Cal/Mol-Kelvin
 Total                  164.949             42.982            108.580
 Electronic               0.000              0.000              0.000
 Translational            0.889              2.981             40.503
 Rotational               0.889              2.981             30.137
 Vibrational            163.171             37.020             37.940
 Vibration     1          0.595              1.979              5.009
 Vibration     2          0.595              1.978              4.831
 Vibration     3          0.599              1.965              3.984
 Vibration     4          0.606              1.941              3.258
 Vibration     5          0.611              1.925              2.969
 Vibration     6          0.621              1.894              2.579
 Vibration     7          0.640              1.834              2.095
 Vibration     8          0.658              1.776              1.788
 Vibration     9          0.661              1.768              1.751
 Vibration    10          0.669              1.743              1.651
 Vibration    11          0.698              1.658              1.372
 Vibration    12          0.730              1.568              1.151
 Vibration    13          0.758              1.492              1.001
 Vibration    14          0.801              1.381              0.823
 Vibration    15          0.857              1.246              0.654
 Vibration    16          0.871              1.216              0.620

 Optimization completed.
    -- Stationary point found.
 Normal termination of Gaussian 16 at Tue Jun  1 12:29:10 2021.
