 Gaussian 16, Revision A.03,
 Gaussian 16:  ES64L-G16RevA.03 25-Dec-2016

 -----------------------------
 # opt freq b3lyp/6-31g(2df,p)
 -----------------------------

 -------------------
 Title Card Required
 -------------------
 Symbolic Z-matrix:
 Charge =  0 Multiplicity = 1

 SCF Done:  E(RB3LYP) =  -426.382485057     A.U. after   12 cycles
 SCF Done:  E(RB3LYP) =  -426.389364010     A.U. after   10 cycles
 SCF Done:  E(RB3LYP) =  -426.390486638     A.U. after   11 cycles
 SCF Done:  E(RB3LYP) =  -426.390967912     A.U. after   10 cycles
 SCF Done:  E(RB3LYP) =  -426.391341351     A.U. after   11 cycles
 SCF Done:  E(RB3LYP) =  -426.392985037     A.U. after   13 cycles
 SCF Done:  E(RB3LYP) =  -426.392776458     A.U. after   11 cycles
 SCF Done:  E(RB3LYP) =  -426.386802668     A.U. after   11 cycles
 SCF Done:  E(RB3LYP) =  -426.386694513     A.U. after   10 cycles
 SCF Done:  E(RB3LYP) =  -426.393033154     A.U. after    8 cycles
 SCF Done:  E(RB3LYP) =  -426.395304162     A.U. after   10 cycles
 SCF Done:  E(RB3LYP) =  -426.396003903     A.U. after   10 cycles
 SCF Done:  E(RB3LYP) =  -426.396533708     A.U. after    9 cycles
 SCF Done:  E(RB3LYP) =  -426.396899030     A.U. after    9 cycles
 SCF Done:  E(RB3LYP) =  -426.397008795     A.U. after    9 cycles
 SCF Done:  E(RB3LYP) =  -426.397032564     A.U. after    9 cycles
 SCF Done:  E(RB3LYP) =  -426.397038836     A.U. after    8 cycles
 SCF Done:  E(RB3LYP) =  -426.397039908     A.U. after    8 cycles
 SCF Done:  E(RB3LYP) =  -426.397040060     A.U. after    7 cycles
 Optimization completed.
    -- Stationary point found.
 Normal termination of Gaussian 16 at Tue Jun  1 05:14:36 2021.

 ----------------------------------------------------------------------
 #N Geom=AllCheck Guess=TCheck SCRF=Check GenChk RB3LYP/6-31G(2df,p) Fr
 eq
 ----------------------------------------------------------------------

 Structure from the checkpoint file:  "CCCCCCNpCpNC.chk"
 -------------------
 Title Card Required
 -------------------
 Charge =  0 Multiplicity = 1

                         Standard orientation:
 ---------------------------------------------------------------------
 Center     Atomic      Atomic             Coordinates (Angstroms)
 Number     Number       Type             X           Y           Z
 ---------------------------------------------------------------------
      1          6           0       -5.220617   -0.010444   -0.311476
      2          6           0       -3.917255   -0.479887    0.340474
      3          6           0       -2.670502    0.178738   -0.259742
      4          6           0       -1.361582   -0.285057    0.388081
      5          6           0       -0.117097    0.372404   -0.219715
      6          6           0        1.177948   -0.091354    0.453722
      7          7           0        2.394190    0.389828   -0.205886
      8          6           0        2.599650    1.822610   -0.050472
      9          7           0        3.563994   -0.284467    0.257242
     10          6           0        3.784297   -1.538625   -0.448260
     11          1           0       -6.091778   -0.497699    0.137674
     12          1           0       -5.229983   -0.234856   -1.383999
     13          1           0       -5.351044    1.071958   -0.201063
     14          1           0       -3.831471   -1.570527    0.244678
     15          1           0       -3.951486   -0.273657    1.418617
     16          1           0       -2.756222    1.270416   -0.165092
     17          1           0       -2.634937   -0.027558   -1.338651
     18          1           0       -1.278729   -1.377108    0.296230
     19          1           0       -1.396958   -0.074692    1.466246
     20          1           0       -0.216337    1.461729   -0.141856
     21          1           0       -0.053593    0.140424   -1.289959
     22          1           0        1.207237   -1.186336    0.427873
     23          1           0        1.167331    0.202704    1.524366
     24          1           0        1.781794    2.373089   -0.523167
     25          1           0        3.536503    2.095991   -0.538124
     26          1           0        2.656707    2.135501    1.009715
     27          1           0        3.492511   -0.456261    1.263517
     28          1           0        3.972830   -1.323737   -1.503469
     29          1           0        2.949159   -2.257013   -0.392977
     30          1           0        4.672125   -2.020210   -0.025717
 ---------------------------------------------------------------------

 SCF Done:  E(RB3LYP) =  -426.397040060     A.U. after    1 cycles

 The electronic state is 1-A.
 Alpha  occ. eigenvalues --  -14.33558 -14.33035 -10.19958 -10.19342 -10.18914
 Alpha  occ. eigenvalues --  -10.17724 -10.17668 -10.17608 -10.17509 -10.17042
 Alpha  occ. eigenvalues --   -0.96664  -0.81955  -0.79710  -0.75835  -0.70636
 Alpha  occ. eigenvalues --   -0.66809  -0.64465  -0.59937  -0.57460  -0.57323
 Alpha  occ. eigenvalues --   -0.49821  -0.47894  -0.46238  -0.45366  -0.44226
 Alpha  occ. eigenvalues --   -0.42110  -0.41490  -0.39904  -0.39527  -0.38053
 Alpha  occ. eigenvalues --   -0.37904  -0.36932  -0.35863  -0.35076  -0.34054
 Alpha  occ. eigenvalues --   -0.32551  -0.32302  -0.31891  -0.31430  -0.22368
 Alpha  occ. eigenvalues --   -0.21676
 Alpha virt. eigenvalues --    0.08514   0.09107   0.10535   0.10638   0.12428
 Alpha virt. eigenvalues --    0.13219   0.13409   0.15075   0.15493   0.15934
 Alpha virt. eigenvalues --    0.16649   0.17305   0.17772   0.18132   0.18491

 Mulliken charges:
               1
     1  C   -0.379322
     2  C   -0.163696
     3  C   -0.158612
     4  C   -0.177991
     5  C   -0.200676
     6  C   -0.126428
     7  N   -0.066399
     8  C   -0.296147
     9  N   -0.257570
    10  C   -0.290510
    11  H    0.110138
    12  H    0.113160
    13  H    0.112813
    14  H    0.093322
    15  H    0.093026
    16  H    0.090829
    17  H    0.092170
    18  H    0.092127
    19  H    0.092528
    20  H    0.097218
    21  H    0.105007
    22  H    0.099186
    23  H    0.067071
    24  H    0.115376
    25  H    0.125995
    26  H    0.082976
    27  H    0.199043
    28  H    0.128987
    29  H    0.093786
    30  H    0.112596
 Sum of Mulliken charges =  -0.00000

 Dipole moment (field-independent basis, Debye):
    X=             -0.8056    Y=             -0.4722    Z=              0.8061  Tot=              1.2336
 Quadrupole moment (field-independent basis, Debye-Ang):
   XX=            -70.6232   YY=            -64.2861   ZZ=            -65.7213
   XY=             -2.2885   XZ=              1.9209   YZ=             -0.1013

  Exact polarizability: 130.515  -3.264 100.198   0.322  -0.056  90.699
 Approx polarizability: 144.831  -3.437 143.842   0.254   0.469 140.079

                      1                      2                      3
                      A                      A                      A
 Frequencies --     37.0915                45.8468                72.5187
 Red. masses --      2.2621                 2.1143                 3.3492
 Frc consts  --      0.0018                 0.0026                 0.0104
 IR Inten    --      0.0377                 0.1315                 0.1171

                      4                      5                      6
                      A                      A                      A
 Frequencies --     93.5352               122.1641               136.1384
 Red. masses --      2.3579                 1.7027                 2.1877
 Frc consts  --      0.0122                 0.0150                 0.0239
 IR Inten    --      0.2620                 0.1716                 0.6098

                      7                      8                      9
                      A                      A                      A
 Frequencies --    154.7058               185.0510               206.5840
 Red. masses --      2.0049                 1.8076                 1.8177
 Frc consts  --      0.0283                 0.0365                 0.0457
 IR Inten    --      0.1306                 0.6541                 0.3566

                     10                     11                     12
                      A                      A                      A
 Frequencies --    234.7587               247.3647               259.4567
 Red. masses --      1.4019                 1.1189                 1.8932
 Frc consts  --      0.0455                 0.0403                 0.0751
 IR Inten    --      0.7632                 0.0073                 0.6040

                     13                     14                     15
                      A                      A                      A
 Frequencies --    316.9366               355.3379               415.5381
 Red. masses --      2.2331                 2.8064                 2.4369
 Frc consts  --      0.1322                 0.2088                 0.2479
 IR Inten    --      3.9179                 0.2226                 2.8192

                     16                     17                     18
                      A                      A                      A
 Frequencies --    472.6406               488.9490               514.9561
 Red. masses --      2.7013                 3.0318                 3.0752
 Frc consts  --      0.3555                 0.4270                 0.4805
 IR Inten    --      5.6488                 3.7565                 5.2817

                     19                     20                     21
                      A                      A                      A
 Frequencies --    733.0848               749.9261               773.4034
 Red. masses --      1.0648                 1.1136                 2.3928
 Frc consts  --      0.3371                 0.3690                 0.8433
 IR Inten    --      4.2264                 1.5020                25.8920

                     22                     23                     24
                      A                      A                      A
 Frequencies --    805.0086               891.7420               897.7275
 Red. masses --      1.1819                 1.5795                 1.6725
 Frc consts  --      0.4513                 0.7400                 0.7942
 IR Inten    --      1.0073                28.6693                 1.3887

                     25                     26                     27
                      A                      A                      A
 Frequencies --    908.3165               979.7222              1005.7022
 Red. masses --      1.4505                 2.1271                 1.1986
 Frc consts  --      0.7051                 1.2030                 0.7143
 IR Inten    --     29.4763                11.8263                 0.2597

                     28                     29                     30
                      A                      A                      A
 Frequencies --   1014.7683              1041.8705              1060.7286
 Red. masses --      3.2785                 2.9920                 2.5998
 Frc consts  --      1.9891                 1.9136                 1.7235
 IR Inten    --      3.9927                 5.8089                 1.0887

                     31                     32                     33
                      A                      A                      A
 Frequencies --   1071.4132              1092.8420              1129.7992
 Red. masses --      2.2057                 2.0825                 2.9341
 Frc consts  --      1.4918                 1.4654                 2.2066
 IR Inten    --      1.0419                14.1816                 7.3666

                     34                     35                     36
                      A                      A                      A
 Frequencies --   1133.5766              1142.5128              1159.2852
 Red. masses --      1.3012                 2.1072                 1.4704
 Frc consts  --      0.9851                 1.6206                 1.1643
 IR Inten    --      3.0487                 6.9915                 3.0030

                     37                     38                     39
                      A                      A                      A
 Frequencies --   1215.8851              1217.0368              1239.6871
 Red. masses --      2.0185                 1.7855                 1.7793
 Frc consts  --      1.7582                 1.5582                 1.6111
 IR Inten    --      1.2540                 3.6360                 8.6070

                     40                     41                     42
                      A                      A                      A
 Frequencies --   1250.2741              1266.1623              1295.7643
 Red. masses --      1.9730                 1.4870                 1.3254
 Frc consts  --      1.8172                 1.4046                 1.3111
 IR Inten    --      1.0128                 4.2035                 0.6467

                     43                     44                     45
                      A                      A                      A
 Frequencies --   1325.1947              1326.8197              1334.3691
 Red. masses --      1.2813                 1.0529                 1.1814
 Frc consts  --      1.3258                 1.0921                 1.2393
 IR Inten    --      0.4783                 2.0471                 0.8152

                     46                     47                     48
                      A                      A                      A
 Frequencies --   1339.4877              1379.9921              1400.8483
 Red. masses --      1.1624                 1.4207                 1.6148
 Frc consts  --      1.2288                 1.5940                 1.8670
 IR Inten    --      6.4199                 2.6139                 1.4204

                     49                     50                     51
                      A                      A                      A
 Frequencies --   1408.7215              1413.4563              1444.3095
 Red. masses --      1.4211                 1.2515                 1.1771
 Frc consts  --      1.6616                 1.4731                 1.4468
 IR Inten    --     10.6791                 0.5548                 0.9139

                     52                     53                     54
                      A                      A                      A
 Frequencies --   1446.5666              1477.0679              1480.7261
 Red. masses --      1.1557                 1.0702                 1.0765
 Frc consts  --      1.4249                 1.3757                 1.3906
 IR Inten    --      0.4098                 3.5139                 8.9374

                     55                     56                     57
                      A                      A                      A
 Frequencies --   1483.6571              1485.1257              1488.9088
 Red. masses --      1.0685                 1.0720                 1.0820
 Frc consts  --      1.3858                 1.3931                 1.4132
 IR Inten    --      0.7348                 1.1622                 2.5301

                     58                     59                     60
                      A                      A                      A
 Frequencies --   1495.1387              1499.8423              1500.5715
 Red. masses --      1.0818                 1.0403                 1.0530
 Frc consts  --      1.4248                 1.3787                 1.3970
 IR Inten    --      0.6377                 4.9798                 3.0524

                     61                     62                     63
                      A                      A                      A
 Frequencies --   1504.3096              1510.8646              1516.1914
 Red. masses --      1.0880                 1.0854                 1.0916
 Frc consts  --      1.4507                 1.4598                 1.4785
 IR Inten    --      3.2183                 0.9508                 2.8977

                     64                     65                     66
                      A                      A                      A
 Frequencies --   1528.8936              2884.2841              2927.2890
 Red. masses --      1.1123                 1.0721                 1.0611
 Frc consts  --      1.5319                 5.2546                 5.3574
 IR Inten    --     11.2480                56.3556                89.7110

                     67                     68                     69
                      A                      A                      A
 Frequencies --   2961.6913              2999.6684              3003.8548
 Red. masses --      1.0569                 1.0575                 1.0583
 Frc consts  --      5.4624                 5.6063                 5.6262
 IR Inten    --     63.0445                 0.2011                 8.9876

                     70                     71                     72
                      A                      A                      A
 Frequencies --   3015.0696              3021.5078              3027.5852
 Red. masses --      1.0597                 1.0985                 1.0467
 Frc consts  --      5.6756                 5.9088                 5.6526
 IR Inten    --     50.6025                 0.2183                15.2634

                     73                     74                     75
                      A                      A                      A
 Frequencies --   3028.6779              3034.5514              3050.8758
 Red. masses --      1.0480                 1.1015                 1.0917
 Frc consts  --      5.6640                 5.9763                 5.9869
 IR Inten    --     58.4711                 1.0683                23.9686

                     76                     77                     78
                      A                      A                      A
 Frequencies --   3056.2245              3067.7380              3075.6329
 Red. masses --      1.0993                 1.0749                 1.0977
 Frc consts  --      6.0495                 5.9601                 6.1179
 IR Inten    --     20.8536                45.8305                65.5474

                     79                     80                     81
                      A                      A                      A
 Frequencies --   3084.3419              3094.3267              3099.7865
 Red. masses --      1.0759                 1.1020                 1.1010
 Frc consts  --      6.0304                 6.2169                 6.2328
 IR Inten    --     44.2845                61.7656                39.1285

                     82                     83                     84
                      A                      A                      A
 Frequencies --   3115.4682              3136.9612              3377.7493
 Red. masses --      1.1024                 1.1015                 1.0733
 Frc consts  --      6.3040                 6.3864                 7.2148
 IR Inten    --     20.2977                22.0602                19.0648

 - Thermochemistry -
 -------------------
 Temperature   298.150 Kelvin.  Pressure   1.00000 Atm.
 Atom     1 has atomic number  6 and mass  12.00000

 Molecular mass:   144.16265 amu.
 Principal axes and moments of inertia in atomic units:
                           1         2         3
     Eigenvalues --   516.894515014.383265315.51245
           X            1.00000  -0.00242   0.00138
           Y            0.00241   1.00000   0.00148
           Z           -0.00139  -0.00148   1.00000
 This molecule is an asymmetric top.
 Rotational symmetry number  1.
 Warning -- assumption of classical behavior for rotation
           may cause significant error
 Rotational temperatures (Kelvin)      0.16757     0.01727     0.01629
 Rotational constants (GHZ):           3.49151     0.35991     0.33952
 Zero-point vibrational energy     731457.6 (Joules/Mol)
                                  174.82256 (Kcal/Mol)
 Warning -- explicit consideration of  18 degrees of freedom as
           vibrations may cause significant error
 Vibrational temperatures:     53.37    65.96   104.34   134.58   175.77
          (Kelvin)            195.87   222.59   266.25   297.23   337.77
                              355.90   373.30   456.00   511.25   597.87
                              680.02   703.49   740.91  1054.75  1078.98
                             1112.76  1158.23  1283.02  1291.63  1306.86
                             1409.60  1446.98  1460.03  1499.02  1526.15
                             1541.52  1572.36  1625.53  1630.96  1643.82
                             1667.95  1749.39  1751.04  1783.63  1798.87
                             1821.73  1864.32  1906.66  1909.00  1919.86
                             1927.22  1985.50  2015.51  2026.84  2033.65
                             2078.04  2081.29  2125.17  2130.43  2134.65
                             2136.76  2142.21  2151.17  2157.94  2158.99
                             2164.37  2173.80  2181.46  2199.74  4149.84
                             4211.72  4261.21  4315.85  4321.88  4338.01
                             4347.28  4356.02  4357.59  4366.04  4389.53
                             4397.23  4413.79  4425.15  4437.68  4452.05
                             4459.90  4482.46  4513.39  4859.83

 Zero-point correction=                           0.278597 (Hartree/Particle)
 Thermal correction to Energy=                    0.292069
 Thermal correction to Enthalpy=                  0.293013
 Thermal correction to Gibbs Free Energy=         0.237835
 Sum of electronic and zero-point Energies=           -426.118443
 Sum of electronic and thermal Energies=              -426.104971
 Sum of electronic and thermal Enthalpies=            -426.104027
 Sum of electronic and thermal Free Energies=         -426.159205

                     E (Thermal)             CV                S
                      KCal/Mol        Cal/Mol-Kelvin    Cal/Mol-Kelvin
 Total                  183.276             47.837            116.131
 Electronic               0.000              0.000              0.000
 Translational            0.889              2.981             40.808
 Rotational               0.889              2.981             31.000
 Vibrational            181.498             41.876             44.323
 Vibration     1          0.594              1.982              5.409
 Vibration     2          0.595              1.979              4.989
 Vibration     3          0.599              1.967              4.084
 Vibration     4          0.603              1.954              3.585
 Vibration     5          0.610              1.931              3.066
 Vibration     6          0.614              1.917              2.857
 Vibration     7          0.620              1.897              2.614
 Vibration     8          0.631              1.860              2.277
 Vibration     9          0.641              1.830              2.074
 Vibration    10          0.655              1.788              1.842
 Vibration    11          0.661              1.767              1.749
 Vibration    12          0.668              1.747              1.665
 Vibration    13          0.704              1.641              1.326
 Vibration    14          0.731              1.564              1.142
 Vibration    15          0.779              1.436              0.907
 Vibration    16          0.830              1.311              0.730
 Vibration    17          0.845              1.275              0.686
 Vibration    18          0.870              1.217              0.622

 Optimization completed.
    -- Stationary point found.
 Normal termination of Gaussian 16 at Tue Jun  1 06:04:47 2021.
