 Gaussian 16, Revision A.03,
 Gaussian 16:  ES64L-G16RevA.03 25-Dec-2016

 -----------------------------
 # opt freq b3lyp/6-31g(2df,p)
 -----------------------------

 -------------------
 Title Card Required
 -------------------
 Symbolic Z-matrix:
 Charge =  0 Multiplicity = 1

 SCF Done:  E(RB3LYP) =  -455.955315919     A.U. after   13 cycles
 SCF Done:  E(RB3LYP) =  -455.986772155     A.U. after   12 cycles
 SCF Done:  E(RB3LYP) =  -456.001208265     A.U. after   12 cycles
 SCF Done:  E(RB3LYP) =  -456.003852842     A.U. after   12 cycles
 SCF Done:  E(RB3LYP) =  -456.005336817     A.U. after   12 cycles
 SCF Done:  E(RB3LYP) =  -456.006996622     A.U. after   12 cycles
 SCF Done:  E(RB3LYP) =  -456.007932121     A.U. after   12 cycles
 SCF Done:  E(RB3LYP) =  -456.009014951     A.U. after   10 cycles
 SCF Done:  E(RB3LYP) =  -456.009744157     A.U. after   10 cycles
 SCF Done:  E(RB3LYP) =  -456.010574442     A.U. after   11 cycles
 SCF Done:  E(RB3LYP) =  -456.010901525     A.U. after   11 cycles
 SCF Done:  E(RB3LYP) =  -456.011030169     A.U. after   11 cycles
 SCF Done:  E(RB3LYP) =  -456.011074893     A.U. after   10 cycles
 SCF Done:  E(RB3LYP) =  -456.011103119     A.U. after    9 cycles
 SCF Done:  E(RB3LYP) =  -456.011112705     A.U. after    9 cycles
 SCF Done:  E(RB3LYP) =  -456.011135367     A.U. after    9 cycles
 SCF Done:  E(RB3LYP) =  -456.011141147     A.U. after    9 cycles
 SCF Done:  E(RB3LYP) =  -456.011141664     A.U. after    7 cycles
 SCF Done:  E(RB3LYP) =  -456.011141856     A.U. after    7 cycles
 Optimization completed.
    -- Stationary point found.
 Normal termination of Gaussian 16 at Mon May 31 17:23:34 2021.

 ----------------------------------------------------------------------
 #N Geom=AllCheck Guess=TCheck SCRF=Check GenChk RB3LYP/6-31G(2df,p) Fr
 eq
 ----------------------------------------------------------------------

 Structure from the checkpoint file:  "CCCCN1NC1pNpCdN.chk"
 -------------------
 Title Card Required
 -------------------
 Charge =  0 Multiplicity = 1

                         Standard orientation:
 ---------------------------------------------------------------------
 Center     Atomic      Atomic             Coordinates (Angstroms)
 Number     Number       Type             X           Y           Z
 ---------------------------------------------------------------------
      1          6           0        4.017339    1.026426   -0.079520
      2          6           0        3.086461   -0.168065    0.145550
      3          6           0        1.650640    0.103008   -0.316415
      4          6           0        0.722168   -1.093138   -0.094691
      5          7           0       -0.595837   -0.829387   -0.665510
      6          7           0       -1.726295   -1.660305   -0.148394
      7          6           0       -1.611585   -0.212807    0.145175
      8          7           0       -1.327436    0.314585    1.440325
      9          6           0       -2.574834    0.637219   -0.642281
     10          7           0       -2.948768    1.814184   -0.362030
     11          1           0        5.034885    0.807241    0.258006
     12          1           0        3.667131    1.909309    0.466313
     13          1           0        4.067494    1.293213   -1.140693
     14          1           0        3.084942   -0.434829    1.211049
     15          1           0        3.479273   -1.044923   -0.385763
     16          1           0        1.639944    0.354679   -1.383205
     17          1           0        1.246621    0.974853    0.213053
     18          1           0        0.689978   -1.360815    0.978563
     19          1           0        1.113028   -1.976549   -0.613304
     20          1           0       -1.386525   -2.135178    0.697276
     21          1           0       -0.597718   -0.193517    1.923004
     22          1           0       -2.158926    0.306715    2.022130
     23          1           0       -2.952800    0.144032   -1.539865
     24          1           0       -2.480108    2.126372    0.495804
 ---------------------------------------------------------------------

 SCF Done:  E(RB3LYP) =  -456.011141856     A.U. after    1 cycles

 The electronic state is 1-A.
 Alpha  occ. eigenvalues --  -14.36365 -14.35521 -14.34729 -14.31429 -10.28150
 Alpha  occ. eigenvalues --  -10.22513 -10.22406 -10.18980 -10.18862 -10.17882
 Alpha  occ. eigenvalues --   -1.04405  -0.91384  -0.88424  -0.82168  -0.76967
 Alpha  occ. eigenvalues --   -0.70259  -0.68025  -0.61898  -0.58994  -0.57280
 Alpha  occ. eigenvalues --   -0.53875  -0.52601  -0.47840  -0.46711  -0.44497
 Alpha  occ. eigenvalues --   -0.43388  -0.42178  -0.40335  -0.39978  -0.38642
 Alpha  occ. eigenvalues --   -0.36374  -0.35331  -0.34300  -0.33364  -0.31313
 Alpha  occ. eigenvalues --   -0.30892  -0.29251  -0.25607  -0.22410
 Alpha virt. eigenvalues --   -0.00677   0.04894   0.07977   0.08790   0.09897
 Alpha virt. eigenvalues --    0.11610   0.12147   0.13996   0.14366   0.14655
 Alpha virt. eigenvalues --    0.16638   0.16836   0.17470   0.17889   0.18531

 Mulliken charges:
               1
     1  C   -0.380186
     2  C   -0.166917
     3  C   -0.170414
     4  C   -0.161358
     5  N   -0.111378
     6  N   -0.366926
     7  C    0.250341
     8  N   -0.581783
     9  C    0.081000
    10  N   -0.414217
    11  H    0.113896
    12  H    0.117511
    13  H    0.119551
    14  H    0.092470
    15  H    0.099722
    16  H    0.118612
    17  H    0.112475
    18  H    0.068444
    19  H    0.121264
    20  H    0.213006
    21  H    0.240431
    22  H    0.250028
    23  H    0.128092
    24  H    0.226336
 Sum of Mulliken charges =  -0.00000

 Dipole moment (field-independent basis, Debye):
    X=              2.6774    Y=             -1.5450    Z=              3.4808  Tot=              4.6553
 Quadrupole moment (field-independent basis, Debye-Ang):
   XX=            -67.8862   YY=            -67.0178   ZZ=            -58.7357
   XY=              2.9710   XZ=             -7.0433   YZ=             -1.2458

  Exact polarizability: 106.217  -5.812  92.629   0.442   2.675  79.332
 Approx polarizability: 130.589 -10.102 145.697  -1.087   7.584 124.993

                      1                      2                      3
                      A                      A                      A
 Frequencies --     52.9841                70.9817                73.1906
 Red. masses --      3.8580                 2.7444                 1.9638
 Frc consts  --      0.0064                 0.0081                 0.0062
 IR Inten    --      0.0658                 3.8005                 1.7442

                      4                      5                      6
                      A                      A                      A
 Frequencies --    130.2405               135.1918               223.0426
 Red. masses --      2.9532                 2.4343                 2.1342
 Frc consts  --      0.0295                 0.0262                 0.0626
 IR Inten    --      1.2328                 0.5895                 6.2272

                      7                      8                      9
                      A                      A                      A
 Frequencies --    237.1695               242.8930               257.1583
 Red. masses --      1.3034                 1.1905                 2.2520
 Frc consts  --      0.0432                 0.0414                 0.0877
 IR Inten    --     36.3453                 8.2068                 1.4090

                     10                     11                     12
                      A                      A                      A
 Frequencies --    311.8272               331.7984               407.3604
 Red. masses --      3.2635                 3.5509                 3.0430
 Frc consts  --      0.1870                 0.2303                 0.2975
 IR Inten    --      1.7145                 0.9289                 2.2810

                     13                     14                     15
                      A                      A                      A
 Frequencies --    430.5689               495.1363               507.3043
 Red. masses --      3.5159                 3.7492                 3.0007
 Frc consts  --      0.3840                 0.5415                 0.4550
 IR Inten    --      9.5172                10.5184                 3.5933

                     16                     17                     18
                      A                      A                      A
 Frequencies --    577.0427               721.6950               742.0451
 Red. masses --      3.1598                 4.1440                 1.1373
 Frc consts  --      0.6199                 1.2717                 0.3690
 IR Inten    --     21.0226                26.3665                 5.6593

                     19                     20                     21
                      A                      A                      A
 Frequencies --    749.3993               808.9193               815.8366
 Red. masses --      2.9952                 1.2475                 1.6203
 Frc consts  --      0.9911                 0.4809                 0.6354
 IR Inten    --     79.7724                21.5232                29.9704

                     22                     23                     24
                      A                      A                      A
 Frequencies --    849.4029               909.0305               921.6025
 Red. masses --      3.0451                 1.8458                 2.4789
 Frc consts  --      1.2944                 0.8986                 1.2405
 IR Inten    --     14.1757                 4.2093                12.9740

                     25                     26                     27
                      A                      A                      A
 Frequencies --    952.5930              1006.2545              1022.1569
 Red. masses --      1.1720                 2.5775                 3.1161
 Frc consts  --      0.6266                 1.5377                 1.9182
 IR Inten    --      1.1148                39.8773                 4.8389

                     28                     29                     30
                      A                      A                      A
 Frequencies --   1065.9513              1075.4334              1128.0685
 Red. masses --      2.3661                 1.9393                 2.1591
 Frc consts  --      1.5840                 1.3215                 1.6188
 IR Inten    --      0.5749                21.4331                 4.9023

                     31                     32                     33
                      A                      A                      A
 Frequencies --   1160.4543              1165.4759              1178.2293
 Red. masses --      1.4949                 1.1948                 1.6740
 Frc consts  --      1.1861                 0.9562                 1.3692
 IR Inten    --     14.1408                37.3722                 6.8146

                     34                     35                     36
                      A                      A                      A
 Frequencies --   1231.2063              1249.0730              1282.1971
 Red. masses --      1.3230                 1.3206                 1.2587
 Frc consts  --      1.1816                 1.2140                 1.2192
 IR Inten    --     49.4362                22.9172                 7.0985

                     37                     38                     39
                      A                      A                      A
 Frequencies --   1307.9294              1323.1150              1327.6043
 Red. masses --      1.2002                 1.3417                 1.0830
 Frc consts  --      1.2097                 1.3839                 1.1247
 IR Inten    --      4.9774                17.3957                 3.0565

                     40                     41                     42
                      A                      A                      A
 Frequencies --   1367.9545              1371.4634              1391.6442
 Red. masses --      1.9430                 1.9639                 1.9092
 Frc consts  --      2.1423                 2.1764                 2.1785
 IR Inten    --     69.4295                42.0991                18.9594

                     43                     44                     45
                      A                      A                      A
 Frequencies --   1408.3753              1415.5799              1427.4287
 Red. masses --      1.5838                 1.2736                 1.5217
 Frc consts  --      1.8510                 1.5037                 1.8268
 IR Inten    --     17.3251                 1.8229                 5.5393

                     46                     47                     48
                      A                      A                      A
 Frequencies --   1487.5779              1495.4216              1499.8386
 Red. masses --      1.0614                 1.0749                 1.0399
 Frc consts  --      1.3839                 1.4163                 1.3782
 IR Inten    --      0.3644                 0.0599                 5.4798

                     49                     50                     51
                      A                      A                      A
 Frequencies --   1508.2515              1519.5592              1643.3848
 Red. masses --      1.0786                 1.0952                 1.1250
 Frc consts  --      1.4456                 1.4900                 1.7901
 IR Inten    --      3.0144                 3.0777                59.9414

                     52                     53                     54
                      A                      A                      A
 Frequencies --   1734.2093              2916.4679              3011.6232
 Red. masses --      7.9104                 1.0719                 1.0591
 Frc consts  --     14.0168                 5.3717                 5.6599
 IR Inten    --     44.6144                57.6484                21.5408

                     55                     56                     57
                      A                      A                      A
 Frequencies --   3029.8497              3033.1348              3040.2538
 Red. masses --      1.0522                 1.0498                 1.0953
 Frc consts  --      5.6911                 5.6902                 5.9649
 IR Inten    --      8.1667                32.0483                10.6591

                     58                     59                     60
                      A                      A                      A
 Frequencies --   3049.9341              3080.0751              3099.9592
 Red. masses --      1.0836                 1.1035                 1.1022
 Frc consts  --      5.9390                 6.1682                 6.2406
 IR Inten    --     24.4857                23.9714                54.0829

                     61                     62                     63
                      A                      A                      A
 Frequencies --   3104.8011              3125.3039              3353.6735
 Red. masses --      1.1013                 1.0901                 1.0750
 Frc consts  --      6.2547                 6.2734                 7.1237
 IR Inten    --     34.7613                13.0224                 5.7295

                     64                     65                     66
                      A                      A                      A
 Frequencies --   3406.2212              3521.0300              3611.7639
 Red. masses --      1.0721                 1.0509                 1.0909
 Frc consts  --      7.3288                 7.6764                 8.3846
 IR Inten    --      0.4445                 4.0111                 7.1843

 - Thermochemistry -
 -------------------
 Temperature   298.150 Kelvin.  Pressure   1.00000 Atm.
 Atom     1 has atomic number  6 and mass  12.00000

 Molecular mass:   142.12185 amu.
 Principal axes and moments of inertia in atomic units:
                           1         2         3
     Eigenvalues --   762.973882916.283293238.99516
           X            0.99992   0.01110  -0.00599
           Y           -0.01119   0.99983  -0.01466
           Z            0.00583   0.01472   0.99987
 This molecule is an asymmetric top.
 Rotational symmetry number  1.
 Warning -- assumption of classical behavior for rotation
           may cause significant error
 Rotational temperatures (Kelvin)      0.11352     0.02970     0.02674
 Rotational constants (GHZ):           2.36540     0.61885     0.55719
 Zero-point vibrational energy     551073.8 (Joules/Mol)
                                  131.70980 (Kcal/Mol)
 Warning -- explicit consideration of  16 degrees of freedom as
           vibrations may cause significant error
 Vibrational temperatures:     76.23   102.13   105.30   187.39   194.51
          (Kelvin)            320.91   341.23   349.47   369.99   448.65
                              477.38   586.10   619.49   712.39   729.90
                              830.24  1038.36  1067.64  1078.22  1163.85
                             1173.81  1222.10  1307.89  1325.98  1370.57
                             1447.78  1470.66  1533.67  1547.31  1623.04
                             1669.63  1676.86  1695.21  1771.43  1797.14
                             1844.80  1881.82  1903.67  1910.13  1968.18
                             1973.23  2002.27  2026.34  2036.70  2053.75
                             2140.29  2151.58  2157.93  2170.04  2186.31
                             2364.46  2495.14  4196.15  4333.05  4359.28
                             4364.00  4374.25  4388.17  4431.54  4460.15
                             4467.12  4496.62  4825.19  4900.79  5065.98
                             5196.52

 Zero-point correction=                           0.209893 (Hartree/Particle)
 Thermal correction to Energy=                    0.221482
 Thermal correction to Enthalpy=                  0.222426
 Thermal correction to Gibbs Free Energy=         0.172132
 Sum of electronic and zero-point Energies=           -455.801249
 Sum of electronic and thermal Energies=              -455.789660
 Sum of electronic and thermal Enthalpies=            -455.788716
 Sum of electronic and thermal Free Energies=         -455.839010

                     E (Thermal)             CV                S
                      KCal/Mol        Cal/Mol-Kelvin    Cal/Mol-Kelvin
 Total                  138.982             42.328            105.852
 Electronic               0.000              0.000              0.000
 Translational            0.889              2.981             40.766
 Rotational               0.889              2.981             30.356
 Vibrational            137.205             36.367             34.731
 Vibration     1          0.596              1.976              4.703
 Vibration     2          0.598              1.968              4.126
 Vibration     3          0.599              1.967              4.066
 Vibration     4          0.612              1.923              2.942
 Vibration     5          0.613              1.918              2.871
 Vibration     6          0.649              1.806              1.934
 Vibration     7          0.656              1.784              1.824
 Vibration     8          0.659              1.775              1.782
 Vibration     9          0.667              1.751              1.681
 Vibration    10          0.700              1.651              1.353
 Vibration    11          0.714              1.612              1.251
 Vibration    12          0.772              1.454              0.936
 Vibration    13          0.792              1.404              0.857
 Vibration    14          0.851              1.261              0.670
 Vibration    15          0.863              1.234              0.640
 Vibration    16          0.934              1.081              0.491

                           ! Non-Optimized Parameters !
 Normal termination of Gaussian 16 at Mon May 31 18:05:46 2021.
