 Gaussian 16, Revision A.03,
 Gaussian 16:  ES64L-G16RevA.03 25-Dec-2016

 -----------------------------
 # opt freq b3lyp/6-31g(2df,p)
 -----------------------------

 -------------------
 Title Card Required
 -------------------
 Symbolic Z-matrix:
 Charge =  0 Multiplicity = 1

 SCF Done:  E(RB3LYP) =  -500.366828615     A.U. after   13 cycles
 SCF Done:  E(RB3LYP) =  -500.373025941     A.U. after   14 cycles
 SCF Done:  E(RB3LYP) =  -500.375151854     A.U. after   13 cycles
 SCF Done:  E(RB3LYP) =  -500.376963103     A.U. after   13 cycles
 SCF Done:  E(RB3LYP) =  -500.376353128     A.U. after   12 cycles
 SCF Done:  E(RB3LYP) =  -500.379071728     A.U. after   12 cycles
 SCF Done:  E(RB3LYP) =  -500.378838353     A.U. after   13 cycles
 SCF Done:  E(RB3LYP) =  -500.380775264     A.U. after   13 cycles
 SCF Done:  E(RB3LYP) =  -500.381899721     A.U. after   11 cycles
 SCF Done:  E(RB3LYP) =  -500.382674198     A.U. after   13 cycles
 SCF Done:  E(RB3LYP) =  -500.392783273     A.U. after   11 cycles
 SCF Done:  E(RB3LYP) =  -500.393227576     A.U. after   10 cycles
 SCF Done:  E(RB3LYP) =  -500.393382344     A.U. after   10 cycles
 SCF Done:  E(RB3LYP) =  -500.393408342     A.U. after    9 cycles
 SCF Done:  E(RB3LYP) =  -500.393417090     A.U. after    9 cycles
 SCF Done:  E(RB3LYP) =  -500.393418576     A.U. after    7 cycles
 SCF Done:  E(RB3LYP) =  -500.393418666     A.U. after    7 cycles
 SCF Done:  E(RB3LYP) =  -500.393418803     A.U. after    6 cycles
 SCF Done:  E(RB3LYP) =  -500.393418836     A.U. after    6 cycles
 Optimization completed.
    -- Stationary point found.
 Normal termination of Gaussian 16 at Mon May 31 23:15:56 2021.

 ----------------------------------------------------------------------
 #N Geom=AllCheck Guess=TCheck SCRF=Check GenChk RB3LYP/6-31G(2df,p) Fr
 eq
 ----------------------------------------------------------------------

 Structure from the checkpoint file:  "CCCCNpCCdOpNpCpC.chk"
 -------------------
 Title Card Required
 -------------------
 Charge =  0 Multiplicity = 1

                         Standard orientation:
 ---------------------------------------------------------------------
 Center     Atomic      Atomic             Coordinates (Angstroms)
 Number     Number       Type             X           Y           Z
 ---------------------------------------------------------------------
      1          6           0        4.051079   -0.897867    0.178492
      2          6           0        2.661201   -1.311000   -0.312918
      3          6           0        1.554624   -0.356475    0.151949
      4          6           0        0.171216   -0.775580   -0.355009
      5          7           0       -0.910234    0.074529    0.159276
      6          6           0       -0.928867    1.417118   -0.395733
      7          6           0       -0.071102    2.392556    0.398151
      8          8           0        0.468912    3.360167   -0.070679
      9          7           0       -2.215383   -0.507892    0.146261
     10          6           0       -2.605962   -1.140098   -1.111231
     11          6           0       -2.408364   -1.372747    1.297394
     12          1           0        4.819561   -1.596494   -0.166484
     13          1           0        4.091944   -0.870809    1.272947
     14          1           0        4.318976    0.099791   -0.186076
     15          1           0        2.434462   -2.326751    0.037654
     16          1           0        2.660494   -1.361473   -1.409696
     17          1           0        1.794937    0.656800   -0.194041
     18          1           0        1.531048   -0.314750    1.247851
     19          1           0       -0.026808   -1.798593   -0.018178
     20          1           0        0.182023   -0.798393   -1.460110
     21          1           0       -1.959555    1.781671   -0.307139
     22          1           0       -0.642090    1.480878   -1.458377
     23          1           0       -0.012728    2.145047    1.482241
     24          1           0       -2.451099   -0.442484   -1.939366
     25          1           0       -3.673533   -1.376114   -1.065123
     26          1           0       -2.063994   -2.074790   -1.335442
     27          1           0       -2.137486   -0.824853    2.201911
     28          1           0       -1.816528   -2.305997    1.263644
     29          1           0       -3.464547   -1.655917    1.353884
 ---------------------------------------------------------------------

 SCF Done:  E(RB3LYP) =  -500.393418836     A.U. after    1 cycles

 The electronic state is 1-A.
 Alpha  occ. eigenvalues --  -19.13554 -14.34984 -14.34873 -10.26541 -10.21147
 Alpha  occ. eigenvalues --  -10.20923 -10.20530 -10.20172 -10.18390 -10.18246
 Alpha  occ. eigenvalues --  -10.17412  -1.04302  -0.98495  -0.84750  -0.79305
 Alpha  occ. eigenvalues --   -0.73669  -0.71111  -0.69803  -0.64118  -0.59061
 Alpha  occ. eigenvalues --   -0.58041  -0.56656  -0.50650  -0.49105  -0.47748
 Alpha  occ. eigenvalues --   -0.46388  -0.44730  -0.43320  -0.42674  -0.42411
 Alpha  occ. eigenvalues --   -0.42095  -0.40639  -0.39327  -0.38713  -0.37841
 Alpha  occ. eigenvalues --   -0.37071  -0.36454  -0.34752  -0.33807  -0.33399
 Alpha  occ. eigenvalues --   -0.32702  -0.25288  -0.23132  -0.21834
 Alpha virt. eigenvalues --   -0.01864   0.07448   0.09101   0.10011   0.12145
 Alpha virt. eigenvalues --    0.12560   0.12753   0.13594   0.14234   0.14750
 Alpha virt. eigenvalues --    0.14989   0.15837   0.16186   0.17336   0.17844

 Mulliken charges:
               1
     1  C   -0.381523
     2  C   -0.167417
     3  C   -0.189893
     4  C   -0.146595
     5  N   -0.100513
     6  C   -0.222096
     7  C    0.163160
     8  O   -0.249880
     9  N   -0.041416
    10  C   -0.320077
    11  C   -0.301695
    12  H    0.112202
    13  H    0.115594
    14  H    0.119956
    15  H    0.095176
    16  H    0.098046
    17  H    0.115463
    18  H    0.102037
    19  H    0.105826
    20  H    0.084589
    21  H    0.139340
    22  H    0.105698
    23  H    0.081070
    24  H    0.123551
    25  H    0.123936
    26  H    0.100023
    27  H    0.125045
    28  H    0.092527
    29  H    0.117867
 Sum of Mulliken charges =  -0.00000

 Dipole moment (field-independent basis, Debye):
    X=             -0.9974    Y=             -3.0406    Z=             -0.1174  Tot=              3.2022
 Quadrupole moment (field-independent basis, Debye-Ang):
   XX=            -67.6795   YY=            -79.4541   ZZ=            -68.2113
   XY=             -2.2188   XZ=              0.6659   YZ=              1.0046

  Exact polarizability: 118.510   6.963 107.571   0.519  -1.459  94.733
 Approx polarizability: 146.707  10.566 154.086  -2.686  -5.489 143.826

                      1                      2                      3
                      A                      A                      A
 Frequencies --     48.2491                57.7290                75.0583
 Red. masses --      2.3171                 5.0253                 1.9851
 Frc consts  --      0.0032                 0.0099                 0.0066
 IR Inten    --      0.1976                 2.3945                 0.8115

                      4                      5                      6
                      A                      A                      A
 Frequencies --     83.1558               101.9078               122.6203
 Red. masses --      3.0775                 2.8635                 2.3496
 Frc consts  --      0.0125                 0.0175                 0.0208
 IR Inten    --      2.1457                 0.5833                 3.5874

                      7                      8                      9
                      A                      A                      A
 Frequencies --    134.3314               212.2796               221.9863
 Red. masses --      2.1612                 2.4387                 2.2846
 Frc consts  --      0.0230                 0.0647                 0.0663
 IR Inten    --      0.3805                 3.3757                 0.2366

                     10                     11                     12
                      A                      A                      A
 Frequencies --    240.4497               247.1674               255.8505
 Red. masses --      1.2041                 1.1369                 1.0858
 Frc consts  --      0.0410                 0.0409                 0.0419
 IR Inten    --      0.2915                 0.2268                 0.2300

                     13                     14                     15
                      A                      A                      A
 Frequencies --    311.8738               326.9176               346.3879
 Red. masses --      3.0203                 2.3866                 2.9904
 Frc consts  --      0.1731                 0.1503                 0.2114
 IR Inten    --      1.2369                 0.1063                 8.3259

                     16                     17                     18
                      A                      A                      A
 Frequencies --    398.5391               429.7740               467.3709
 Red. masses --      3.0075                 3.4629                 2.5128
 Frc consts  --      0.2814                 0.3769                 0.3234
 IR Inten    --      2.9156                 3.9195                 3.1071

                     19                     20                     21
                      A                      A                      A
 Frequencies --    544.3339               568.2152               744.0896
 Red. masses --      3.0858                 2.9601                 1.0822
 Frc consts  --      0.5387                 0.5631                 0.3530
 IR Inten    --     17.2045                12.0236                 2.1005

                     22                     23                     24
                      A                      A                      A
 Frequencies --    750.7180               798.6487               817.8777
 Red. masses --      1.5984                 1.8105                 1.9632
 Frc consts  --      0.5307                 0.6804                 0.7737
 IR Inten    --      4.1931                 6.5321                 3.1587

                     25                     26                     27
                      A                      A                      A
 Frequencies --    909.5061               930.7108               953.4559
 Red. masses --      1.9405                 2.7083                 1.2254
 Frc consts  --      0.9457                 1.3822                 0.6563
 IR Inten    --      4.6768                25.9771                 0.2580

                     28                     29                     30
                      A                      A                      A
 Frequencies --   1013.0833              1037.8698              1039.2921
 Red. masses --      2.7997                 1.7766                 2.4262
 Frc consts  --      1.6930                 1.1275                 1.5440
 IR Inten    --      2.5621                 9.3044                 2.7608

                     31                     32                     33
                      A                      A                      A
 Frequencies --   1056.1794              1066.9421              1098.2696
 Red. masses --      3.4390                 2.3764                 1.8257
 Frc consts  --      2.2603                 1.5939                 1.2975
 IR Inten    --     22.6598                 1.6008                 1.1754

                     34                     35                     36
                      A                      A                      A
 Frequencies --   1113.9513              1130.7256              1164.6295
 Red. masses --      1.2571                 2.2832                 2.0487
 Frc consts  --      0.9191                 1.7199                 1.6372
 IR Inten    --      4.7375                 1.9411                 8.4485

                     37                     38                     39
                      A                      A                      A
 Frequencies --   1183.0221              1216.1637              1242.0323
 Red. masses --      1.5719                 2.3111                 2.2107
 Frc consts  --      1.2962                 2.0139                 2.0093
 IR Inten    --      7.7634                 2.6507                 8.2429

                     40                     41                     42
                      A                      A                      A
 Frequencies --   1253.4511              1270.1695              1286.0116
 Red. masses --      1.5641                 1.8764                 1.6208
 Frc consts  --      1.4479                 1.7836                 1.5793
 IR Inten    --     10.6377                14.7810                 4.2610

                     43                     44                     45
                      A                      A                      A
 Frequencies --   1305.1545              1326.4222              1333.5945
 Red. masses --      1.4134                 1.2782                 1.1819
 Frc consts  --      1.4185                 1.3250                 1.2385
 IR Inten    --      5.7282                 3.9834                 0.6293

                     46                     47                     48
                      A                      A                      A
 Frequencies --   1340.7162              1387.0276              1397.3318
 Red. masses --      1.1858                 1.4472                 1.2387
 Frc consts  --      1.2559                 1.6404                 1.4250
 IR Inten    --      3.1427                 1.1005                 7.7750

                     49                     50                     51
                      A                      A                      A
 Frequencies --   1410.8099              1417.3989              1432.7012
 Red. masses --      1.3247                 1.3032                 1.1661
 Frc consts  --      1.5535                 1.5426                 1.4102
 IR Inten    --      1.6076                 2.6588                 0.0898

                     52                     53                     54
                      A                      A                      A
 Frequencies --   1446.0402              1456.8956              1475.2103
 Red. masses --      1.0978                 1.1524                 1.0614
 Frc consts  --      1.3525                 1.4412                 1.3609
 IR Inten    --      7.6241                 0.9647                 7.6827

                     55                     56                     57
                      A                      A                      A
 Frequencies --   1486.4800              1488.6325              1496.0753
 Red. masses --      1.0646                 1.0687                 1.0785
 Frc consts  --      1.3860                 1.3953                 1.4223
 IR Inten    --      2.6380                 2.2648                 9.6570

                     58                     59                     60
                      A                      A                      A
 Frequencies --   1499.7009              1499.9521              1505.1640
 Red. masses --      1.0569                 1.0400                 1.0668
 Frc consts  --      1.4005                 1.3786                 1.4239
 IR Inten    --      1.3003                 5.5021                 1.7138

                     61                     62                     63
                      A                      A                      A
 Frequencies --   1514.0857              1515.6639              1833.0650
 Red. masses --      1.0605                 1.0812                10.4503
 Frc consts  --      1.4323                 1.4633                20.6887
 IR Inten    --      1.7999                 5.4255               160.1861

                     64                     65                     66
                      A                      A                      A
 Frequencies --   2882.2411              2932.9899              2937.4183
 Red. masses --      1.0838                 1.0702                 1.0597
 Frc consts  --      5.3046                 5.4242                 5.3870
 IR Inten    --     79.3110                29.2821                59.0410

                     67                     68                     69
                      A                      A                      A
 Frequencies --   2960.6363              2970.8682              3012.2263
 Red. masses --      1.0569                 1.0667                 1.0586
 Frc consts  --      5.4582                 5.5470                 5.6591
 IR Inten    --     81.9785                36.6151                12.9298

                     70                     71                     72
                      A                      A                      A
 Frequencies --   3025.5283              3031.5109              3038.9975
 Red. masses --      1.0563                 1.0381                 1.1001
 Frc consts  --      5.6967                 5.6212                 5.9863
 IR Inten    --     27.3647                40.2464                 4.5735

                     73                     74                     75
                      A                      A                      A
 Frequencies --   3058.3968              3062.6962              3064.8347
 Red. masses --      1.0915                 1.0909                 1.0748
 Frc consts  --      6.0153                 6.0289                 5.9485
 IR Inten    --      8.8525                 7.8625                21.1572

                     76                     77                     78
                      A                      A                      A
 Frequencies --   3068.6234              3077.7226              3098.6956
 Red. masses --      1.0750                 1.1000                 1.1022
 Frc consts  --      5.9642                 6.1388                 6.2352
 IR Inten    --     42.3816                38.9386                53.6029

                     79                     80                     81
                      A                      A                      A
 Frequencies --   3103.0700              3110.5115              3128.4361
 Red. masses --      1.1012                 1.1029                 1.1008
 Frc consts  --      6.2475                 6.2870                 6.3474
 IR Inten    --     36.4350                25.4808                18.9409

 - Thermochemistry -
 -------------------
 Temperature   298.150 Kelvin.  Pressure   1.00000 Atm.
 Atom     1 has atomic number  6 and mass  12.00000

 Molecular mass:   158.14191 amu.
 Principal axes and moments of inertia in atomic units:
                           1         2         3
     Eigenvalues --  1656.024002687.290803844.43516
           X            0.99997  -0.00732   0.00401
           Y            0.00731   0.99997   0.00087
           Z           -0.00401  -0.00084   0.99999
 This molecule is an asymmetric top.
 Rotational symmetry number  1.
 Warning -- assumption of classical behavior for rotation
           may cause significant error
 Rotational temperatures (Kelvin)      0.05230     0.03223     0.02253
 Rotational constants (GHZ):           1.08980     0.67158     0.46944
 Zero-point vibrational energy     678309.7 (Joules/Mol)
                                  162.11991 (Kcal/Mol)
 Warning -- explicit consideration of  20 degrees of freedom as
           vibrations may cause significant error
 Vibrational temperatures:     69.42    83.06   107.99   119.64   146.62
          (Kelvin)            176.42   193.27   305.42   319.39   345.95
                              355.62   368.11   448.72   470.36   498.37
                              573.41   618.35   672.44   783.18   817.53
                             1070.58  1080.12  1149.08  1176.74  1308.58
                             1339.09  1371.81  1457.60  1493.26  1495.31
                             1519.61  1535.09  1580.16  1602.73  1626.86
                             1675.64  1702.10  1749.79  1787.01  1803.44
                             1827.49  1850.28  1877.83  1908.43  1918.75
                             1928.99  1995.62  2010.45  2029.84  2039.32
                             2061.34  2080.53  2096.15  2122.50  2138.71
                             2141.81  2152.52  2157.74  2158.10  2165.60
                             2178.43  2180.70  2637.37  4146.90  4219.92
                             4226.29  4259.70  4274.42  4333.92  4353.06
                             4361.67  4372.44  4400.35  4406.54  4409.61
                             4415.06  4428.16  4458.33  4464.63  4475.33
                             4501.12

 Zero-point correction=                           0.258355 (Hartree/Particle)
 Thermal correction to Energy=                    0.272352
 Thermal correction to Enthalpy=                  0.273296
 Thermal correction to Gibbs Free Energy=         0.217231
 Sum of electronic and zero-point Energies=           -500.135064
 Sum of electronic and thermal Energies=              -500.121067
 Sum of electronic and thermal Enthalpies=            -500.120123
 Sum of electronic and thermal Free Energies=         -500.176188

                     E (Thermal)             CV                S
                      KCal/Mol        Cal/Mol-Kelvin    Cal/Mol-Kelvin
 Total                  170.903             49.729            117.999
 Electronic               0.000              0.000              0.000
 Translational            0.889              2.981             41.084
 Rotational               0.889              2.981             31.215
 Vibrational            169.126             43.768             45.700
 Vibration     1          0.595              1.978              4.888
 Vibration     2          0.596              1.974              4.533
 Vibration     3          0.599              1.966              4.016
 Vibration     4          0.600              1.961              3.815
 Vibration     5          0.604              1.948              3.417
 Vibration     6          0.610              1.930              3.059
 Vibration     7          0.613              1.919              2.883
 Vibration     8          0.643              1.822              2.024
 Vibration     9          0.648              1.808              1.943
 Vibration    10          0.658              1.778              1.800
 Vibration    11          0.661              1.767              1.751
 Vibration    12          0.666              1.753              1.690
 Vibration    13          0.700              1.651              1.352
 Vibration    14          0.711              1.622              1.275
 Vibration    15          0.724              1.583              1.183
 Vibration    16          0.765              1.473              0.968
 Vibration    17          0.791              1.405              0.859
 Vibration    18          0.825              1.322              0.745
 Vibration    19          0.899              1.152              0.556
 Vibration    20          0.924              1.100              0.508

 Optimization completed.
    -- Stationary point found.
 Normal termination of Gaussian 16 at Tue Jun  1 00:20:04 2021.
