 Gaussian 16, Revision A.03,
 Gaussian 16:  ES64L-G16RevA.03 25-Dec-2016

 -----------------------------
 # opt freq b3lyp/6-31g(2df,p)
 -----------------------------

 -------------------
 Title Card Required
 -------------------
 Symbolic Z-matrix:
 Charge =  0 Multiplicity = 1

 SCF Done:  E(RB3LYP) =  -387.055871104     A.U. after   12 cycles
 SCF Done:  E(RB3LYP) =  -387.058787927     A.U. after   10 cycles
 SCF Done:  E(RB3LYP) =  -387.059596322     A.U. after   10 cycles
 SCF Done:  E(RB3LYP) =  -387.059982433     A.U. after   10 cycles
 SCF Done:  E(RB3LYP) =  -387.060366860     A.U. after   10 cycles
 SCF Done:  E(RB3LYP) =  -387.060709048     A.U. after    9 cycles
 SCF Done:  E(RB3LYP) =  -387.060920398     A.U. after   10 cycles
 SCF Done:  E(RB3LYP) =  -387.060264546     A.U. after   11 cycles
 SCF Done:  E(RB3LYP) =  -387.061483672     A.U. after   10 cycles
 SCF Done:  E(RB3LYP) =  -387.061739004     A.U. after   11 cycles
 SCF Done:  E(RB3LYP) =  -387.070312406     A.U. after   10 cycles
 SCF Done:  E(RB3LYP) =  -387.071926536     A.U. after    8 cycles
 SCF Done:  E(RB3LYP) =  -387.072261655     A.U. after   10 cycles
 SCF Done:  E(RB3LYP) =  -387.072278934     A.U. after    9 cycles
 SCF Done:  E(RB3LYP) =  -387.072293172     A.U. after    8 cycles
 SCF Done:  E(RB3LYP) =  -387.072296803     A.U. after    8 cycles
 SCF Done:  E(RB3LYP) =  -387.072297731     A.U. after    7 cycles
 SCF Done:  E(RB3LYP) =  -387.072297952     A.U. after    6 cycles
 SCF Done:  E(RB3LYP) =  -387.072298009     A.U. after    6 cycles
 Optimization completed.
    -- Stationary point found.
 Normal termination of Gaussian 16 at Tue Jun  1 12:52:27 2021.

 ----------------------------------------------------------------------
 #N Geom=AllCheck Guess=TCheck SCRF=Check GenChk RB3LYP/6-31G(2df,p) Fr
 eq
 ----------------------------------------------------------------------

 Structure from the checkpoint file:  "CCCCNpCpNpCpC.chk"
 -------------------
 Title Card Required
 -------------------
 Charge =  0 Multiplicity = 1

                         Standard orientation:
 ---------------------------------------------------------------------
 Center     Atomic      Atomic             Coordinates (Angstroms)
 Number     Number       Type             X           Y           Z
 ---------------------------------------------------------------------
      1          6           0        4.239357    0.039016    0.243708
      2          6           0        2.913142   -0.616869   -0.149996
      3          6           0        1.693663    0.254424    0.172284
      4          6           0        0.377198   -0.410975   -0.241705
      5          7           0       -0.802058    0.334121    0.190440
      6          6           0       -0.998269    1.591207   -0.525571
      7          7           0       -1.946423   -0.520977    0.232459
      8          6           0       -2.848657   -0.119304    1.296451
      9          6           0       -2.632558   -0.727778   -1.039380
     10          1           0        5.090993   -0.606062    0.005614
     11          1           0        4.272061    0.251099    1.318155
     12          1           0        4.383482    0.988728   -0.283603
     13          1           0        2.814635   -1.582040    0.364085
     14          1           0        2.923331   -0.846158   -1.223920
     15          1           0        1.808704    1.222908   -0.330783
     16          1           0        1.655518    0.464875    1.248354
     17          1           0        0.301216   -1.396058    0.226879
     18          1           0        0.388056   -0.575187   -1.338085
     19          1           0       -0.175088    2.272345   -0.295193
     20          1           0       -1.921536    2.069524   -0.187766
     21          1           0       -1.046080    1.477652   -1.623292
     22          1           0       -2.281337   -0.021109    2.223865
     23          1           0       -3.614127   -0.892094    1.425282
     24          1           0       -3.372964    0.836010    1.105584
     25          1           0       -1.913441   -1.027684   -1.806513
     26          1           0       -3.184530    0.156031   -1.405027
     27          1           0       -3.352780   -1.543116   -0.918668
 ---------------------------------------------------------------------

 SCF Done:  E(RB3LYP) =  -387.072298009     A.U. after    1 cycles

 The electronic state is 1-A.
 Alpha  occ. eigenvalues --  -14.33490 -14.33326 -10.19490 -10.19403 -10.19268
 Alpha  occ. eigenvalues --  -10.19116 -10.17626 -10.17179 -10.16958  -0.97021
 Alpha  occ. eigenvalues --   -0.83146  -0.78037  -0.71434  -0.69986  -0.67708
 Alpha  occ. eigenvalues --   -0.62351  -0.57584  -0.55538  -0.48978  -0.47411
 Alpha  occ. eigenvalues --   -0.46183  -0.45351  -0.42326  -0.41874  -0.41723
 Alpha  occ. eigenvalues --   -0.39863  -0.38746  -0.37603  -0.37412  -0.36266
 Alpha  occ. eigenvalues --   -0.35914  -0.34066  -0.32768  -0.32297  -0.31782
 Alpha  occ. eigenvalues --   -0.21517  -0.20694
 Alpha virt. eigenvalues --    0.08088   0.09762   0.11834   0.12301   0.13433
 Alpha virt. eigenvalues --    0.13987   0.14184   0.14440   0.15780   0.16810
 Alpha virt. eigenvalues --    0.17032   0.17538   0.18182   0.19035   0.19312

 Mulliken charges:
               1
     1  C   -0.379410
     2  C   -0.161143
     3  C   -0.180510
     4  C   -0.107607
     5  N   -0.072594
     6  C   -0.329933
     7  N   -0.039971
     8  C   -0.297951
     9  C   -0.319710
    10  H    0.109972
    11  H    0.114271
    12  H    0.112272
    13  H    0.095988
    14  H    0.094283
    15  H    0.091442
    16  H    0.100654
    17  H    0.104663
    18  H    0.067376
    19  H    0.124778
    20  H    0.121182
    21  H    0.092862
    22  H    0.123633
    23  H    0.112337
    24  H    0.087188
    25  H    0.121951
    26  H    0.093635
    27  H    0.120341
 Sum of Mulliken charges =  -0.00000

 Dipole moment (field-independent basis, Debye):
    X=             -0.2615    Y=              0.3182    Z=             -0.6486  Tot=              0.7683
 Quadrupole moment (field-independent basis, Debye-Ang):
   XX=            -57.3167   YY=            -59.4301   ZZ=            -59.3919
   XY=             -0.2797   XZ=              0.2727   YZ=             -0.1159

  Exact polarizability: 115.275   1.640  85.529  -0.964   0.126  84.757
 Approx polarizability: 133.393   1.513 125.980  -1.642  -0.742 125.901

                      1                      2                      3
                      A                      A                      A
 Frequencies --     47.3706                66.3324                97.0072
 Red. masses --      1.9334                 2.2375                 2.7768
 Frc consts  --      0.0026                 0.0058                 0.0154
 IR Inten    --      0.1424                 0.1577                 0.1197

                      4                      5                      6
                      A                      A                      A
 Frequencies --    123.7861               143.0816               230.3520
 Red. masses --      2.4253                 2.1660                 1.1398
 Frc consts  --      0.0219                 0.0261                 0.0356
 IR Inten    --      0.2232                 0.1279                 1.0368

                      7                      8                      9
                      A                      A                      A
 Frequencies --    233.3690               243.8902               246.1491
 Red. masses --      1.0600                 1.6483                 1.3660
 Frc consts  --      0.0340                 0.0578                 0.0488
 IR Inten    --      0.3648                 0.3978                 0.2898

                     10                     11                     12
                      A                      A                      A
 Frequencies --    257.8437               290.1556               312.2910
 Red. masses --      1.1499                 2.3472                 2.9556
 Frc consts  --      0.0450                 0.1164                 0.1698
 IR Inten    --      0.2225                 1.9069                 1.6234

                     13                     14                     15
                      A                      A                      A
 Frequencies --    340.3397               393.2953               463.7849
 Red. masses --      2.2868                 2.5146                 2.5750
 Frc consts  --      0.1561                 0.2292                 0.3263
 IR Inten    --      0.3868                 1.0427                 5.2791

                     16                     17                     18
                      A                      A                      A
 Frequencies --    526.0348               533.9303               741.5900
 Red. masses --      3.0860                 2.9110                 1.1052
 Frc consts  --      0.5031                 0.4889                 0.3581
 IR Inten    --      7.4236                 7.0599                 0.9508

                     19                     20                     21
                      A                      A                      A
 Frequencies --    767.3080               808.5710               906.3293
 Red. masses --      3.6642                 1.1918                 3.0934
 Frc consts  --      1.2711                 0.4591                 1.4971
 IR Inten    --     14.9085                 0.2933                31.3462

                     22                     23                     24
                      A                      A                      A
 Frequencies --    909.7473               952.5063              1013.4558
 Red. masses --      1.8912                 1.2243                 2.5041
 Frc consts  --      0.9222                 0.6544                 1.5153
 IR Inten    --      1.8889                 3.0387                 1.8093

                     25                     26                     27
                      A                      A                      A
 Frequencies --   1033.7929              1040.2531              1066.6951
 Red. masses --      2.4667                 1.7502                 2.3045
 Frc consts  --      1.5532                 1.1159                 1.5449
 IR Inten    --      2.5274                11.8600                 1.6514

                     28                     29                     30
                      A                      A                      A
 Frequencies --   1090.5165              1112.9101              1128.2141
 Red. masses --      1.9748                 1.2689                 1.3962
 Frc consts  --      1.3837                 0.9260                 1.0471
 IR Inten    --      5.2382                 7.1633                 0.9583

                     31                     32                     33
                      A                      A                      A
 Frequencies --   1148.3450              1175.4184              1208.1270
 Red. masses --      1.9750                 1.5751                 2.0328
 Frc consts  --      1.5345                 1.2821                 1.7481
 IR Inten    --     10.1621                13.5157                 2.2161

                     34                     35                     36
                      A                      A                      A
 Frequencies --   1245.7515              1254.5708              1259.5151
 Red. masses --      2.8252                 2.0041                 1.6973
 Frc consts  --      2.5833                 1.8585                 1.5864
 IR Inten    --      3.7923                 3.1940                 5.9714

                     37                     38                     39
                      A                      A                      A
 Frequencies --   1289.7643              1299.9265              1327.0993
 Red. masses --      1.8805                 1.5424                 1.1214
 Frc consts  --      1.8430                 1.5356                 1.1637
 IR Inten    --      0.6275                 1.8304                 5.9625

                     40                     41                     42
                      A                      A                      A
 Frequencies --   1328.0987              1381.1054              1404.2704
 Red. masses --      1.1914                 1.4123                 1.4759
 Frc consts  --      1.2381                 1.5872                 1.7148
 IR Inten    --      2.2219                 0.3274                10.3282

                     43                     44                     45
                      A                      A                      A
 Frequencies --   1413.5842              1430.4948              1444.4272
 Red. masses --      1.2473                 1.1584                 1.1991
 Frc consts  --      1.4685                 1.3966                 1.4740
 IR Inten    --      1.7958                 0.7439                 2.8188

                     46                     47                     48
                      A                      A                      A
 Frequencies --   1457.1400              1478.0189              1484.0871
 Red. masses --      1.1398                 1.0561                 1.0616
 Frc consts  --      1.4259                 1.3593                 1.3776
 IR Inten    --      1.3385                 8.0916                 2.6930

                     49                     50                     51
                      A                      A                      A
 Frequencies --   1487.4588              1492.8235              1495.1462
 Red. masses --      1.0603                 1.0759                 1.0585
 Frc consts  --      1.3821                 1.4126                 1.3941
 IR Inten    --      0.8335                 4.1599                 1.3545

                     52                     53                     54
                      A                      A                      A
 Frequencies --   1499.5471              1499.8079              1504.4364
 Red. masses --      1.0596                 1.0428                 1.0725
 Frc consts  --      1.4038                 1.3820                 1.4302
 IR Inten    --     17.8399                 3.8837                 1.2383

                     55                     56                     57
                      A                      A                      A
 Frequencies --   1509.7458              1514.7394              1517.3163
 Red. masses --      1.0471                 1.0726                 1.0764
 Frc consts  --      1.4061                 1.4500                 1.4601
 IR Inten    --      3.0519                 0.6326                 3.8057

                     58                     59                     60
                      A                      A                      A
 Frequencies --   2897.3469              2928.6933              2941.8529
 Red. masses --      1.0719                 1.0605                 1.0578
 Frc consts  --      5.3017                 5.3592                 5.3938
 IR Inten    --     59.4151                66.6022                17.9225

                     61                     62                     63
                      A                      A                      A
 Frequencies --   2955.6611              3012.0215              3021.9862
 Red. masses --      1.0588                 1.0583                 1.0579
 Frc consts  --      5.4497                 5.6569                 5.6923
 IR Inten    --    129.7597                 9.5927                27.0058

                     64                     65                     66
                      A                      A                      A
 Frequencies --   3028.8740              3037.8830              3060.3218
 Red. masses --      1.0380                 1.0988                 1.0734
 Frc consts  --      5.6108                 5.9747                 5.9231
 IR Inten    --     41.9626                 4.3546                25.6018

                     67                     68                     69
                      A                      A                      A
 Frequencies --   3062.3433              3066.9480              3078.2890
 Red. masses --      1.0994                 1.0737                 1.0728
 Frc consts  --      6.0747                 5.9502                 5.9894
 IR Inten    --     22.7024                39.7134                25.2157

                     70                     71                     72
                      A                      A                      A
 Frequencies --   3087.4791              3095.7669              3099.9551
 Red. masses --      1.0909                 1.1015                 1.1010
 Frc consts  --      6.1267                 6.2199                 6.2339
 IR Inten    --     17.6425                71.8436                40.0936

                     73                     74                     75
                      A                      A                      A
 Frequencies --   3111.3001              3116.7444              3127.5478
 Red. masses --      1.1019                 1.1023                 1.0999
 Frc consts  --      6.2848                 6.3087                 6.3386
 IR Inten    --     24.1694                26.7982                20.4197

 - Thermochemistry -
 -------------------
 Temperature   298.150 Kelvin.  Pressure   1.00000 Atm.
 Atom     1 has atomic number  6 and mass  12.00000

 Molecular mass:   130.14700 amu.
 Principal axes and moments of inertia in atomic units:
                           1         2         3
     Eigenvalues --   496.252702923.969442963.80511
           X            0.99999  -0.00164   0.00285
           Y            0.00156   0.99959   0.02857
           Z           -0.00290  -0.02857   0.99959
 This molecule is an asymmetric top.
 Rotational symmetry number  1.
 Warning -- assumption of classical behavior for rotation
           may cause significant error
 Rotational temperatures (Kelvin)      0.17454     0.02962     0.02922
 Rotational constants (GHZ):           3.63674     0.61722     0.60893
 Zero-point vibrational energy     654373.4 (Joules/Mol)
                                  156.39899 (Kcal/Mol)
 Warning -- explicit consideration of  17 degrees of freedom as
           vibrations may cause significant error
 Vibrational temperatures:     68.16    95.44   139.57   178.10   205.86
          (Kelvin)            331.43   335.77   350.90   354.15   370.98
                              417.47   449.32   489.67   565.86   667.28
                              756.85   768.21  1066.98  1103.99  1163.35
                             1304.01  1308.92  1370.44  1458.14  1487.40
                             1496.69  1534.74  1569.01  1601.23  1623.25
                             1652.21  1691.16  1738.23  1792.36  1805.05
                             1812.16  1855.68  1870.30  1909.40  1910.84
                             1987.10  2020.43  2033.83  2058.16  2078.21
                             2096.50  2126.54  2135.27  2140.12  2147.84
                             2151.18  2157.51  2157.89  2164.55  2172.19
                             2179.37  2183.08  4168.64  4213.74  4232.67
                             4252.54  4333.63  4347.96  4357.87  4370.84
                             4403.12  4406.03  4412.65  4428.97  4442.19
                             4454.12  4460.14  4476.47  4484.30  4499.84

 Zero-point correction=                           0.249238 (Hartree/Particle)
 Thermal correction to Energy=                    0.261313
 Thermal correction to Enthalpy=                  0.262257
 Thermal correction to Gibbs Free Energy=         0.211472
 Sum of electronic and zero-point Energies=           -386.823060
 Sum of electronic and thermal Energies=              -386.810985
 Sum of electronic and thermal Enthalpies=            -386.810041
 Sum of electronic and thermal Free Energies=         -386.860826

                     E (Thermal)             CV                S
                      KCal/Mol        Cal/Mol-Kelvin    Cal/Mol-Kelvin
 Total                  163.976             43.540            106.886
 Electronic               0.000              0.000              0.000
 Translational            0.889              2.981             40.503
 Rotational               0.889              2.981             29.843
 Vibrational            162.199             37.578             36.540
 Vibration     1          0.595              1.979              4.924
 Vibration     2          0.598              1.970              4.259
 Vibration     3          0.603              1.951              3.514
 Vibration     4          0.610              1.929              3.040
 Vibration     5          0.616              1.910              2.762
 Vibration     6          0.652              1.795              1.876
 Vibration     7          0.654              1.790              1.853
 Vibration     8          0.659              1.773              1.774
 Vibration     9          0.661              1.769              1.758
 Vibration    10          0.667              1.750              1.676
 Vibration    11          0.686              1.692              1.473
 Vibration    12          0.701              1.650              1.350
 Vibration    13          0.720              1.595              1.211
 Vibration    14          0.760              1.485              0.988
 Vibration    15          0.821              1.330              0.755
 Vibration    16          0.881              1.192              0.596
 Vibration    17          0.889              1.175              0.578

 Optimization completed.
    -- Stationary point found.
 Normal termination of Gaussian 16 at Tue Jun  1 13:47:09 2021.
