 Gaussian 16, Revision A.03,
 Gaussian 16:  ES64L-G16RevA.03 25-Dec-2016

 -----------------------------
 # opt freq b3lyp/6-31g(2df,p)
 -----------------------------

 -------------------
 Title Card Required
 -------------------
 Symbolic Z-matrix:
 Charge =  0 Multiplicity = 1

 SCF Done:  E(RB3LYP) =  -385.897374696     A.U. after   13 cycles
 SCF Done:  E(RB3LYP) =  -385.903805849     A.U. after   11 cycles
 SCF Done:  E(RB3LYP) =  -385.905592075     A.U. after   12 cycles
 SCF Done:  E(RB3LYP) =  -385.906234007     A.U. after   11 cycles
 SCF Done:  E(RB3LYP) =  -385.906393255     A.U. after   11 cycles
 SCF Done:  E(RB3LYP) =  -385.906595881     A.U. after   10 cycles
 SCF Done:  E(RB3LYP) =  -385.906627552     A.U. after   10 cycles
 SCF Done:  E(RB3LYP) =  -385.906633138     A.U. after    9 cycles
 SCF Done:  E(RB3LYP) =  -385.906634089     A.U. after    8 cycles
 SCF Done:  E(RB3LYP) =  -385.906634388     A.U. after    7 cycles
 SCF Done:  E(RB3LYP) =  -385.906634481     A.U. after    7 cycles
 SCF Done:  E(RB3LYP) =  -385.906634546     A.U. after    7 cycles
 Optimization completed.
    -- Stationary point found.
 Normal termination of Gaussian 16 at Mon May 31 19:22:52 2021.

 ----------------------------------------------------------------------
 #N Geom=AllCheck Guess=TCheck SCRF=Check GenChk RB3LYP/6-31G(2df,p) Fr
 eq
 ----------------------------------------------------------------------

 Structure from the checkpoint file:  "CCCCCpdNpCpCpN.chk"
 -------------------
 Title Card Required
 -------------------
 Charge =  0 Multiplicity = 1

                         Standard orientation:
 ---------------------------------------------------------------------
 Center     Atomic      Atomic             Coordinates (Angstroms)
 Number     Number       Type             X           Y           Z
 ---------------------------------------------------------------------
      1          6           0       -4.257681   -0.072167    0.177372
      2          6           0       -2.947854    0.533687   -0.333074
      3          6           0       -1.710041   -0.260648    0.100685
      4          6           0       -0.403926    0.343672   -0.416134
      5          6           0        0.871323   -0.374068   -0.016220
      6          7           0        0.955729   -1.486580    0.592927
      7          6           0        2.170604    0.344994   -0.372760
      8          6           0        2.528923    1.327094    0.765427
      9          7           0        3.216850   -0.634052   -0.659662
     10          1           0       -5.121686    0.515889   -0.146879
     11          1           0       -4.274849   -0.113624    1.272112
     12          1           0       -4.392352   -1.094256   -0.193579
     13          1           0       -2.857274    1.567840    0.024505
     14          1           0       -2.972931    0.593626   -1.429058
     15          1           0       -1.806118   -1.294172   -0.258643
     16          1           0       -1.681266   -0.316768    1.197210
     17          1           0       -0.324588    1.392292   -0.096996
     18          1           0       -0.421792    0.387477   -1.515063
     19          1           0        0.036428   -1.871763    0.813090
     20          1           0        1.985857    0.939113   -1.279691
     21          1           0        2.699313    0.775390    1.695188
     22          1           0        1.740756    2.067915    0.941742
     23          1           0        3.443053    1.875179    0.512867
     24          1           0        3.100559   -1.408950   -0.011189
     25          1           0        4.130752   -0.226139   -0.490248
 ---------------------------------------------------------------------

 SCF Done:  E(RB3LYP) =  -385.906634546     A.U. after    1 cycles

 The electronic state is 1-A.
 Alpha  occ. eigenvalues --  -14.30533 -14.29025 -10.22652 -10.20891 -10.19308
 Alpha  occ. eigenvalues --  -10.18889 -10.18702 -10.17752 -10.17624  -0.91168
 Alpha  occ. eigenvalues --   -0.85753  -0.80225  -0.74653  -0.72419  -0.66485
 Alpha  occ. eigenvalues --   -0.61844  -0.58465  -0.53840  -0.48166  -0.47995
 Alpha  occ. eigenvalues --   -0.46113  -0.43817  -0.43595  -0.42277  -0.41296
 Alpha  occ. eigenvalues --   -0.39050  -0.38459  -0.37297  -0.36090  -0.34541
 Alpha  occ. eigenvalues --   -0.33826  -0.33199  -0.32692  -0.29542  -0.25609
 Alpha  occ. eigenvalues --   -0.22255
 Alpha virt. eigenvalues --    0.00947   0.07575   0.09174   0.10711   0.11653
 Alpha virt. eigenvalues --    0.12256   0.13987   0.14571   0.15214   0.16314
 Alpha virt. eigenvalues --    0.17298   0.18342   0.18583   0.18912   0.19084

 Mulliken charges:
               1
     1  C   -0.382732
     2  C   -0.170846
     3  C   -0.188808
     4  C   -0.268730
     5  C    0.323110
     6  N   -0.483291
     7  C    0.007903
     8  C   -0.397105
     9  N   -0.526435
    10  H    0.114262
    11  H    0.115581
    12  H    0.116144
    13  H    0.097428
    14  H    0.098749
    15  H    0.104603
    16  H    0.103645
    17  H    0.115102
    18  H    0.124605
    19  H    0.217566
    20  H    0.073844
    21  H    0.127614
    22  H    0.109064
    23  H    0.111565
    24  H    0.242146
    25  H    0.215013
 Sum of Mulliken charges =  -0.00000

 Dipole moment (field-independent basis, Debye):
    X=             -1.6096    Y=              1.7801    Z=              0.4729  Tot=              2.4461
 Quadrupole moment (field-independent basis, Debye-Ang):
   XX=            -56.4120   YY=            -59.4483   ZZ=            -60.0638
   XY=              4.6740   XZ=              2.6546   YZ=             -0.9448

  Exact polarizability: 111.302   1.218  87.392  -0.545  -4.315  74.577
 Approx polarizability: 127.651  -0.308 137.042  -0.497 -11.428 116.488

                      1                      2                      3
                      A                      A                      A
 Frequencies --     41.6005                58.5293               100.3478
 Red. masses --      3.3516                 2.0155                 2.2245
 Frc consts  --      0.0034                 0.0041                 0.0132
 IR Inten    --      0.5921                 1.1049                 1.9150

                      4                      5                      6
                      A                      A                      A
 Frequencies --    108.3314               132.2866               232.7317
 Red. masses --      3.2357                 2.0439                 2.0083
 Frc consts  --      0.0224                 0.0211                 0.0641
 IR Inten    --      0.1958                 0.2779                 9.0352

                      7                      8                      9
                      A                      A                      A
 Frequencies --    246.5986               251.1760               264.0137
 Red. masses --      1.2011                 1.2286                 1.1909
 Frc consts  --      0.0430                 0.0457                 0.0489
 IR Inten    --      0.6826                 0.1447                39.0978

                     10                     11                     12
                      A                      A                      A
 Frequencies --    279.6972               298.9479               363.6203
 Red. masses --      2.4034                 3.2219                 3.7982
 Frc consts  --      0.1108                 0.1696                 0.2959
 IR Inten    --      1.0102                 1.5838                 4.8093

                     13                     14                     15
                      A                      A                      A
 Frequencies --    412.6489               483.4083               567.2572
 Red. masses --      2.5163                 2.7602                 2.2818
 Frc consts  --      0.2525                 0.3800                 0.4326
 IR Inten    --      3.8576                 0.2249                 0.7737

                     16                     17                     18
                      A                      A                      A
 Frequencies --    651.1873               740.2351               787.4443
 Red. masses --      2.9670                 1.1214                 1.3642
 Frc consts  --      0.7413                 0.3620                 0.4984
 IR Inten    --     10.9070                 3.1273                 4.3022

                     19                     20                     21
                      A                      A                      A
 Frequencies --    806.2371               869.1696               882.8459
 Red. masses --      2.5848                 1.3425                 1.8149
 Frc consts  --      0.9899                 0.5975                 0.8334
 IR Inten    --      7.7595                38.4564                54.9422

                     22                     23                     24
                      A                      A                      A
 Frequencies --    912.0102               931.6790               966.2200
 Red. masses --      1.7024                 1.3541                 1.2131
 Frc consts  --      0.8343                 0.6925                 0.6672
 IR Inten    --     14.0815                57.0745                13.3189

                     25                     26                     27
                      A                      A                      A
 Frequencies --    989.2372              1029.9240              1047.9948
 Red. masses --      2.9684                 1.7044                 2.4290
 Frc consts  --      1.7115                 1.0652                 1.5718
 IR Inten    --     24.9798                 2.0737                 5.2758

                     28                     29                     30
                      A                      A                      A
 Frequencies --   1075.0323              1083.0170              1125.9514
 Red. masses --      2.1038                 2.1046                 2.1302
 Frc consts  --      1.4325                 1.4544                 1.5911
 IR Inten    --      3.9078                33.0689                 3.9313

                     31                     32                     33
                      A                      A                      A
 Frequencies --   1135.7161              1186.3631              1211.8407
 Red. masses --      1.6400                 1.7999                 1.3354
 Frc consts  --      1.2463                 1.4925                 1.1555
 IR Inten    --      0.3774                13.4248                28.6251

                     34                     35                     36
                      A                      A                      A
 Frequencies --   1243.6949              1274.0985              1314.2364
 Red. masses --      1.4255                 1.3116                 1.1779
 Frc consts  --      1.2991                 1.2544                 1.1987
 IR Inten    --      0.5267                12.9030                 0.5343

                     37                     38                     39
                      A                      A                      A
 Frequencies --   1324.3408              1332.7311              1350.6445
 Red. masses --      1.4579                 1.0708                 1.2484
 Frc consts  --      1.5065                 1.1206                 1.3418
 IR Inten    --     32.5430                 0.8522                 6.4272

                     40                     41                     42
                      A                      A                      A
 Frequencies --   1377.2265              1395.2913              1402.8561
 Red. masses --      1.4819                 1.2415                 1.5366
 Frc consts  --      1.6561                 1.4240                 1.7817
 IR Inten    --     25.0392                 3.7612                 4.7229

                     43                     44                     45
                      A                      A                      A
 Frequencies --   1414.5511              1432.2611              1458.8380
 Red. masses --      1.2460                 1.6724                 1.0878
 Frc consts  --      1.4690                 2.0213                 1.3640
 IR Inten    --      1.0336                11.0200                 6.8707

                     46                     47                     48
                      A                      A                      A
 Frequencies --   1486.7426              1494.6482              1498.3499
 Red. masses --      1.0604                 1.0535                 1.0766
 Frc consts  --      1.3810                 1.3867                 1.4240
 IR Inten    --      0.8965                 5.9091                 0.8558

                     49                     50                     51
                      A                      A                      A
 Frequencies --   1498.6904              1499.9920              1512.5541
 Red. masses --      1.0846                 1.0402                 1.0870
 Frc consts  --      1.4353                 1.3790                 1.4653
 IR Inten    --      1.2610                 5.2773                 3.4466

                     52                     53                     54
                      A                      A                      A
 Frequencies --   1639.4997              1730.4819              2990.7145
 Red. masses --      1.1020                 7.5477                 1.0814
 Frc consts  --      1.7452                13.3168                 5.6987
 IR Inten    --     64.6081                44.5378                28.7677

                     55                     56                     57
                      A                      A                      A
 Frequencies --   3005.3582              3009.2769              3019.0341
 Red. masses --      1.0597                 1.0599                 1.0604
 Frc consts  --      5.6393                 5.6553                 5.6945
 IR Inten    --      2.5468                 5.3023                51.1717

                     58                     59                     60
                      A                      A                      A
 Frequencies --   3023.9966              3028.4170              3030.2987
 Red. masses --      1.0422                 1.0875                 1.0363
 Frc consts  --      5.6154                 5.8763                 5.6067
 IR Inten    --     15.5302                10.0007                36.8874

                     61                     62                     63
                      A                      A                      A
 Frequencies --   3039.3496              3061.2945              3090.5247
 Red. masses --      1.1003                 1.1044                 1.1007
 Frc consts  --      5.9885                 6.0977                 6.1944
 IR Inten    --      1.6109                42.8309                38.4876

                     64                     65                     66
                      A                      A                      A
 Frequencies --   3096.8433              3103.5474              3110.8130
 Red. masses --      1.1022                 1.1010                 1.1024
 Frc consts  --      6.2279                 6.2479                 6.2857
 IR Inten    --     52.6903                34.1459                24.4777

                     67                     68                     69
                      A                      A                      A
 Frequencies --   3464.4332              3483.9487              3568.6093
 Red. masses --      1.0738                 1.0489                 1.0922
 Frc consts  --      7.5936                 7.5012                 8.1949
 IR Inten    --      1.5778                13.3970                 5.1929

 - Thermochemistry -
 -------------------
 Temperature   298.150 Kelvin.  Pressure   1.00000 Atm.
 Atom     1 has atomic number  6 and mass  12.00000

 Molecular mass:   128.13135 amu.
 Principal axes and moments of inertia in atomic units:
                           1         2         3
     Eigenvalues --   454.597852990.946863175.53388
           X            0.99994   0.00993   0.00370
           Y           -0.00994   0.99995   0.00191
           Z           -0.00368  -0.00195   0.99999
 This molecule is an asymmetric top.
 Rotational symmetry number  1.
 Warning -- assumption of classical behavior for rotation
           may cause significant error
 Rotational temperatures (Kelvin)      0.19053     0.02896     0.02728
 Rotational constants (GHZ):           3.96997     0.60340     0.56833
 Zero-point vibrational energy     598620.2 (Joules/Mol)
                                  143.07367 (Kcal/Mol)
 Warning -- explicit consideration of  15 degrees of freedom as
           vibrations may cause significant error
 Vibrational temperatures:     59.85    84.21   144.38   155.86   190.33
          (Kelvin)            334.85   354.80   361.39   379.86   402.42
                              430.12   523.17   593.71   695.52   816.16
                              936.91  1065.03  1132.96  1160.00  1250.54
                             1270.22  1312.18  1340.48  1390.18  1423.29
                             1481.83  1507.83  1546.73  1558.22  1619.99
                             1634.04  1706.91  1743.57  1789.40  1833.14
                             1890.89  1905.43  1917.50  1943.28  1981.52
                             2007.51  2018.40  2035.22  2060.70  2098.94
                             2139.09  2150.47  2155.79  2156.28  2158.15
                             2176.23  2358.87  2489.78  4302.97  4324.04
                             4329.68  4343.72  4350.86  4357.22  4359.92
                             4372.95  4404.52  4446.58  4455.67  4465.31
                             4475.77  4984.55  5012.63  5134.43

 Zero-point correction=                           0.228002 (Hartree/Particle)
 Thermal correction to Energy=                    0.239540
 Thermal correction to Enthalpy=                  0.240484
 Thermal correction to Gibbs Free Energy=         0.190373
 Sum of electronic and zero-point Energies=           -385.678632
 Sum of electronic and thermal Energies=              -385.667095
 Sum of electronic and thermal Enthalpies=            -385.666151
 Sum of electronic and thermal Free Energies=         -385.716261

                     E (Thermal)             CV                S
                      KCal/Mol        Cal/Mol-Kelvin    Cal/Mol-Kelvin
 Total                  150.314             41.566            105.467
 Electronic               0.000              0.000              0.000
 Translational            0.889              2.981             40.457
 Rotational               0.889              2.981             29.847
 Vibrational            148.536             35.604             35.163
 Vibration     1          0.594              1.981              5.181
 Vibration     2          0.596              1.974              4.506
 Vibration     3          0.604              1.949              3.448
 Vibration     4          0.606              1.943              3.299
 Vibration     5          0.612              1.921              2.913
 Vibration     6          0.653              1.791              1.858
 Vibration     7          0.661              1.768              1.755
 Vibration     8          0.663              1.761              1.722
 Vibration     9          0.671              1.739              1.635
 Vibration    10          0.680              1.711              1.536
 Vibration    11          0.692              1.676              1.423
 Vibration    12          0.737              1.547              1.107
 Vibration    13          0.776              1.443              0.917
 Vibration    14          0.840              1.287              0.701
 Vibration    15          0.923              1.102              0.510

 Optimization completed.
    -- Stationary point found.
 Normal termination of Gaussian 16 at Mon May 31 19:56:22 2021.
