 Gaussian 16, Revision A.03,
 Gaussian 16:  ES64L-G16RevA.03 25-Dec-2016

 -----------------------------
 # opt freq b3lyp/6-31g(2df,p)
 -----------------------------

 -------------------
 Title Card Required
 -------------------
 Symbolic Z-matrix:
 Charge =  0 Multiplicity = 1

 SCF Done:  E(RB3LYP) =  -400.659699264     A.U. after   14 cycles
 SCF Done:  E(RB3LYP) =  -400.686672698     A.U. after   12 cycles
 SCF Done:  E(RB3LYP) =  -400.687647721     A.U. after   12 cycles
 SCF Done:  E(RB3LYP) =  -400.687826892     A.U. after   10 cycles
 SCF Done:  E(RB3LYP) =  -400.687838303     A.U. after    9 cycles
 SCF Done:  E(RB3LYP) =  -400.687840914     A.U. after    9 cycles
 SCF Done:  E(RB3LYP) =  -400.687842146     A.U. after    8 cycles
 SCF Done:  E(RB3LYP) =  -400.687842423     A.U. after    8 cycles
 SCF Done:  E(RB3LYP) =  -400.687842481     A.U. after    7 cycles
 Optimization completed.
    -- Stationary point found.
 Normal termination of Gaussian 16 at Tue Jun  1 15:03:48 2021.

 ----------------------------------------------------------------------
 #N Geom=AllCheck Guess=TCheck SCRF=Check GenChk RB3LYP/6-31G(2df,p) Fr
 eq
 ----------------------------------------------------------------------

 Structure from the checkpoint file:  "CCCCNpNpCCtN.chk"
 -------------------
 Title Card Required
 -------------------
 Charge =  0 Multiplicity = 1

                         Standard orientation:
 ---------------------------------------------------------------------
 Center     Atomic      Atomic             Coordinates (Angstroms)
 Number     Number       Type             X           Y           Z
 ---------------------------------------------------------------------
      1          6           0       -4.206183    0.225707   -0.374279
      2          6           0       -2.965983   -0.526550    0.115031
      3          6           0       -1.658322    0.212983   -0.192320
      4          6           0       -0.431477   -0.538148    0.325954
      5          7           0        0.831254    0.067276   -0.114053
      6          7           0        0.986215    1.349477    0.595255
      7          6           0        1.943643   -0.778362    0.308211
      8          6           0        3.218853   -0.291535   -0.233510
      9          7           0        4.222140    0.107881   -0.643987
     10          1           0       -5.122648   -0.326557   -0.145280
     11          1           0       -4.172690    0.381611   -1.458148
     12          1           0       -4.284010    1.210772    0.098899
     13          1           0       -2.935486   -1.522635   -0.345954
     14          1           0       -3.042310   -0.694590    1.197232
     15          1           0       -1.704491    1.211437    0.260465
     16          1           0       -1.553458    0.356229   -1.275070
     17          1           0       -0.446348   -1.558920   -0.074322
     18          1           0       -0.470616   -0.605319    1.427900
     19          1           0        0.340446    1.978866    0.119848
     20          1           0        1.900678    1.697377    0.300990
     21          1           0        1.772966   -1.790817   -0.069578
     22          1           0        2.037517   -0.834466    1.407997
 ---------------------------------------------------------------------

 SCF Done:  E(RB3LYP) =  -400.687842481     A.U. after    1 cycles

 The electronic state is 1-A.
 Alpha  occ. eigenvalues --  -14.36630 -14.34893 -14.33395 -10.25862 -10.22457
 Alpha  occ. eigenvalues --  -10.21705 -10.18957 -10.18896 -10.17958  -0.98516
 Alpha  occ. eigenvalues --   -0.90485  -0.82534  -0.80231  -0.75179  -0.69026
 Alpha  occ. eigenvalues --   -0.61621  -0.58832  -0.52391  -0.51923  -0.50983
 Alpha  occ. eigenvalues --   -0.47554  -0.43696  -0.43119  -0.42131  -0.41668
 Alpha  occ. eigenvalues --   -0.38654  -0.36817  -0.36336  -0.34779  -0.34232
 Alpha  occ. eigenvalues --   -0.33716  -0.33205  -0.33084  -0.32193  -0.21442
 Alpha virt. eigenvalues --    0.01870   0.03752   0.07459   0.08846   0.09745
 Alpha virt. eigenvalues --    0.10924   0.12277   0.13171   0.13300   0.15386
 Alpha virt. eigenvalues --    0.16266   0.17250   0.18061   0.18556   0.18947

 Mulliken charges:
               1
     1  C   -0.381909
     2  C   -0.165310
     3  C   -0.195859
     4  C   -0.094534
     5  N   -0.118468
     6  N   -0.489244
     7  C   -0.255112
     8  C    0.266859
     9  N   -0.307162
    10  H    0.114822
    11  H    0.116858
    12  H    0.116248
    13  H    0.097651
    14  H    0.100824
    15  H    0.101202
    16  H    0.107333
    17  H    0.099204
    18  H    0.090734
    19  H    0.249208
    20  H    0.255373
    21  H    0.154020
    22  H    0.137260
 Sum of Mulliken charges =  -0.00000

 Dipole moment (field-independent basis, Debye):
    X=             -3.5733    Y=             -0.9306    Z=              0.7594  Tot=              3.7698
 Quadrupole moment (field-independent basis, Debye-Ang):
   XX=            -73.2493   YY=            -51.1373   ZZ=            -58.9906
   XY=             -2.5114   XZ=              4.7444   YZ=             -1.2023

  Exact polarizability: 112.383   2.749  76.589  -3.097  -2.036  67.212
 Approx polarizability: 136.535   8.861 116.392  -8.904  -3.460 105.337

                      1                      2                      3
                      A                      A                      A
 Frequencies --     49.5541                70.5114                90.7707
 Red. masses --      4.6780                 1.7791                 3.7868
 Frc consts  --      0.0068                 0.0052                 0.0184
 IR Inten    --      1.7865                 1.1418                 7.0210

                      4                      5                      6
                      A                      A                      A
 Frequencies --    108.7926               132.5046               179.4731
 Red. masses --      3.2180                 1.9669                 2.0617
 Frc consts  --      0.0224                 0.0203                 0.0391
 IR Inten    --      3.8107                10.0204                26.8943

                      7                      8                      9
                      A                      A                      A
 Frequencies --    199.1736               248.3353               283.5814
 Red. masses --      1.6283                 1.1250                 3.8852
 Frc consts  --      0.0381                 0.0409                 0.1841
 IR Inten    --     25.7110                 0.3868                 0.1378

                     10                     11                     12
                      A                      A                      A
 Frequencies --    322.0926               396.2417               422.8615
 Red. masses --      3.3495                 3.0330                 3.2140
 Frc consts  --      0.2047                 0.2806                 0.3386
 IR Inten    --      0.4633                 0.9945                10.2869

                     13                     14                     15
                      A                      A                      A
 Frequencies --    437.8994               467.6016               612.9789
 Red. masses --      3.6822                 2.9419                 4.8846
 Frc consts  --      0.4160                 0.3790                 1.0814
 IR Inten    --      8.9782                 3.1331                 0.2903

                     16                     17                     18
                      A                      A                      A
 Frequencies --    745.0211               806.1480               844.2356
 Red. masses --      1.0790                 1.2305                 4.3649
 Frc consts  --      0.3529                 0.4712                 1.8330
 IR Inten    --      2.9947                 0.4453                 9.8517

                     19                     20                     21
                      A                      A                      A
 Frequencies --    908.2453               935.1420               951.7708
 Red. masses --      1.8842                 4.3028                 1.2519
 Frc consts  --      0.9158                 2.2170                 0.6682
 IR Inten    --      2.3728                 0.5550                 1.3702

                     22                     23                     24
                      A                      A                      A
 Frequencies --    989.5073              1032.2153              1063.5280
 Red. masses --      2.0647                 3.2116                 2.5452
 Frc consts  --      1.1911                 2.0161                 1.6962
 IR Inten    --     15.8826                 4.3250                22.0806

                     25                     26                     27
                      A                      A                      A
 Frequencies --   1070.4038              1086.2432              1134.7661
 Red. masses --      2.2844                 2.3899                 2.0592
 Frc consts  --      1.5421                 1.6615                 1.5623
 IR Inten    --      5.7656                42.2130                13.2828

                     28                     29                     30
                      A                      A                      A
 Frequencies --   1182.0861              1186.2008              1245.6354
 Red. masses --      1.7868                 1.5549                 1.2621
 Frc consts  --      1.4710                 1.2891                 1.1537
 IR Inten    --      5.9665                25.5118                 1.5749

                     31                     32                     33
                      A                      A                      A
 Frequencies --   1273.2029              1296.3101              1330.8258
 Red. masses --      1.2595                 1.2978                 1.1047
 Frc consts  --      1.2029                 1.2849                 1.1527
 IR Inten    --      1.0426                 9.5352                 0.0724

                     34                     35                     36
                      A                      A                      A
 Frequencies --   1341.7836              1353.0486              1387.8552
 Red. masses --      1.1258                 1.2663                 1.4921
 Frc consts  --      1.1942                 1.3659                 1.6933
 IR Inten    --      2.1011                19.2537                 6.1187

                     37                     38                     39
                      A                      A                      A
 Frequencies --   1408.1752              1413.5976              1431.3820
 Red. masses --      1.5130                 1.2500                 1.4733
 Frc consts  --      1.7677                 1.4716                 1.7784
 IR Inten    --      3.0929                 1.7414                 8.3879

                     40                     41                     42
                      A                      A                      A
 Frequencies --   1454.9696              1476.8804              1487.5307
 Red. masses --      1.0874                 1.0856                 1.0611
 Frc consts  --      1.3563                 1.3951                 1.3834
 IR Inten    --      2.8823                 1.8840                 0.4779

                     43                     44                     45
                      A                      A                      A
 Frequencies --   1499.3805              1500.1950              1513.2849
 Red. masses --      1.0695                 1.0408                 1.0901
 Frc consts  --      1.4166                 1.3801                 1.4708
 IR Inten    --      0.8758                 5.2701                 2.6860

                     46                     47                     48
                      A                      A                      A
 Frequencies --   1665.1362              2363.9019              2944.0247
 Red. masses --      1.0659                12.6183                 1.0695
 Frc consts  --      1.7413                41.5441                 5.4615
 IR Inten    --     45.4120                 2.4673                13.2698

                     49                     50                     51
                      A                      A                      A
 Frequencies --   2949.9559              3013.3629              3022.9543
 Red. masses --      1.0685                 1.0583                 1.0584
 Frc consts  --      5.4786                 5.6617                 5.6987
 IR Inten    --     63.7443                 6.5283                30.7954

                     52                     53                     54
                      A                      A                      A
 Frequencies --   3031.2941              3040.0983              3048.8297
 Red. masses --      1.0370                 1.0987                 1.0919
 Frc consts  --      5.6141                 5.9826                 5.9800
 IR Inten    --     37.2337                 5.3297                10.1825

                     55                     56                     57
                      A                      A                      A
 Frequencies --   3072.9665              3087.4479              3098.1703
 Red. masses --      1.1041                 1.0874                 1.1023
 Frc consts  --      6.1430                 6.1072                 6.2338
 IR Inten    --     36.1452                 6.4922                57.5174

                     58                     59                     60
                      A                      A                      A
 Frequencies --   3104.3034              3436.9235              3511.9728
 Red. masses --      1.1010                 1.0522                 1.0894
 Frc consts  --      6.2514                 7.3230                 7.9166
 IR Inten    --     34.8976                 0.8149                 1.7071

 - Thermochemistry -
 -------------------
 Temperature   298.150 Kelvin.  Pressure   1.00000 Atm.
 Atom     1 has atomic number  6 and mass  12.00000

 Molecular mass:   127.11095 amu.
 Principal axes and moments of inertia in atomic units:
                           1         2         3
     Eigenvalues --   312.714513272.757553401.67533
           X            0.99996  -0.00079   0.00905
           Y            0.00126   0.99863  -0.05232
           Z           -0.00899   0.05233   0.99859
 This molecule is an asymmetric top.
 Rotational symmetry number  1.
 Rotational temperatures (Kelvin)      0.27697     0.02647     0.02546
 Rotational constants (GHZ):           5.77121     0.55144     0.53054
 Zero-point vibrational energy     506997.0 (Joules/Mol)
                                  121.17520 (Kcal/Mol)
 Warning -- explicit consideration of  15 degrees of freedom as
           vibrations may cause significant error
 Vibrational temperatures:     71.30   101.45   130.60   156.53   190.64
          (Kelvin)            258.22   286.57   357.30   408.01   463.42
                              570.10   608.40   630.04   672.77   881.94
                             1071.92  1159.87  1214.67  1306.76  1345.46
                             1369.39  1423.68  1485.13  1530.18  1540.07
                             1562.86  1632.68  1700.76  1706.68  1792.19
                             1831.86  1865.10  1914.76  1930.53  1946.74
                             1996.81  2026.05  2033.85  2059.44  2093.38
                             2124.90  2140.22  2157.27  2158.45  2177.28
                             2395.76  3401.13  4235.79  4244.33  4335.56
                             4349.36  4361.36  4374.02  4386.59  4421.31
                             4442.15  4457.58  4466.40  4944.97  5052.95

 Zero-point correction=                           0.193105 (Hartree/Particle)
 Thermal correction to Energy=                    0.204189
 Thermal correction to Enthalpy=                  0.205134
 Thermal correction to Gibbs Free Energy=         0.155900
 Sum of electronic and zero-point Energies=           -400.494738
 Sum of electronic and thermal Energies=              -400.483653
 Sum of electronic and thermal Enthalpies=            -400.482709
 Sum of electronic and thermal Free Energies=         -400.531943

                     E (Thermal)             CV                S
                      KCal/Mol        Cal/Mol-Kelvin    Cal/Mol-Kelvin
 Total                  128.131             38.616            103.621
 Electronic               0.000              0.000              0.000
 Translational            0.889              2.981             40.433
 Rotational               0.889              2.981             29.633
 Vibrational            126.353             32.654             33.555
 Vibration     1          0.595              1.978              4.835
 Vibration     2          0.598              1.968              4.139
 Vibration     3          0.602              1.956              3.643
 Vibration     4          0.606              1.942              3.290
 Vibration     5          0.613              1.921              2.909
 Vibration     6          0.629              1.868              2.334
 Vibration     7          0.637              1.841              2.141
 Vibration     8          0.662              1.766              1.742
 Vibration     9          0.682              1.704              1.512
 Vibration    10          0.707              1.631              1.299
 Vibration    11          0.763              1.478              0.977
 Vibration    12          0.785              1.421              0.882
 Vibration    13          0.798              1.388              0.833
 Vibration    14          0.825              1.322              0.744
 Vibration    15          0.972              1.004              0.428

 Optimization completed.
    -- Stationary point found.
 Normal termination of Gaussian 16 at Tue Jun  1 15:31:14 2021.
