 Gaussian 16, Revision A.03,
 Gaussian 16:  ES64L-G16RevA.03 25-Dec-2016

 -----------------------------
 # opt freq b3lyp/6-31g(2df,p)
 -----------------------------

 -------------------
 Title Card Required
 -------------------
 Symbolic Z-matrix:
 Charge =  0 Multiplicity = 1

 SCF Done:  E(RB3LYP) =  -426.384122291     A.U. after   12 cycles
 SCF Done:  E(RB3LYP) =  -426.391481786     A.U. after   11 cycles
 SCF Done:  E(RB3LYP) =  -426.392911173     A.U. after   11 cycles
 SCF Done:  E(RB3LYP) =  -426.393592118     A.U. after   11 cycles
 SCF Done:  E(RB3LYP) =  -426.394842671     A.U. after   13 cycles
 SCF Done:  E(RB3LYP) =  -426.370194975     A.U. after   12 cycles
 SCF Done:  E(RB3LYP) =  -426.398050766     A.U. after   11 cycles
 SCF Done:  E(RB3LYP) =  -426.398516887     A.U. after   11 cycles
 SCF Done:  E(RB3LYP) =  -426.398612304     A.U. after   10 cycles
 SCF Done:  E(RB3LYP) =  -426.399050180     A.U. after   10 cycles
 SCF Done:  E(RB3LYP) =  -426.399447982     A.U. after   10 cycles
 SCF Done:  E(RB3LYP) =  -426.399475713     A.U. after    9 cycles
 SCF Done:  E(RB3LYP) =  -426.399483269     A.U. after    8 cycles
 SCF Done:  E(RB3LYP) =  -426.399483798     A.U. after    7 cycles
 SCF Done:  E(RB3LYP) =  -426.399483937     A.U. after    6 cycles
 SCF Done:  E(RB3LYP) =  -426.399483980     A.U. after    6 cycles
 Optimization completed.
    -- Stationary point found.
 Normal termination of Gaussian 16 at Mon May 31 23:13:21 2021.

 ----------------------------------------------------------------------
 #N Geom=AllCheck Guess=TCheck SCRF=Check GenChk RB3LYP/6-31G(2df,p) Fr
 eq
 ----------------------------------------------------------------------

 Structure from the checkpoint file:  "CCCCNNpCpCCC.chk"
 -------------------
 Title Card Required
 -------------------
 Charge =  0 Multiplicity = 1

                         Standard orientation:
 ---------------------------------------------------------------------
 Center     Atomic      Atomic             Coordinates (Angstroms)
 Number     Number       Type             X           Y           Z
 ---------------------------------------------------------------------
      1          6           0       -4.907487   -0.584836    0.197538
      2          6           0       -3.518743   -0.693828   -0.437688
      3          6           0       -2.468433    0.172778    0.264752
      4          6           0       -1.081105    0.060338   -0.367048
      5          7           0       -0.138545    0.941895    0.315153
      6          7           0        1.179086    0.849839   -0.225722
      7          6           0        1.826403    2.146243   -0.083948
      8          6           0        1.949223   -0.244740    0.368610
      9          6           0        3.235698   -0.581695   -0.391242
     10          6           0        3.926134   -1.829096    0.168448
     11          1           0       -5.636720   -1.211675   -0.325204
     12          1           0       -5.274871    0.447016    0.170645
     13          1           0       -4.888917   -0.900243    1.246824
     14          1           0       -3.576132   -0.405224   -1.495401
     15          1           0       -3.192554   -1.742210   -0.427375
     16          1           0       -2.412149   -0.117308    1.324419
     17          1           0       -2.779090    1.224778    0.251756
     18          1           0       -1.115049    0.373601   -1.416364
     19          1           0       -0.765794   -0.999213   -0.366605
     20          1           0       -0.121576    0.724114    1.315711
     21          1           0        1.179343    2.909173   -0.519255
     22          1           0        2.782136    2.149614   -0.615138
     23          1           0        2.019183    2.416808    0.971787
     24          1           0        1.306010   -1.131799    0.366980
     25          1           0        2.191218   -0.027610    1.430502
     26          1           0        3.931938    0.263391   -0.349846
     27          1           0        2.984054   -0.728336   -1.447912
     28          1           0        4.193424   -1.697432    1.222901
     29          1           0        4.845680   -2.052184   -0.380823
     30          1           0        3.275940   -2.708379    0.099851
 ---------------------------------------------------------------------

 SCF Done:  E(RB3LYP) =  -426.399483980     A.U. after    1 cycles

 The electronic state is 1-A.
 Alpha  occ. eigenvalues --  -14.33491 -14.32751 -10.19927 -10.19453 -10.18872
 Alpha  occ. eigenvalues --  -10.17839 -10.17762 -10.17454 -10.17417 -10.17051
 Alpha  occ. eigenvalues --   -0.96595  -0.82629  -0.78214  -0.76317  -0.69948
 Alpha  occ. eigenvalues --   -0.68831  -0.62804  -0.60215  -0.57944  -0.57185
 Alpha  occ. eigenvalues --   -0.49502  -0.47343  -0.46851  -0.45150  -0.44460
 Alpha  occ. eigenvalues --   -0.41860  -0.41400  -0.39954  -0.39758  -0.37903
 Alpha  occ. eigenvalues --   -0.37343  -0.36740  -0.35431  -0.34674  -0.33852
 Alpha  occ. eigenvalues --   -0.33001  -0.32769  -0.32109  -0.31869  -0.22271
 Alpha  occ. eigenvalues --   -0.21592
 Alpha virt. eigenvalues --    0.08545   0.09447   0.09959   0.11215   0.12593
 Alpha virt. eigenvalues --    0.13177   0.13815   0.14513   0.15085   0.16253
 Alpha virt. eigenvalues --    0.17020   0.17277   0.17652   0.17945   0.18569

 Mulliken charges:
               1
     1  C   -0.378766
     2  C   -0.162752
     3  C   -0.179437
     4  C   -0.101681
     5  N   -0.286838
     6  N   -0.060389
     7  C   -0.297551
     8  C   -0.104323
     9  C   -0.182623
    10  C   -0.380011
    11  H    0.110523
    12  H    0.114779
    13  H    0.112314
    14  H    0.097331
    15  H    0.094486
    16  H    0.085407
    17  H    0.104828
    18  H    0.107547
    19  H    0.073582
    20  H    0.194127
    21  H    0.125192
    22  H    0.114634
    23  H    0.083028
    24  H    0.099036
    25  H    0.066201
    26  H    0.100039
    27  H    0.107276
    28  H    0.115095
    29  H    0.114342
    30  H    0.114601
 Sum of Mulliken charges =  -0.00000

 Dipole moment (field-independent basis, Debye):
    X=              0.2929    Y=             -0.7769    Z=              0.6510  Tot=              1.0551
 Quadrupole moment (field-independent basis, Debye-Ang):
   XX=            -63.8826   YY=            -66.9976   ZZ=            -65.7421
   XY=              0.7984   XZ=              0.6227   YZ=             -0.1027

  Exact polarizability: 130.820   0.674 100.378  -0.313   0.305  90.657
 Approx polarizability: 147.746   1.446 140.297  -0.018   0.037 140.211

                      1                      2                      3
                      A                      A                      A
 Frequencies --     40.0503                52.7817                63.8272
 Red. masses --      2.7464                 1.9722                 1.6393
 Frc consts  --      0.0026                 0.0032                 0.0039
 IR Inten    --      0.1439                 0.0311                 0.0145

                      4                      5                      6
                      A                      A                      A
 Frequencies --     85.7821               118.4089               123.7293
 Red. masses --      2.3409                 2.6937                 2.1946
 Frc consts  --      0.0101                 0.0223                 0.0198
 IR Inten    --      0.1318                 0.2978                 0.3982

                      7                      8                      9
                      A                      A                      A
 Frequencies --    155.3437               204.8933               215.6129
 Red. masses --      2.1684                 2.6626                 1.3870
 Frc consts  --      0.0308                 0.0659                 0.0380
 IR Inten    --      0.7087                 0.8464                 0.4947

                     10                     11                     12
                      A                      A                      A
 Frequencies --    237.9672               248.9725               269.3116
 Red. masses --      1.1601                 1.1270                 2.1326
 Frc consts  --      0.0387                 0.0412                 0.0911
 IR Inten    --      0.0206                 0.0415                 1.4816

                     13                     14                     15
                      A                      A                      A
 Frequencies --    309.2271               349.0817               391.8750
 Red. masses --      2.4516                 2.9130                 2.5902
 Frc consts  --      0.1381                 0.2091                 0.2344
 IR Inten    --      1.5863                 0.2865                 2.3979

                     16                     17                     18
                      A                      A                      A
 Frequencies --    439.9357               511.8820               532.4685
 Red. masses --      2.6064                 3.0566                 3.3394
 Frc consts  --      0.2972                 0.4719                 0.5578
 IR Inten    --      4.1945                 1.2645                 7.8725

                     19                     20                     21
                      A                      A                      A
 Frequencies --    741.9933               758.9652               791.6110
 Red. masses --      1.0746                 1.1019                 1.7851
 Frc consts  --      0.3486                 0.3740                 0.6591
 IR Inten    --      2.1177                 3.9724                24.5898

                     22                     23                     24
                      A                      A                      A
 Frequencies --    810.1869               886.6871               895.1713
 Red. masses --      1.2489                 1.7265                 1.3158
 Frc consts  --      0.4830                 0.7997                 0.6212
 IR Inten    --      2.8869                28.6989                 6.5624

                     25                     26                     27
                      A                      A                      A
 Frequencies --    904.0852               938.0463               957.3370
 Red. masses --      1.8041                 1.7494                 1.3598
 Frc consts  --      0.8688                 0.9069                 0.7343
 IR Inten    --      2.4179                14.9321                 9.0224

                     28                     29                     30
                      A                      A                      A
 Frequencies --   1024.4259              1030.3464              1049.7205
 Red. masses --      2.6553                 2.2087                 2.4442
 Frc consts  --      1.6418                 1.3815                 1.5869
 IR Inten    --     10.7469                 4.5432                 4.5582

                     31                     32                     33
                      A                      A                      A
 Frequencies --   1069.5792              1087.9124              1116.0664
 Red. masses --      2.2447                 2.0833                 2.8181
 Frc consts  --      1.5130                 1.4527                 2.0681
 IR Inten    --      2.0083                 9.4393                 4.1487

                     34                     35                     36
                      A                      A                      A
 Frequencies --   1129.3671              1146.2299              1150.0287
 Red. masses --      1.4720                 2.3105                 1.8115
 Frc consts  --      1.1062                 1.7885                 1.4116
 IR Inten    --      1.3652                 9.3607                 7.0321

                     37                     38                     39
                      A                      A                      A
 Frequencies --   1208.8234              1226.5577              1244.4035
 Red. masses --      1.9300                 2.2707                 2.4587
 Frc consts  --      1.6617                 2.0127                 2.2432
 IR Inten    --      3.8572                 0.7979                 4.2727

                     40                     41                     42
                      A                      A                      A
 Frequencies --   1255.9397              1285.7640              1290.9049
 Red. masses --      1.4202                 1.2940                 1.3261
 Frc consts  --      1.3199                 1.2604                 1.3020
 IR Inten    --      1.6618                 6.7569                 3.0865

                     43                     44                     45
                      A                      A                      A
 Frequencies --   1309.7515              1325.7412              1334.2904
 Red. masses --      1.1677                 1.0786                 1.1350
 Frc consts  --      1.1802                 1.1169                 1.1906
 IR Inten    --      2.3511                 0.6119                10.4424

                     46                     47                     48
                      A                      A                      A
 Frequencies --   1340.2556              1375.6164              1404.9951
 Red. masses --      1.3979                 1.3775                 1.5167
 Frc consts  --      1.4795                 1.5358                 1.7640
 IR Inten    --      0.0782                 0.9626                 9.2487

                     49                     50                     51
                      A                      A                      A
 Frequencies --   1407.1013              1414.0456              1414.8668
 Red. masses --      1.4171                 1.2604                 1.2526
 Frc consts  --      1.6531                 1.4848                 1.4774
 IR Inten    --      2.8682                 1.8055                 3.1105

                     52                     53                     54
                      A                      A                      A
 Frequencies --   1445.0771              1482.1049              1482.9734
 Red. masses --      1.1700                 1.0547                 1.1006
 Frc consts  --      1.4395                 1.3650                 1.4261
 IR Inten    --      0.8745                 7.8320                 2.2223

                     55                     56                     57
                      A                      A                      A
 Frequencies --   1486.4482              1493.8100              1495.1758
 Red. masses --      1.0650                 1.0688                 1.0634
 Frc consts  --      1.3864                 1.4052                 1.4007
 IR Inten    --      0.5065                 0.9167                 0.9214

                     58                     59                     60
                      A                      A                      A
 Frequencies --   1499.8546              1500.4783              1500.8752
 Red. masses --      1.0403                 1.0403                 1.0518
 Frc consts  --      1.3788                 1.3799                 1.3959
 IR Inten    --      4.3343                 5.3956                 2.3215

                     61                     62                     63
                      A                      A                      A
 Frequencies --   1507.5398              1510.3480              1521.4901
 Red. masses --      1.0965                 1.0842                 1.1484
 Frc consts  --      1.4682                 1.4571                 1.5663
 IR Inten    --      1.2594                 2.0695                 8.1863

                     64                     65                     66
                      A                      A                      A
 Frequencies --   1524.8883              2882.8461              2927.9453
 Red. masses --      1.0994                 1.0720                 1.0612
 Frc consts  --      1.5062                 5.2492                 5.3603
 IR Inten    --      5.4760                60.3447               105.7293

                     67                     68                     69
                      A                      A                      A
 Frequencies --   2930.2237              2999.8937              3015.7321
 Red. masses --      1.0722                 1.0649                 1.0607
 Frc consts  --      5.4240                 5.6465                 5.6835
 IR Inten    --     40.1298                13.2700                32.0172

                     70                     71                     72
                      A                      A                      A
 Frequencies --   3028.5793              3029.4923              3035.6670
 Red. masses --      1.0362                 1.0365                 1.0596
 Frc consts  --      5.6000                 5.6046                 5.7532
 IR Inten    --     35.0823                22.3525                16.5374

                     73                     74                     75
                      A                      A                      A
 Frequencies --   3038.7383              3052.7706              3053.1931
 Red. masses --      1.0939                 1.0857                 1.0896
 Frc consts  --      5.9511                 5.9615                 5.9844
 IR Inten    --      9.4470                15.3128                14.5754

                     76                     77                     78
                      A                      A                      A
 Frequencies --   3068.8054              3071.3420              3082.5236
 Red. masses --      1.0973                 1.0984                 1.0737
 Frc consts  --      6.0884                 6.1046                 6.0109
 IR Inten    --     45.6342                 9.6651                35.4836

                     79                     80                     81
                      A                      A                      A
 Frequencies --   3095.4914              3099.1786              3100.7304
 Red. masses --      1.1021                 1.1023                 1.1010
 Frc consts  --      6.2218                 6.2381                 6.2370
 IR Inten    --     60.0240                59.2616                39.9147

                     82                     83                     84
                      A                      A                      A
 Frequencies --   3104.4023              3136.4692              3368.2983
 Red. masses --      1.1005                 1.1013                 1.0729
 Frc consts  --      6.2487                 6.3833                 7.1716
 IR Inten    --     38.6333                21.3982                17.4364

 - Thermochemistry -
 -------------------
 Temperature   298.150 Kelvin.  Pressure   1.00000 Atm.
 Atom     1 has atomic number  6 and mass  12.00000

 Molecular mass:   144.16265 amu.
 Principal axes and moments of inertia in atomic units:
                           1         2         3
     Eigenvalues --   736.260274245.728244776.36494
           X            1.00000  -0.00129   0.00045
           Y            0.00129   1.00000   0.00050
           Z           -0.00045  -0.00050   1.00000
 This molecule is an asymmetric top.
 Rotational symmetry number  1.
 Warning -- assumption of classical behavior for rotation
           may cause significant error
 Rotational temperatures (Kelvin)      0.11764     0.02040     0.01813
 Rotational constants (GHZ):           2.45123     0.42507     0.37785
 Zero-point vibrational energy     731225.5 (Joules/Mol)
                                  174.76708 (Kcal/Mol)
 Warning -- explicit consideration of  18 degrees of freedom as
           vibrations may cause significant error
 Vibrational temperatures:     57.62    75.94    91.83   123.42   170.36
          (Kelvin)            178.02   223.50   294.80   310.22   342.38
                              358.22   387.48   444.91   502.25   563.82
                              632.97   736.48   766.10  1067.56  1091.98
                             1138.95  1165.68  1275.74  1287.95  1300.78
                             1349.64  1377.39  1473.92  1482.44  1510.31
                             1538.89  1565.26  1605.77  1624.91  1649.17
                             1654.63  1739.23  1764.74  1790.42  1807.02
                             1849.93  1857.32  1884.44  1907.45  1919.75
                             1928.33  1979.21  2021.47  2024.50  2034.50
                             2035.68  2079.14  2132.42  2133.67  2138.67
                             2149.26  2151.22  2157.96  2158.85  2159.42
                             2169.01  2173.05  2189.08  2193.97  4147.77
                             4212.66  4215.94  4316.18  4338.97  4357.45
                             4358.76  4367.65  4372.07  4392.26  4392.86
                             4415.33  4418.98  4435.06  4453.72  4459.03
                             4461.26  4466.54  4512.68  4846.23

 Zero-point correction=                           0.278509 (Hartree/Particle)
 Thermal correction to Energy=                    0.291999
 Thermal correction to Enthalpy=                  0.292943
 Thermal correction to Gibbs Free Energy=         0.237714
 Sum of electronic and zero-point Energies=           -426.120975
 Sum of electronic and thermal Energies=              -426.107485
 Sum of electronic and thermal Enthalpies=            -426.106541
 Sum of electronic and thermal Free Energies=         -426.161770

                     E (Thermal)             CV                S
                      KCal/Mol        Cal/Mol-Kelvin    Cal/Mol-Kelvin
 Total                  183.232             47.934            116.240
 Electronic               0.000              0.000              0.000
 Translational            0.889              2.981             40.808
 Rotational               0.889              2.981             31.080
 Vibrational            181.455             41.973             44.352
 Vibration     1          0.594              1.981              5.257
 Vibration     2          0.596              1.976              4.710
 Vibration     3          0.597              1.972              4.335
 Vibration     4          0.601              1.959              3.754
 Vibration     5          0.609              1.934              3.126
 Vibration     6          0.610              1.929              3.041
 Vibration     7          0.620              1.897              2.606
 Vibration     8          0.640              1.833              2.089
 Vibration     9          0.645              1.817              1.996
 Vibration    10          0.656              1.783              1.818
 Vibration    11          0.662              1.764              1.738
 Vibration    12          0.674              1.730              1.601
 Vibration    13          0.699              1.656              1.366
 Vibration    14          0.726              1.577              1.170
 Vibration    15          0.759              1.488              0.993
 Vibration    16          0.800              1.383              0.827
 Vibration    17          0.867              1.224              0.629
 Vibration    18          0.887              1.178              0.582

 Optimization completed.
    -- Stationary point found.
 Normal termination of Gaussian 16 at Tue Jun  1 00:03:10 2021.
