 Gaussian 16, Revision A.03,
 Gaussian 16:  ES64L-G16RevA.03 25-Dec-2016

 -----------------------------
 # opt freq b3lyp/6-31g(2df,p)
 -----------------------------

 -------------------
 Title Card Required
 -------------------
 Symbolic Z-matrix:
 Charge =  0 Multiplicity = 1

 SCF Done:  E(RB3LYP) =  -401.893364681     A.U. after   13 cycles
 SCF Done:  E(RB3LYP) =  -401.898644268     A.U. after   11 cycles
 SCF Done:  E(RB3LYP) =  -401.899308291     A.U. after   10 cycles
 SCF Done:  E(RB3LYP) =  -401.899406507     A.U. after    9 cycles
 SCF Done:  E(RB3LYP) =  -401.899412176     A.U. after    8 cycles
 Optimization completed.
    -- Stationary point found.
 Normal termination of Gaussian 16 at Tue Jun  1 00:39:39 2021.

 ----------------------------------------------------------------------
 #N Geom=AllCheck Guess=TCheck SCRF=Check GenChk RB3LYP/6-31G(2df,p) Fr
 eq
 ----------------------------------------------------------------------

 Structure from the checkpoint file:  "CCCCNpCpCdNN.chk"
 -------------------
 Title Card Required
 -------------------
 Charge =  0 Multiplicity = 1

                         Standard orientation:
 ---------------------------------------------------------------------
 Center     Atomic      Atomic             Coordinates (Angstroms)
 Number     Number       Type             X           Y           Z
 ---------------------------------------------------------------------
      1          6           0        4.389533    0.033186   -0.000006
      2          6           0        3.057204   -0.720594    0.000002
      3          6           0        1.842267    0.215989   -0.000001
      4          6           0        0.530050   -0.566755    0.000008
      5          7           0       -0.686930    0.236561   -0.000000
      6          6           0       -0.742072    1.682129    0.000002
      7          6           0       -1.887871   -0.440398   -0.000001
      8          7           0       -3.016539    0.161935    0.000001
      9          7           0       -4.148539   -0.597920    0.000010
     10          1           0        5.237589   -0.658373   -0.000004
     11          1           0        4.482259    0.674052    0.883753
     12          1           0        4.482255    0.674039   -0.883776
     13          1           0        3.008080   -1.378762    0.877183
     14          1           0        3.008076   -1.378774   -0.877169
     15          1           0        1.892526    0.868768   -0.880412
     16          1           0        1.892531    0.868781    0.880399
     17          1           0        0.533312   -1.231268    0.879644
     18          1           0        0.533310   -1.231285   -0.879615
     19          1           0        0.260811    2.104005   -0.000001
     20          1           0       -1.283202    2.053802    0.880754
     21          1           0       -1.283206    2.053803   -0.880748
     22          1           0       -1.792227   -1.532898   -0.000001
     23          1           0       -5.017453   -0.105974   -0.000058
     24          1           0       -4.125267   -1.605285   -0.000047
 ---------------------------------------------------------------------

 SCF Done:  E(RB3LYP) =  -401.899412176     A.U. after    1 cycles

 The electronic state is 1-A.
 Alpha  occ. eigenvalues --  -14.32583 -14.32306 -14.31690 -10.21281 -10.21025
 Alpha  occ. eigenvalues --  -10.19358 -10.18529 -10.18481 -10.17602  -0.96494
 Alpha  occ. eigenvalues --   -0.91620  -0.79998  -0.76519  -0.72319  -0.68780
 Alpha  occ. eigenvalues --   -0.62339  -0.58121  -0.55635  -0.51182  -0.50326
 Alpha  occ. eigenvalues --   -0.48223  -0.45582  -0.43933  -0.42684  -0.41311
 Alpha  occ. eigenvalues --   -0.40272  -0.37543  -0.37213  -0.36352  -0.35272
 Alpha  occ. eigenvalues --   -0.33644  -0.33546  -0.33067  -0.25304  -0.25092
 Alpha  occ. eigenvalues --   -0.15114
 Alpha virt. eigenvalues --    0.05933   0.08375   0.09683   0.11134   0.12127
 Alpha virt. eigenvalues --    0.12439   0.13133   0.15442   0.15812   0.16513
 Alpha virt. eigenvalues --    0.18015   0.18042   0.18983   0.19085   0.19998

 Mulliken charges:
               1
     1  C   -0.382974
     2  C   -0.165886
     3  C   -0.200902
     4  C   -0.131189
     5  N   -0.070093
     6  C   -0.318922
     7  C    0.096557
     8  N   -0.222079
     9  N   -0.458927
    10  H    0.113572
    11  H    0.115572
    12  H    0.115572
    13  H    0.099055
    14  H    0.099055
    15  H    0.106873
    16  H    0.106874
    17  H    0.096850
    18  H    0.096850
    19  H    0.115163
    20  H    0.122180
    21  H    0.122180
    22  H    0.062632
    23  H    0.254828
    24  H    0.227157
 Sum of Mulliken charges =  -0.00000

 Dipole moment (field-independent basis, Debye):
    X=              1.1299    Y=             -1.2525    Z=             -0.0002  Tot=              1.6869
 Quadrupole moment (field-independent basis, Debye-Ang):
   XX=            -52.5457   YY=            -54.2291   ZZ=            -58.7550
   XY=              4.4110   XZ=              0.0009   YZ=              0.0002

  Exact polarizability: 134.764   2.653  84.954   0.000   0.000  63.915
 Approx polarizability: 165.738  -1.582 122.806  -0.000   0.000  98.611

 ******    2 imaginary frequencies (negative Signs) ******

                      1                      2                      3
                      A                      A                      A
 Frequencies --   -751.5685              -192.3277                15.2353
 Red. masses --      1.2739                 2.0841                 3.0111
 Frc consts  --      0.4239                 0.0454                 0.0004
 IR Inten    --    202.2746                 0.0247                 0.0374

                      4                      5                      6
                      A                      A                      A
 Frequencies --     94.0664               100.0120               133.4977
 Red. masses --      1.6897                 3.5067                 1.9379
 Frc consts  --      0.0088                 0.0207                 0.0203
 IR Inten    --      0.4547                 0.7322                 5.1433

                      7                      8                      9
                      A                      A                      A
 Frequencies --    138.9499               179.0344               203.7610
 Red. masses --      1.4941                 1.8582                 3.0878
 Frc consts  --      0.0170                 0.0351                 0.0755
 IR Inten    --      1.7217                11.6669                 4.3778

                     10                     11                     12
                      A                      A                      A
 Frequencies --    252.5180               310.0239               339.0626
 Red. masses --      1.1463                 4.6525                 2.8673
 Frc consts  --      0.0431                 0.2635                 0.1942
 IR Inten    --      0.0062                 4.3284                 1.3451

                     13                     14                     15
                      A                      A                      A
 Frequencies --    348.0468               399.5444               401.6856
 Red. masses --      3.2515                 1.2940                 3.0552
 Frc consts  --      0.2321                 0.1217                 0.2904
 IR Inten    --      1.3385                 4.5109                11.7666

                     16                     17                     18
                      A                      A                      A
 Frequencies --    487.5003               670.5912               751.1845
 Red. masses --      3.1034                 3.8442                 1.0695
 Frc consts  --      0.4345                 1.0185                 0.3556
 IR Inten    --     17.0502                 2.9726                 2.3487

                     19                     20                     21
                      A                      A                      A
 Frequencies --    805.3156               884.4975               913.3931
 Red. masses --      1.1421                 3.6418                 1.7942
 Frc consts  --      0.4364                 1.6787                 0.8819
 IR Inten    --      0.4719                 0.3672                 4.5091

                     22                     23                     24
                      A                      A                      A
 Frequencies --    919.1768               959.4942              1028.6115
 Red. masses --      1.4403                 1.1615                 3.3019
 Frc consts  --      0.7170                 0.6300                 2.0584
 IR Inten    --      2.7370                 0.0446                 0.8482

                     25                     26                     27
                      A                      A                      A
 Frequencies --   1064.6068              1100.8532              1122.5586
 Red. masses --      2.3967                 1.7765                 2.5487
 Frc consts  --      1.6004                 1.2685                 1.8923
 IR Inten    --      1.3497                78.5339                 4.4505

                     28                     29                     30
                      A                      A                      A
 Frequencies --   1136.1046              1149.7776              1183.8395
 Red. masses --      4.4637                 1.2978                 1.5435
 Frc consts  --      3.3946                 1.0109                 1.2745
 IR Inten    --    171.7219                 0.3113                 0.2396

                     31                     32                     33
                      A                      A                      A
 Frequencies --   1186.3625              1257.8879              1282.4358
 Red. masses --      1.3870                 1.2985                 1.5088
 Frc consts  --      1.1502                 1.2105                 1.4620
 IR Inten    --     14.2265                 0.0000                24.5617

                     34                     35                     36
                      A                      A                      A
 Frequencies --   1293.6223              1325.2589              1331.5308
 Red. masses --      1.8320                 1.1374                 1.0558
 Frc consts  --      1.8063                 1.1770                 1.1029
 IR Inten    --     99.2129                 0.6815                 0.0965

                     37                     38                     39
                      A                      A                      A
 Frequencies --   1353.1802              1394.7458              1413.6855
 Red. masses --      2.1997                 1.7112                 1.2418
 Frc consts  --      2.3731                 1.9613                 1.4622
 IR Inten    --     48.2175                 8.3851                 3.3480

                     40                     41                     42
                      A                      A                      A
 Frequencies --   1427.7419              1442.7770              1468.6743
 Red. masses --      1.8053                 1.5278                 1.0398
 Frc consts  --      2.1682                 1.8738                 1.3214
 IR Inten    --    110.2451                29.8321                 2.1468

                     43                     44                     45
                      A                      A                      A
 Frequencies --   1470.6750              1488.4315              1498.5637
 Red. masses --      1.2910                 1.0613                 1.0747
 Frc consts  --      1.6452                 1.3854                 1.4220
 IR Inten    --     11.4169                 0.4385                 0.0324

                     46                     47                     48
                      A                      A                      A
 Frequencies --   1500.1374              1511.3585              1525.3791
 Red. masses --      1.0400                 1.0843                 1.0705
 Frc consts  --      1.3790                 1.4593                 1.4675
 IR Inten    --      5.4303                 4.1567                16.6450

                     49                     50                     51
                      A                      A                      A
 Frequencies --   1534.8920              1632.3260              1742.1244
 Red. masses --      1.0877                 1.1476                 5.9250
 Frc consts  --      1.5097                 1.8015                10.5949
 IR Inten    --     21.5533                10.7129                74.2358

                     52                     53                     54
                      A                      A                      A
 Frequencies --   2951.2819              2966.5120              3002.2647
 Red. masses --      1.0555                 1.1043                 1.0410
 Frc consts  --      5.4166                 5.7259                 5.5285
 IR Inten    --     82.2266                39.1996                53.2787

                     55                     56                     57
                      A                      A                      A
 Frequencies --   3014.5938              3023.6061              3030.8820
 Red. masses --      1.0579                 1.0572                 1.0374
 Frc consts  --      5.6646                 5.6948                 5.6149
 IR Inten    --      1.8886                42.8086                41.8994

                     58                     59                     60
                      A                      A                      A
 Frequencies --   3033.3037              3040.6196              3041.5253
 Red. masses --      1.1022                 1.0854                 1.1007
 Frc consts  --      5.9749                 5.9124                 5.9992
 IR Inten    --     35.6833                52.4170                 0.8376

                     61                     62                     63
                      A                      A                      A
 Frequencies --   3069.1945              3097.6592              3103.4591
 Red. masses --      1.1050                 1.1023                 1.1010
 Frc consts  --      6.1327                 6.2321                 6.2476
 IR Inten    --     34.4034                57.8667                36.2220

                     64                     65                     66
                      A                      A                      A
 Frequencies --   3164.3212              3575.4791              3786.5161
 Red. masses --      1.0927                 1.0479                 1.0991
 Frc consts  --      6.4461                 7.8931                 9.2847
 IR Inten    --     17.1597                 7.5124                47.4005

 - Thermochemistry -
 -------------------
 Temperature   298.150 Kelvin.  Pressure   1.00000 Atm.
 Atom     1 has atomic number  6 and mass  12.00000

 Molecular mass:   129.12660 amu.
 Principal axes and moments of inertia in atomic units:
                           1         2         3
     Eigenvalues --   316.423933435.150383695.78878
           X            1.00000   0.00166   0.00000
           Y           -0.00166   1.00000   0.00000
           Z           -0.00000  -0.00000   1.00000
 This molecule is an asymmetric top.
 Rotational symmetry number  1.
 Rotational temperatures (Kelvin)      0.27373     0.02521     0.02344
 Rotational constants (GHZ):           5.70355     0.52537     0.48832
    2 imaginary frequencies ignored.
 Zero-point vibrational energy     562699.1 (Joules/Mol)
                                  134.48832 (Kcal/Mol)
 Warning -- explicit consideration of  14 degrees of freedom as
           vibrations may cause significant error
 Vibrational temperatures:     21.92   135.34   143.89   192.07   199.92
          (Kelvin)            257.59   293.17   363.32   446.06   487.84
                              500.76   574.86   577.94   701.40   964.83
                             1080.79  1158.67  1272.59  1314.17  1322.49
                             1380.50  1479.94  1531.73  1583.88  1615.11
                             1634.60  1654.27  1703.28  1706.91  1809.82
                             1845.14  1861.23  1906.75  1915.78  1946.92
                             2006.73  2033.98  2054.20  2075.83  2113.09
                             2115.97  2141.52  2156.10  2158.36  2174.51
                             2194.68  2208.37  2348.55  2506.53  4246.24
                             4268.15  4319.59  4337.33  4350.29  4360.76
                             4364.25  4374.77  4376.08  4415.89  4456.84
                             4465.19  4552.75  5144.32  5447.95

 Zero-point correction=                           0.214321 (Hartree/Particle)
 Thermal correction to Energy=                    0.225329
 Thermal correction to Enthalpy=                  0.226273
 Thermal correction to Gibbs Free Energy=         0.176478
 Sum of electronic and zero-point Energies=           -401.685091
 Sum of electronic and thermal Energies=              -401.674083
 Sum of electronic and thermal Enthalpies=            -401.673139
 Sum of electronic and thermal Free Energies=         -401.722934

                     E (Thermal)             CV                S
                      KCal/Mol        Cal/Mol-Kelvin    Cal/Mol-Kelvin
 Total                  141.396             38.426            104.802
 Electronic               0.000              0.000              0.000
 Translational            0.889              2.981             40.480
 Rotational               0.889              2.981             29.775
 Vibrational            139.619             32.465             34.547
 Vibration     1          0.593              1.986              7.175
 Vibration     2          0.603              1.953              3.574
 Vibration     3          0.604              1.949              3.454
 Vibration     4          0.613              1.920              2.895
 Vibration     5          0.615              1.914              2.818
 Vibration     6          0.629              1.868              2.338
 Vibration     7          0.639              1.835              2.099
 Vibration     8          0.664              1.759              1.713
 Vibration     9          0.699              1.655              1.362
 Vibration    10          0.719              1.597              1.217
 Vibration    11          0.726              1.579              1.175
 Vibration    12          0.766              1.471              0.964
 Vibration    13          0.767              1.466              0.956
 Vibration    14          0.843              1.278              0.690

                           ! Non-Optimized Parameters !
 Normal termination of Gaussian 16 at Tue Jun  1 01:11:11 2021.
