 Gaussian 16, Revision A.03,
 Gaussian 16:  ES64L-G16RevA.03 25-Dec-2016

 -----------------------------
 # opt freq b3lyp/6-31g(2df,p)
 -----------------------------

 -------------------
 Title Card Required
 -------------------
 Symbolic Z-matrix:
 Charge =  0 Multiplicity = 1

 SCF Done:  E(RB3LYP) =  -496.562779564     A.U. after   14 cycles
 SCF Done:  E(RB3LYP) =  -496.567451208     A.U. after   13 cycles
 SCF Done:  E(RB3LYP) =  -496.570375205     A.U. after   12 cycles
 SCF Done:  E(RB3LYP) =  -496.570582346     A.U. after   12 cycles
 SCF Done:  E(RB3LYP) =  -496.570646302     A.U. after   11 cycles
 SCF Done:  E(RB3LYP) =  -496.570705404     A.U. after   10 cycles
 SCF Done:  E(RB3LYP) =  -496.570791077     A.U. after   12 cycles
 SCF Done:  E(RB3LYP) =  -496.570649725     A.U. after   13 cycles
 SCF Done:  E(RB3LYP) =  -496.571293021     A.U. after   13 cycles
 SCF Done:  E(RB3LYP) =  -496.571678651     A.U. after   14 cycles
 SCF Done:  E(RB3LYP) =  -496.572522343     A.U. after   13 cycles
 SCF Done:  E(RB3LYP) =  -496.573058981     A.U. after   15 cycles
 SCF Done:  E(RB3LYP) =  -496.573201345     A.U. after   12 cycles
 SCF Done:  E(RB3LYP) =  -496.573252211     A.U. after   13 cycles
 SCF Done:  E(RB3LYP) =  -496.573430572     A.U. after   12 cycles
 SCF Done:  E(RB3LYP) =  -496.573448374     A.U. after   10 cycles
 SCF Done:  E(RB3LYP) =  -496.573452807     A.U. after   10 cycles
 SCF Done:  E(RB3LYP) =  -496.573453482     A.U. after    8 cycles
 SCF Done:  E(RB3LYP) =  -496.573453575     A.U. after    7 cycles
 Optimization completed.
    -- Stationary point found.
 Normal termination of Gaussian 16 at Mon May 31 15:10:34 2021.

 ----------------------------------------------------------------------
 #N Geom=AllCheck Guess=TCheck SCRF=Check GenChk RB3LYP/6-31G(2df,p) Fr
 eq
 ----------------------------------------------------------------------

 Structure from the checkpoint file:  "CCCCCpNpCCNNdN.chk"
 -------------------
 Title Card Required
 -------------------
 Charge =  0 Multiplicity = 1

                         Standard orientation:
 ---------------------------------------------------------------------
 Center     Atomic      Atomic             Coordinates (Angstroms)
 Number     Number       Type             X           Y           Z
 ---------------------------------------------------------------------
      1          6           0        5.356058   -0.541245    0.239681
      2          6           0        3.961825   -0.940347   -0.250979
      3          6           0        2.861523    0.023560    0.207748
      4          6           0        1.464862   -0.369128   -0.284923
      5          6           0        0.332251    0.561062    0.194613
      6          7           0        0.462682    1.965920   -0.226134
      7          6           0       -1.038891    0.036746   -0.256770
      8          6           0       -2.211143    0.791252    0.386681
      9          7           0       -3.517003    0.367305   -0.080955
     10          7           0       -4.036402   -0.747897    0.433261
     11          7           0       -4.971627   -1.232871   -0.253499
     12          1           0        6.118251   -1.247874   -0.103153
     13          1           0        5.397529   -0.512393    1.334273
     14          1           0        5.635607    0.453025   -0.126564
     15          1           0        3.724633   -1.952971    0.100860
     16          1           0        3.959968   -0.994276   -1.347775
     17          1           0        3.108097    1.035362   -0.141758
     18          1           0        2.859113    0.072952    1.306286
     19          1           0        1.243793   -1.393010    0.045844
     20          1           0        1.457176   -0.396286   -1.384972
     21          1           0        0.346658    0.569849    1.294743
     22          1           0        0.596771    2.007045   -1.234436
     23          1           0        1.291438    2.382830    0.185512
     24          1           0       -1.127794   -1.028929   -0.017500
     25          1           0       -1.111615    0.117984   -1.351277
     26          1           0       -2.106483    1.862104    0.197190
     27          1           0       -2.200613    0.644863    1.471274
     28          1           0       -3.808806    0.583406   -1.032829
     29          1           0       -5.306190   -2.042278    0.279278
 ---------------------------------------------------------------------

 SCF Done:  E(RB3LYP) =  -496.573453575     A.U. after    1 cycles

 The electronic state is 1-A.
 Alpha  occ. eigenvalues --  -14.39635 -14.36236 -14.32652 -14.31259 -10.21402
 Alpha  occ. eigenvalues --  -10.21145 -10.18251 -10.18226 -10.18069 -10.17994
 Alpha  occ. eigenvalues --  -10.17512  -1.04972  -0.89489  -0.88502  -0.79729
 Alpha  occ. eigenvalues --   -0.76525  -0.73232  -0.68198  -0.63765  -0.60874
 Alpha  occ. eigenvalues --   -0.58207  -0.57859  -0.52224  -0.49900  -0.47255
 Alpha  occ. eigenvalues --   -0.46227  -0.45083  -0.43447  -0.42769  -0.42202
 Alpha  occ. eigenvalues --   -0.40905  -0.39345  -0.38198  -0.37729  -0.36978
 Alpha  occ. eigenvalues --   -0.35161  -0.34483  -0.33803  -0.32847  -0.32641
 Alpha  occ. eigenvalues --   -0.32195  -0.24509  -0.23045  -0.22609
 Alpha virt. eigenvalues --   -0.00229   0.06991   0.09380   0.09716   0.10775
 Alpha virt. eigenvalues --    0.10816   0.12834   0.13272   0.13655   0.14462
 Alpha virt. eigenvalues --    0.15372   0.16455   0.17071   0.17943   0.18321

 Mulliken charges:
               1
     1  C   -0.380465
     2  C   -0.163158
     3  C   -0.172567
     4  C   -0.185324
     5  C    0.021579
     6  N   -0.510679
     7  C   -0.176640
     8  C   -0.152697
     9  N   -0.167445
    10  N   -0.057721
    11  N   -0.373278
    12  H    0.112584
    13  H    0.114072
    14  H    0.112451
    15  H    0.096540
    16  H    0.094648
    17  H    0.082326
    18  H    0.091840
    19  H    0.094145
    20  H    0.084993
    21  H    0.079118
    22  H    0.219422
    23  H    0.230384
    24  H    0.107060
    25  H    0.085058
    26  H    0.131255
    27  H    0.120965
    28  H    0.225022
    29  H    0.236513
 Sum of Mulliken charges =  -0.00000

 Dipole moment (field-independent basis, Debye):
    X=              3.0918    Y=              0.4099    Z=             -0.4406  Tot=              3.1498
 Quadrupole moment (field-independent basis, Debye-Ang):
   XX=            -81.2348   YY=            -69.2501   ZZ=            -68.2512
   XY=              0.6642   XZ=             -1.0787   YZ=             -2.8034

  Exact polarizability: 141.807  13.821 102.720   3.131  -1.710  88.688
 Approx polarizability: 159.783  24.689 158.452   6.493  -2.551 141.709

                      1                      2                      3
                      A                      A                      A
 Frequencies --     35.9410                45.7859                56.0748
 Red. masses --      3.1000                 3.3499                 3.2901
 Frc consts  --      0.0024                 0.0041                 0.0061
 IR Inten    --      0.5213                 0.4992                 0.0111

                      4                      5                      6
                      A                      A                      A
 Frequencies --     74.4994                94.0378               114.9864
 Red. masses --      1.9054                 3.2918                 3.0149
 Frc consts  --      0.0062                 0.0172                 0.0235
 IR Inten    --      0.1495                 0.4311                 0.5773

                      7                      8                      9
                      A                      A                      A
 Frequencies --    150.7031               157.3387               203.1803
 Red. masses --      2.7491                 2.1047                 3.5155
 Frc consts  --      0.0368                 0.0307                 0.0855
 IR Inten    --      2.5285                 1.6420                 0.9785

                     10                     11                     12
                      A                      A                      A
 Frequencies --    245.2869               251.9985               265.2522
 Red. masses --      1.1156                 3.7988                 1.2093
 Frc consts  --      0.0395                 0.1421                 0.0501
 IR Inten    --      0.8359                 3.6265                23.6386

                     13                     14                     15
                      A                      A                      A
 Frequencies --    310.5714               344.6722               388.1168
 Red. masses --      2.6516                 2.8701                 3.3073
 Frc consts  --      0.1507                 0.2009                 0.2935
 IR Inten    --      7.7311                 2.9904                 8.4388

                     16                     17                     18
                      A                      A                      A
 Frequencies --    431.7316               498.8400               535.0750
 Red. masses --      2.3047                 2.4434                 2.8262
 Frc consts  --      0.2531                 0.3582                 0.4767
 IR Inten    --      2.5134                 4.2497                12.0440

                     19                     20                     21
                      A                      A                      A
 Frequencies --    637.4517               673.6943               736.6108
 Red. masses --      1.6428                 2.2463                 1.0831
 Frc consts  --      0.3933                 0.6007                 0.3463
 IR Inten    --     90.8937                50.3642                 3.2127

                     22                     23                     24
                      A                      A                      A
 Frequencies --    769.1913               791.2430               860.6245
 Red. masses --      1.2740                 1.2723                 2.2047
 Frc consts  --      0.4441                 0.4693                 0.9621
 IR Inten    --      1.0964                 1.3563               108.2590

                     25                     26                     27
                      A                      A                      A
 Frequencies --    894.1345               909.6178               920.9542
 Red. masses --      1.4744                 1.6585                 1.1803
 Frc consts  --      0.6945                 0.8085                 0.5898
 IR Inten    --     44.7005                 8.9140                37.6824

                     28                     29                     30
                      A                      A                      A
 Frequencies --    952.2422               976.2788               993.6039
 Red. masses --      1.7578                 1.9301                 2.7019
 Frc consts  --      0.9391                 1.0839                 1.5716
 IR Inten    --      4.2969                13.3690                 5.3766

                     31                     32                     33
                      A                      A                      A
 Frequencies --   1040.7393              1042.1473              1059.0236
 Red. masses --      1.7228                 2.6219                 1.4890
 Frc consts  --      1.0995                 1.6777                 0.9839
 IR Inten    --     13.8900                 1.3334                 4.1274

                     34                     35                     36
                      A                      A                      A
 Frequencies --   1072.7990              1096.4131              1126.5801
 Red. masses --      2.3331                 2.1874                 2.0184
 Frc consts  --      1.5821                 1.5492                 1.5093
 IR Inten    --      1.9203                 8.6375                20.5117

                     37                     38                     39
                      A                      A                      A
 Frequencies --   1163.5393              1195.3583              1221.8156
 Red. masses --      2.2575                 2.8274                 1.7975
 Frc consts  --      1.8007                 2.3803                 1.5810
 IR Inten    --     26.6294               148.3026                56.6950

                     40                     41                     42
                      A                      A                      A
 Frequencies --   1236.4273              1262.5150              1291.1800
 Red. masses --      1.4861                 1.2727                 1.3386
 Frc consts  --      1.3386                 1.1952                 1.3149
 IR Inten    --     13.2856                 4.5412                11.5598

                     43                     44                     45
                      A                      A                      A
 Frequencies --   1301.5264              1322.3003              1330.1830
 Red. masses --      1.3070                 1.1808                 1.0880
 Frc consts  --      1.3044                 1.2164                 1.1342
 IR Inten    --      1.4783                 6.7746                 3.4135

                     46                     47                     48
                      A                      A                      A
 Frequencies --   1345.7988              1352.8011              1380.7442
 Red. masses --      1.1927                 1.2893                 1.4022
 Frc consts  --      1.2727                 1.3902                 1.5750
 IR Inten    --      2.6295                 3.1084                 5.2711

                     49                     50                     51
                      A                      A                      A
 Frequencies --   1393.4777              1400.6904              1413.0070
 Red. masses --      1.4962                 1.4686                 1.2517
 Frc consts  --      1.7118                 1.6977                 1.4724
 IR Inten    --      1.7726                 9.1391                 0.6291

                     52                     53                     54
                      A                      A                      A
 Frequencies --   1415.7415              1466.5818              1475.3536
 Red. masses --      1.3511                 1.2279                 1.2104
 Frc consts  --      1.5955                 1.5560                 1.5523
 IR Inten    --      7.3622                 3.7712                 0.1387

                     55                     56                     57
                      A                      A                      A
 Frequencies --   1480.8877              1485.5974              1491.5694
 Red. masses --      1.2932                 1.0665                 1.1462
 Frc consts  --      1.6709                 1.3868                 1.5024
 IR Inten    --      0.4879                 0.6947                 3.8573

                     58                     59                     60
                      A                      A                      A
 Frequencies --   1498.8761              1499.8675              1500.5615
 Red. masses --      1.0795                 1.0403                 1.3616
 Frc consts  --      1.4289                 1.3789                 1.8064
 IR Inten    --      0.3939                 5.2427                 4.6959

                     61                     62                     63
                      A                      A                      A
 Frequencies --   1512.3411              1575.8140              1655.5132
 Red. masses --      1.0882                 4.6578                 1.0928
 Frc consts  --      1.4665                 6.8146                 1.7646
 IR Inten    --      2.6199               183.4359                17.7742

                     64                     65                     66
                      A                      A                      A
 Frequencies --   2991.2918              2995.2201              3001.1169
 Red. masses --      1.0716                 1.0665                 1.0605
 Frc consts  --      5.6492                 5.6375                 5.6276
 IR Inten    --      2.4477                 0.8551                 9.6506

                     67                     68                     69
                      A                      A                      A
 Frequencies --   3010.7108              3016.7722              3024.0150
 Red. masses --      1.0684                 1.0604                 1.0964
 Frc consts  --      5.7057                 5.6861                 5.9071
 IR Inten    --     30.5404                69.2820                 0.2920

                     70                     71                     72
                      A                      A                      A
 Frequencies --   3028.5654              3039.4118              3057.1232
 Red. masses --      1.0359                 1.1012                 1.1037
 Frc consts  --      5.5983                 5.9935                 6.0773
 IR Inten    --     38.2528                 4.5659                47.6751

                     73                     74                     75
                      A                      A                      A
 Frequencies --   3063.1205              3068.3808              3094.6003
 Red. masses --      1.0614                 1.0946                 1.1021
 Frc consts  --      5.8677                 6.0720                 6.2183
 IR Inten    --     25.8491                34.4655                56.7087

                     76                     77                     78
                      A                      A                      A
 Frequencies --   3101.2910              3119.1403              3389.6021
 Red. masses --      1.1009                 1.1041                 1.0746
 Frc consts  --      6.2384                 6.3289                 7.2742
 IR Inten    --     37.1794                14.6723                 0.8726

                     79                     80                     81
                      A                      A                      A
 Frequencies --   3469.2734              3475.0720              3565.3111
 Red. masses --      1.0738                 1.0510                 1.0897
 Frc consts  --      7.6144                 7.4780                 8.1612
 IR Inten    --      0.9017                 0.5954                 0.2839

 - Thermochemistry -
 -------------------
 Temperature   298.150 Kelvin.  Pressure   1.00000 Atm.
 Atom     1 has atomic number  6 and mass  12.00000

 Molecular mass:   158.15315 amu.
 Principal axes and moments of inertia in atomic units:
                           1         2         3
     Eigenvalues --   599.933606111.069326524.45372
           X            0.99998  -0.00589   0.00147
           Y            0.00590   0.99998  -0.00295
           Z           -0.00146   0.00296   0.99999
 This molecule is an asymmetric top.
 Rotational symmetry number  1.
 Warning -- assumption of classical behavior for rotation
           may cause significant error
 Rotational temperatures (Kelvin)      0.14437     0.01417     0.01328
 Rotational constants (GHZ):           3.00823     0.29532     0.27661
 Zero-point vibrational energy     687479.1 (Joules/Mol)
                                  164.31145 (Kcal/Mol)
 Warning -- explicit consideration of  18 degrees of freedom as
           vibrations may cause significant error
 Vibrational temperatures:     51.71    65.88    80.68   107.19   135.30
          (Kelvin)            165.44   216.83   226.38   292.33   352.91
                              362.57   381.64   446.84   495.91   558.41
                              621.17   717.72   769.85   917.15   969.30
                             1059.82  1106.69  1138.42  1238.25  1286.46
                             1308.74  1325.05  1370.06  1404.65  1429.57
                             1497.39  1499.42  1523.70  1543.52  1577.49
                             1620.90  1674.07  1719.85  1757.92  1778.94
                             1816.48  1857.72  1872.61  1902.50  1913.84
                             1936.30  1946.38  1986.58  2004.90  2015.28
                             2033.00  2036.94  2110.08  2122.70  2130.67
                             2137.44  2146.04  2156.55  2157.97  2158.97
                             2175.92  2267.24  2381.91  4303.80  4309.45
                             4317.94  4331.74  4340.46  4350.88  4357.43
                             4373.04  4398.52  4407.15  4414.72  4452.44
                             4462.07  4487.75  4876.88  4991.51  4999.85
                             5129.69

 Zero-point correction=                           0.261847 (Hartree/Particle)
 Thermal correction to Energy=                    0.275789
 Thermal correction to Enthalpy=                  0.276733
 Thermal correction to Gibbs Free Energy=         0.219773
 Sum of electronic and zero-point Energies=           -496.311607
 Sum of electronic and thermal Energies=              -496.297665
 Sum of electronic and thermal Enthalpies=            -496.296721
 Sum of electronic and thermal Free Energies=         -496.353680

                     E (Thermal)             CV                S
                      KCal/Mol        Cal/Mol-Kelvin    Cal/Mol-Kelvin
 Total                  173.060             49.382            119.881
 Electronic               0.000              0.000              0.000
 Translational            0.889              2.981             41.084
 Rotational               0.889              2.981             31.548
 Vibrational            171.283             43.420             47.249
 Vibration     1          0.594              1.982              5.471
 Vibration     2          0.595              1.979              4.992
 Vibration     3          0.596              1.975              4.591
 Vibration     4          0.599              1.966              4.031
 Vibration     5          0.603              1.953              3.574
 Vibration     6          0.608              1.937              3.183
 Vibration     7          0.618              1.902              2.663
 Vibration     8          0.621              1.894              2.582
 Vibration     9          0.639              1.835              2.104
 Vibration    10          0.660              1.771              1.764
 Vibration    11          0.664              1.759              1.717
 Vibration    12          0.671              1.737              1.627
 Vibration    13          0.699              1.654              1.359
 Vibration    14          0.723              1.586              1.190
 Vibration    15          0.756              1.496              1.007
 Vibration    16          0.793              1.401              0.853
 Vibration    17          0.854              1.253              0.661
 Vibration    18          0.890              1.172              0.576

 Optimization completed.
    -- Stationary point found.
 Normal termination of Gaussian 16 at Mon May 31 16:25:16 2021.
