 Gaussian 16, Revision A.03,
 Gaussian 16:  ES64L-G16RevA.03 25-Dec-2016

 -----------------------------
 # opt freq b3lyp/6-31g(2df,p)
 -----------------------------

 -------------------
 Title Card Required
 -------------------
 Symbolic Z-matrix:
 Charge =  0 Multiplicity = 1

 SCF Done:  E(RB3LYP) =  -410.386209411     A.U. after   12 cycles
 SCF Done:  E(RB3LYP) =  -410.390133011     A.U. after   10 cycles
 SCF Done:  E(RB3LYP) =  -410.390779805     A.U. after    9 cycles
 SCF Done:  E(RB3LYP) =  -410.390876493     A.U. after    9 cycles
 SCF Done:  E(RB3LYP) =  -410.390889684     A.U. after    8 cycles
 SCF Done:  E(RB3LYP) =  -410.390892193     A.U. after    6 cycles
 SCF Done:  E(RB3LYP) =  -410.390892777     A.U. after    6 cycles
 SCF Done:  E(RB3LYP) =  -410.390892848     A.U. after    6 cycles
 SCF Done:  E(RB3LYP) =  -410.390892880     A.U. after    6 cycles
 Optimization completed.
    -- Stationary point found.
 Normal termination of Gaussian 16 at Tue Jun  1 20:12:23 2021.

 ----------------------------------------------------------------------
 #N Geom=AllCheck Guess=TCheck SCRF=Check GenChk RB3LYP/6-31G(2df,p) Fr
 eq
 ----------------------------------------------------------------------

 Structure from the checkpoint file:  "CCCCCCCNpCpC.chk"
 -------------------
 Title Card Required
 -------------------
 Charge =  0 Multiplicity = 1

                         Standard orientation:
 ---------------------------------------------------------------------
 Center     Atomic      Atomic             Coordinates (Angstroms)
 Number     Number       Type             X           Y           Z
 ---------------------------------------------------------------------
      1          6           0       -5.506446   -0.239451    0.149853
      2          6           0       -4.202694    0.467330   -0.230795
      3          6           0       -2.949841   -0.327501    0.152921
      4          6           0       -1.640473    0.372835   -0.224835
      5          6           0       -0.388234   -0.422120    0.160629
      6          6           0        0.919395    0.278974   -0.224960
      7          6           0        2.156283   -0.522069    0.191643
      8          7           0        3.414458    0.027525   -0.306986
      9          6           0        3.757332    1.304983    0.297759
     10          6           0        4.503688   -0.923661   -0.157042
     11          1           0       -6.381866    0.352007   -0.136482
     12          1           0       -5.561522   -0.413571    1.230369
     13          1           0       -5.587320   -1.214108   -0.344478
     14          1           0       -4.166339    1.453731    0.250621
     15          1           0       -4.191798    0.659169   -1.312044
     16          1           0       -2.986212   -1.315177   -0.328183
     17          1           0       -2.960447   -0.520131    1.235114
     18          1           0       -1.605299    1.360635    0.255748
     19          1           0       -1.629618    0.564181   -1.306958
     20          1           0       -0.426066   -1.411512   -0.316370
     21          1           0       -0.397417   -0.609098    1.243632
     22          1           0        0.936055    1.273977    0.236292
     23          1           0        0.956338    0.437200   -1.309923
     24          1           0        2.063667   -1.537194   -0.213855
     25          1           0        2.170361   -0.630516    1.296708
     26          1           0        2.984551    2.049700    0.092814
     27          1           0        4.694586    1.672844   -0.131493
     28          1           0        3.889616    1.242644    1.396633
     29          1           0        4.260277   -1.855110   -0.677985
     30          1           0        4.726339   -1.173497    0.899428
     31          1           0        5.416844   -0.514766   -0.601720
 ---------------------------------------------------------------------

 SCF Done:  E(RB3LYP) =  -410.390892880     A.U. after    1 cycles

 The electronic state is 1-A.
 Alpha  occ. eigenvalues --  -14.31283 -10.19672 -10.19360 -10.19311 -10.17478
 Alpha  occ. eigenvalues --  -10.17453 -10.17314 -10.17259 -10.17207 -10.16901
 Alpha  occ. eigenvalues --   -0.91229  -0.80289  -0.77207  -0.72621  -0.69714
 Alpha  occ. eigenvalues --   -0.67421  -0.62387  -0.58088  -0.57193  -0.56368
 Alpha  occ. eigenvalues --   -0.48066  -0.46523  -0.46384  -0.44669  -0.43870
 Alpha  occ. eigenvalues --   -0.42052  -0.40678  -0.40105  -0.38390  -0.37861
 Alpha  occ. eigenvalues --   -0.36884  -0.36037  -0.35395  -0.35152  -0.33612
 Alpha  occ. eigenvalues --   -0.32965  -0.32019  -0.31849  -0.31624  -0.30107
 Alpha  occ. eigenvalues --   -0.20613
 Alpha virt. eigenvalues --    0.08589   0.09237   0.10518   0.11370   0.12398
 Alpha virt. eigenvalues --    0.13133   0.14109   0.14654   0.15220   0.15687
 Alpha virt. eigenvalues --    0.16589   0.16676   0.17674   0.18153   0.18840

 Mulliken charges:
               1
     1  C   -0.379085
     2  C   -0.162852
     3  C   -0.158633
     4  C   -0.178512
     5  C   -0.178883
     6  C   -0.199761
     7  C   -0.122852
     8  N   -0.050196
     9  C   -0.315029
    10  C   -0.311214
    11  H    0.109606
    12  H    0.112282
    13  H    0.112413
    14  H    0.092777
    15  H    0.093175
    16  H    0.089863
    17  H    0.089565
    18  H    0.090448
    19  H    0.091966
    20  H    0.091674
    21  H    0.092323
    22  H    0.094457
    23  H    0.102093
    24  H    0.092880
    25  H    0.067962
    26  H    0.119578
    27  H    0.114505
    28  H    0.085304
    29  H    0.114217
    30  H    0.086466
    31  H    0.113463
 Sum of Mulliken charges =  -0.00000

 Dipole moment (field-independent basis, Debye):
    X=             -0.0314    Y=             -0.0407    Z=              0.3944  Tot=              0.3977
 Quadrupole moment (field-independent basis, Debye-Ang):
   XX=            -66.8459   YY=            -66.1087   ZZ=            -67.9924
   XY=             -0.3492   XZ=              1.3334   YZ=              0.9205

  Exact polarizability: 139.183  -0.057  99.376  -0.016   0.194  92.145
 Approx polarizability: 148.814   0.356 146.035  -0.248   1.136 144.289

                      1                      2                      3
                      A                      A                      A
 Frequencies --     35.4297                40.5666                60.8737
 Red. masses --      2.5602                 2.0486                 3.3440
 Frc consts  --      0.0019                 0.0020                 0.0073
 IR Inten    --      0.0378                 0.0826                 0.0224

                      4                      5                      6
                      A                      A                      A
 Frequencies --     94.5800                99.3633               149.0354
 Red. masses --      2.4082                 1.7348                 1.9687
 Frc consts  --      0.0127                 0.0101                 0.0258
 IR Inten    --      0.0283                 0.1503                 0.0747

                      7                      8                      9
                      A                      A                      A
 Frequencies --    154.6307               162.3998               226.1599
 Red. masses --      2.0348                 2.8001                 3.1619
 Frc consts  --      0.0287                 0.0435                 0.0953
 IR Inten    --      0.0137                 0.1500                 0.3617

                     10                     11                     12
                      A                      A                      A
 Frequencies --    245.5922               247.6898               258.1527
 Red. masses --      1.1258                 1.1202                 1.2392
 Frc consts  --      0.0400                 0.0405                 0.0487
 IR Inten    --      0.4330                 0.0188                 0.4067

                     13                     14                     15
                      A                      A                      A
 Frequencies --    294.3534               365.2114               408.4978
 Red. masses --      2.3604                 2.2177                 2.7333
 Frc consts  --      0.1205                 0.1743                 0.2687
 IR Inten    --      1.0096                 5.0862                 0.3366

                     16                     17                     18
                      A                      A                      A
 Frequencies --    416.1380               488.2945               513.8345
 Red. masses --      2.5669                 2.5883                 2.8502
 Frc consts  --      0.2619                 0.3636                 0.4434
 IR Inten    --      0.1719                 0.8608                 1.5141

                     19                     20                     21
                      A                      A                      A
 Frequencies --    731.8527               741.0335               773.9574
 Red. masses --      1.0618                 1.0874                 1.1420
 Frc consts  --      0.3351                 0.3518                 0.4030
 IR Inten    --      4.2707                 0.0534                 0.7471

                     22                     23                     24
                      A                      A                      A
 Frequencies --    840.0025               854.1837               898.8941
 Red. masses --      1.2254                 3.8910                 1.9142
 Frc consts  --      0.5094                 1.6727                 0.9113
 IR Inten    --      0.1157                17.7745                 0.8586

                     25                     26                     27
                      A                      A                      A
 Frequencies --    930.6107               996.0153              1019.5917
 Red. masses --      1.2179                 4.0071                 1.1581
 Frc consts  --      0.6214                 2.3421                 0.7093
 IR Inten    --      0.3150                 2.3492                 0.7198

                     28                     29                     30
                      A                      A                      A
 Frequencies --   1027.9156              1047.5903              1062.0721
 Red. masses --      3.1288                 2.7911                 2.1917
 Frc consts  --      1.9478                 1.8047                 1.4566
 IR Inten    --      8.0422                 1.3559                14.2435

                     31                     32                     33
                      A                      A                      A
 Frequencies --   1065.6619              1071.4248              1081.3525
 Red. masses --      1.8026                 2.1434                 2.2327
 Frc consts  --      1.2061                 1.4497                 1.5382
 IR Inten    --      9.1111                 0.9177                20.3477

                     34                     35                     36
                      A                      A                      A
 Frequencies --   1121.5647              1133.3509              1142.2626
 Red. masses --      1.2879                 2.1637                 1.4957
 Frc consts  --      0.9545                 1.6375                 1.1498
 IR Inten    --      3.1899                 7.8966                 6.4885

                     37                     38                     39
                      A                      A                      A
 Frequencies --   1194.6438              1218.5722              1236.0103
 Red. masses --      1.7310                 1.8139                 1.4508
 Frc consts  --      1.4556                 1.5869                 1.3059
 IR Inten    --     12.0079                 1.8507                 7.4353

                     40                     41                     42
                      A                      A                      A
 Frequencies --   1259.6981              1282.5866              1302.5220
 Red. masses --      1.5680                 1.4084                 2.0151
 Frc consts  --      1.4660                 1.3651                 2.0143
 IR Inten    --      9.6072                 3.7029                 8.8802

                     43                     44                     45
                      A                      A                      A
 Frequencies --   1309.7495              1321.5959              1327.2014
 Red. masses --      1.5071                 1.1625                 1.1256
 Frc consts  --      1.5232                 1.1963                 1.1682
 IR Inten    --      5.0570                 1.3132                 2.7107

                     46                     47                     48
                      A                      A                      A
 Frequencies --   1335.0960              1341.1667              1360.5338
 Red. masses --      1.0764                 1.1712                 1.4190
 Frc consts  --      1.1305                 1.2412                 1.5476
 IR Inten    --      0.1592                 7.1337                 1.5422

                     49                     50                     51
                      A                      A                      A
 Frequencies --   1394.8006              1401.1084              1413.3002
 Red. masses --      1.5136                 1.6256                 1.2629
 Frc consts  --      1.7349                 1.8802                 1.4862
 IR Inten    --      0.6002                 0.2074                 1.4424

                     52                     53                     54
                      A                      A                      A
 Frequencies --   1417.1573              1443.0952              1472.8016
 Red. masses --      1.4268                 1.1588                 1.1620
 Frc consts  --      1.6883                 1.4218                 1.4851
 IR Inten    --     20.7328                 1.6406                 0.5438

                     55                     56                     57
                      A                      A                      A
 Frequencies --   1482.3315              1483.0297              1483.5036
 Red. masses --      1.0637                 1.0635                 1.0699
 Frc consts  --      1.3771                 1.3781                 1.3873
 IR Inten    --      2.3245                 4.9969                 1.4448

                     58                     59                     60
                      A                      A                      A
 Frequencies --   1486.3794              1491.0029              1497.7530
 Red. masses --      1.0803                 1.0689                 1.0711
 Frc consts  --      1.4063                 1.4000                 1.4156
 IR Inten    --      2.5352                 2.2039                 3.8720

                     61                     62                     63
                      A                      A                      A
 Frequencies --   1499.8833              1500.0078              1504.2898
 Red. masses --      1.0403                 1.0487                 1.0880
 Frc consts  --      1.3789                 1.3902                 1.4506
 IR Inten    --      4.9324                 6.8579                 3.4623

                     64                     65                     66
                      A                      A                      A
 Frequencies --   1510.5473              1513.4328              1517.6776
 Red. masses --      1.0786                 1.0747                 1.0957
 Frc consts  --      1.4500                 1.4504                 1.4870
 IR Inten    --      3.1165                 2.3418                 5.8857

                     67                     68                     69
                      A                      A                      A
 Frequencies --   2881.3193              2905.1171              2917.0461
 Red. masses --      1.0719                 1.0615                 1.0627
 Frc consts  --      5.2432                 5.2781                 5.3278
 IR Inten    --     47.2686                42.6822               153.2860

                     70                     71                     72
                      A                      A                      A
 Frequencies --   2998.6670              2999.5373              3007.0144
 Red. masses --      1.0577                 1.0575                 1.0590
 Frc consts  --      5.6034                 5.6061                 5.6418
 IR Inten    --      0.2632                 0.6382                14.4906

                     73                     74                     75
                      A                      A                      A
 Frequencies --   3015.5474              3019.2240              3024.6696
 Red. masses --      1.0597                 1.0979                 1.0634
 Frc consts  --      5.6774                 5.8964                 5.7318
 IR Inten    --     63.7878                 0.3584                30.9331

                     76                     77                     78
                      A                      A                      A
 Frequencies --   3026.7933              3027.7304              3037.0607
 Red. masses --      1.0985                 1.0357                 1.0837
 Frc consts  --      5.9293                 5.5941                 5.8893
 IR Inten    --      1.9052                41.6785                34.2939

                     79                     80                     81
                      A                      A                      A
 Frequencies --   3042.3934              3054.5544              3057.5923
 Red. masses --      1.1024                 1.0693                 1.1043
 Frc consts  --      6.0122                 5.8782                 6.0827
 IR Inten    --      1.8612                39.2116                31.2569

                     82                     83                     84
                      A                      A                      A
 Frequencies --   3067.3078              3073.5339              3093.7817
 Red. masses --      1.0719                 1.1027                 1.1020
 Frc consts  --      5.9416                 6.1373                 6.2147
 IR Inten    --     46.3351                88.6460                61.0897

                     85                     86                     87
                      A                      A                      A
 Frequencies --   3099.2440              3099.5393              3114.6056
 Red. masses --      1.1010                 1.1028                 1.1003
 Frc consts  --      6.2307                 6.2421                 6.2889
 IR Inten    --     38.5934                37.3113                34.0155

 - Thermochemistry -
 -------------------
 Temperature   298.150 Kelvin.  Pressure   1.00000 Atm.
 Atom     1 has atomic number  6 and mass  12.00000

 Molecular mass:   143.16740 amu.
 Principal axes and moments of inertia in atomic units:
                           1         2         3
     Eigenvalues --   336.027855955.610116137.88644
           X            1.00000   0.00055   0.00219
           Y           -0.00054   1.00000  -0.00180
           Z           -0.00219   0.00179   1.00000
 This molecule is an asymmetric top.
 Rotational symmetry number  1.
 Rotational temperatures (Kelvin)      0.25776     0.01454     0.01411
 Rotational constants (GHZ):           5.37081     0.30303     0.29403
 Zero-point vibrational energy     761805.3 (Joules/Mol)
                                  182.07583 (Kcal/Mol)
 Warning -- explicit consideration of  18 degrees of freedom as
           vibrations may cause significant error
 Vibrational temperatures:     50.98    58.37    87.58   136.08   142.96
          (Kelvin)            214.43   222.48   233.66   325.39   353.35
                              356.37   371.42   423.51   525.46   587.74
                              598.73   702.55   739.29  1052.97  1066.18
                             1113.55  1208.58  1228.98  1293.31  1338.94
                             1433.04  1466.96  1478.94  1507.25  1528.08
                             1533.25  1541.54  1555.83  1613.68  1630.64
                             1643.46  1718.83  1753.25  1778.34  1812.42
                             1845.36  1874.04  1884.44  1901.48  1909.55
                             1920.91  1929.64  1957.50  2006.81  2015.88
                             2033.42  2038.97  2076.29  2119.03  2132.74
                             2133.75  2134.43  2138.57  2145.22  2154.93
                             2158.00  2158.18  2164.34  2173.34  2177.49
                             2183.60  4145.58  4179.82  4196.98  4314.41
                             4315.67  4326.42  4338.70  4343.99  4351.82
                             4354.88  4356.23  4369.65  4377.33  4394.82
                             4399.19  4413.17  4422.13  4451.26  4459.12
                             4459.55  4481.22

 Zero-point correction=                           0.290156 (Hartree/Particle)
 Thermal correction to Energy=                    0.303772
 Thermal correction to Enthalpy=                  0.304716
 Thermal correction to Gibbs Free Energy=         0.249021
 Sum of electronic and zero-point Energies=           -410.100737
 Sum of electronic and thermal Energies=              -410.087121
 Sum of electronic and thermal Enthalpies=            -410.086177
 Sum of electronic and thermal Free Energies=         -410.141872

                     E (Thermal)             CV                S
                      KCal/Mol        Cal/Mol-Kelvin    Cal/Mol-Kelvin
 Total                  190.620             48.272            117.221
 Electronic               0.000              0.000              0.000
 Translational            0.889              2.981             40.788
 Rotational               0.889              2.981             30.886
 Vibrational            188.842             42.311             45.547
 Vibration     1          0.594              1.982              5.500
 Vibration     2          0.594              1.981              5.231
 Vibration     3          0.597              1.973              4.429
 Vibration     4          0.603              1.953              3.563
 Vibration     5          0.604              1.950              3.467
 Vibration     6          0.618              1.904              2.685
 Vibration     7          0.620              1.898              2.614
 Vibration     8          0.623              1.889              2.522
 Vibration     9          0.650              1.801              1.909
 Vibration    10          0.660              1.770              1.762
 Vibration    11          0.661              1.767              1.747
 Vibration    12          0.667              1.749              1.674
 Vibration    13          0.689              1.684              1.449
 Vibration    14          0.738              1.544              1.100
 Vibration    15          0.773              1.452              0.932
 Vibration    16          0.779              1.435              0.905
 Vibration    17          0.844              1.276              0.688
 Vibration    18          0.869              1.219              0.624

 Optimization completed on the basis of negligible forces.
    -- Stationary point found.
 Normal termination of Gaussian 16 at Tue Jun  1 21:02:28 2021.
