 Gaussian 16, Revision A.03,
 Gaussian 16:  ES64L-G16RevA.03 25-Dec-2016

 -----------------------------
 # opt freq b3lyp/6-31g(2df,p)
 -----------------------------

 -------------------
 Title Card Required
 -------------------
 Symbolic Z-matrix:
 Charge =  0 Multiplicity = 1

 SCF Done:  E(RB3LYP) =  -423.969275602     A.U. after   14 cycles
 SCF Done:  E(RB3LYP) =  -423.994810350     A.U. after   12 cycles
 SCF Done:  E(RB3LYP) =  -423.995831302     A.U. after   13 cycles
 SCF Done:  E(RB3LYP) =  -423.996014554     A.U. after   11 cycles
 SCF Done:  E(RB3LYP) =  -423.996037951     A.U. after   10 cycles
 SCF Done:  E(RB3LYP) =  -423.996050187     A.U. after    8 cycles
 SCF Done:  E(RB3LYP) =  -423.996051248     A.U. after    7 cycles
 SCF Done:  E(RB3LYP) =  -423.996051465     A.U. after    7 cycles
 SCF Done:  E(RB3LYP) =  -423.996051536     A.U. after    7 cycles
 Optimization completed.
    -- Stationary point found.
 Normal termination of Gaussian 16 at Tue Jun  1 02:31:46 2021.

 ----------------------------------------------------------------------
 #N Geom=AllCheck Guess=TCheck SCRF=Check GenChk RB3LYP/6-31G(2df,p) Fr
 eq
 ----------------------------------------------------------------------

 Structure from the checkpoint file:  "CCCCCNpCpCCtN.chk"
 -------------------
 Title Card Required
 -------------------
 Charge =  0 Multiplicity = 1

                         Standard orientation:
 ---------------------------------------------------------------------
 Center     Atomic      Atomic             Coordinates (Angstroms)
 Number     Number       Type             X           Y           Z
 ---------------------------------------------------------------------
      1          6           0       -4.942033   -0.342047   -0.086548
      2          6           0       -3.618493    0.336808   -0.448651
      3          6           0       -2.398705   -0.353061    0.171913
      4          6           0       -1.070894    0.319803   -0.195008
      5          6           0        0.127956   -0.371443    0.458932
      6          7           0        1.421433    0.125359   -0.015895
      7          6           0        1.685961    1.506896    0.371986
      8          6           0        2.496145   -0.762068    0.407203
      9          6           0        3.764794   -0.459567   -0.268055
     10          7           0        4.771203   -0.227301   -0.785158
     11          1           0       -5.792999    0.172669   -0.543226
     12          1           0       -5.100154   -0.349106    0.997727
     13          1           0       -4.960089   -1.382787   -0.428811
     14          1           0       -3.643386    1.385888   -0.125448
     15          1           0       -3.503590    0.359446   -1.540287
     16          1           0       -2.376295   -1.404474   -0.147194
     17          1           0       -2.511000   -0.371428    1.265113
     18          1           0       -1.113396    1.373538    0.104814
     19          1           0       -0.929353    0.307607   -1.282538
     20          1           0        0.082337   -1.441146    0.220219
     21          1           0        0.044955   -0.292089    1.561971
     22          1           0        0.933249    2.168258   -0.060153
     23          1           0        2.660653    1.816421   -0.013731
     24          1           0        1.685548    1.649576    1.469540
     25          1           0        2.224142   -1.793893    0.159129
     26          1           0        2.682544   -0.736812    1.499614
 ---------------------------------------------------------------------

 SCF Done:  E(RB3LYP) =  -423.996051536     A.U. after    1 cycles

 The electronic state is 1-A.
 Alpha  occ. eigenvalues --  -14.34205 -14.32849 -10.25756 -10.21993 -10.21831
 Alpha  occ. eigenvalues --  -10.20983 -10.18690 -10.18583 -10.18414 -10.17635
 Alpha  occ. eigenvalues --   -0.94589  -0.89776  -0.80819  -0.76556  -0.74142
 Alpha  occ. eigenvalues --   -0.69918  -0.64362  -0.59098  -0.58347  -0.51818
 Alpha  occ. eigenvalues --   -0.50209  -0.49688  -0.47701  -0.44276  -0.43418
 Alpha  occ. eigenvalues --   -0.42234  -0.40699  -0.40463  -0.38719  -0.37792
 Alpha  occ. eigenvalues --   -0.36275  -0.35675  -0.34438  -0.33643  -0.33325
 Alpha  occ. eigenvalues --   -0.32850  -0.32398  -0.32233  -0.23448
 Alpha virt. eigenvalues --    0.02381   0.04156   0.07701   0.08753   0.10399
 Alpha virt. eigenvalues --    0.11110   0.11992   0.13332   0.14249   0.14710
 Alpha virt. eigenvalues --    0.15405   0.15920   0.16399   0.17468   0.17847

 Mulliken charges:
               1
     1  C   -0.380593
     2  C   -0.165845
     3  C   -0.159687
     4  C   -0.205934
     5  C   -0.131732
     6  N   -0.067353
     7  C   -0.340456
     8  C   -0.276527
     9  C    0.273765
    10  N   -0.309425
    11  H    0.113353
    12  H    0.113757
    13  H    0.114404
    14  H    0.095559
    15  H    0.097742
    16  H    0.094034
    17  H    0.094190
    18  H    0.100439
    19  H    0.110019
    20  H    0.099714
    21  H    0.079095
    22  H    0.132490
    23  H    0.147695
    24  H    0.094856
    25  H    0.151213
    26  H    0.125228
 Sum of Mulliken charges =   0.00000

 Dipole moment (field-independent basis, Debye):
    X=             -3.7709    Y=             -0.4056    Z=              2.0172  Tot=              4.2957
 Quadrupole moment (field-independent basis, Debye-Ang):
   XX=            -86.7177   YY=            -60.2264   ZZ=            -64.6379
   XY=             -1.1511   XZ=              8.2043   YZ=             -0.1171

  Exact polarizability: 130.482   1.501  86.803  -4.393  -1.296  82.496
 Approx polarizability: 154.062   4.422 129.133 -11.594  -2.376 130.123

                      1                      2                      3
                      A                      A                      A
 Frequencies --     38.4453                47.7594                76.6338
 Red. masses --      4.8723                 1.7917                 3.2655
 Frc consts  --      0.0042                 0.0024                 0.0113
 IR Inten    --      2.7249                 0.7773                 1.4792

                      4                      5                      6
                      A                      A                      A
 Frequencies --     90.2357               129.7542               142.5597
 Red. masses --      3.3996                 1.7503                 2.3704
 Frc consts  --      0.0163                 0.0174                 0.0284
 IR Inten    --      1.7628                 0.8530                 1.3964

                      7                      8                      9
                      A                      A                      A
 Frequencies --    160.1704               241.7034               247.9126
 Red. masses --      3.8568                 1.2568                 1.1406
 Frc consts  --      0.0583                 0.0433                 0.0413
 IR Inten    --      2.8244                 1.0425                 0.1921

                     10                     11                     12
                      A                      A                      A
 Frequencies --    261.4651               265.1668               359.1603
 Red. masses --      3.7773                 2.5700                 2.1410
 Frc consts  --      0.1521                 0.1065                 0.1627
 IR Inten    --      0.3935                 0.5474                 6.1610

                     13                     14                     15
                      A                      A                      A
 Frequencies --    389.7952               395.4234               425.3844
 Red. masses --      3.2023                 2.7012                 4.1155
 Frc consts  --      0.2867                 0.2488                 0.4388
 IR Inten    --      2.0045                 0.2887                 1.8200

                     16                     17                     18
                      A                      A                      A
 Frequencies --    480.5022               605.4592               736.4734
 Red. masses --      3.4404                 4.3606                 1.0693
 Frc consts  --      0.4680                 0.9418                 0.3417
 IR Inten    --      1.5878                 0.8753                 3.3942

                     19                     20                     21
                      A                      A                      A
 Frequencies --    769.4666               854.7189               862.6665
 Red. masses --      1.1282                 1.7063                 2.0388
 Frc consts  --      0.3936                 0.7344                 0.8939
 IR Inten    --      0.1030                 8.7330                 8.6095

                     22                     23                     24
                      A                      A                      A
 Frequencies --    904.4644               938.1176               981.5386
 Red. masses --      2.1833                 3.6882                 1.2360
 Frc consts  --      1.0523                 1.9124                 0.7016
 IR Inten    --      5.7705                 1.1520                 0.7068

                     25                     26                     27
                      A                      A                      A
 Frequencies --   1001.7487              1021.7813              1043.3392
 Red. masses --      1.7169                 3.4774                 2.3747
 Frc consts  --      1.0151                 2.1390                 1.5230
 IR Inten    --      4.9650                 0.7245                29.7928

                     28                     29                     30
                      A                      A                      A
 Frequencies --   1068.3973              1069.7648              1121.2494
 Red. masses --      2.3847                 2.2781                 2.1014
 Frc consts  --      1.6038                 1.5360                 1.5565
 IR Inten    --      0.4132                29.1132                 8.0082

                     31                     32                     33
                      A                      A                      A
 Frequencies --   1136.9006              1167.7119              1194.9905
 Red. masses --      1.4444                 1.9512                 2.0406
 Frc consts  --      1.1000                 1.5675                 1.7169
 IR Inten    --      2.1131                12.6428                16.5150

                     34                     35                     36
                      A                      A                      A
 Frequencies --   1228.9469              1255.9662              1282.4998
 Red. masses --      1.6117                 1.4239                 1.4675
 Frc consts  --      1.4341                 1.3234                 1.4222
 IR Inten    --      4.6760                 3.5513                 9.8042

                     37                     38                     39
                      A                      A                      A
 Frequencies --   1296.5629              1316.3949              1330.2577
 Red. masses --      1.3783                 1.2588                 1.0491
 Frc consts  --      1.3652                 1.2852                 1.0938
 IR Inten    --      6.3765                 4.5119                 1.8872

                     40                     41                     42
                      A                      A                      A
 Frequencies --   1343.9027              1354.5209              1379.1932
 Red. masses --      1.1663                 1.3979                 1.4611
 Frc consts  --      1.2411                 1.5111                 1.6374
 IR Inten    --      6.0858                 2.4929                43.1654

                     43                     44                     45
                      A                      A                      A
 Frequencies --   1399.0606              1413.5243              1428.4334
 Red. masses --      1.5896                 1.2347                 1.3837
 Frc consts  --      1.8332                 1.4535                 1.6635
 IR Inten    --      0.1237                 1.0393                 3.6347

                     46                     47                     48
                      A                      A                      A
 Frequencies --   1463.4611              1472.2394              1484.7813
 Red. masses --      1.1705                 1.0974                 1.0681
 Frc consts  --      1.4770                 1.4014                 1.3873
 IR Inten    --      1.5211                 2.2329                 0.3096

                     49                     50                     51
                      A                      A                      A
 Frequencies --   1487.4827              1494.0546              1499.9819
 Red. masses --      1.0755                 1.0638                 1.0412
 Frc consts  --      1.4020                 1.3991                 1.3803
 IR Inten    --      0.3348                 1.7662                 5.0416

                     52                     53                     54
                      A                      A                      A
 Frequencies --   1500.5939              1502.9929              1508.5571
 Red. masses --      1.0604                 1.0532                 1.0841
 Frc consts  --      1.4068                 1.4018                 1.4536
 IR Inten    --      8.9382                 8.4960                 1.3955

                     55                     56                     57
                      A                      A                      A
 Frequencies --   1516.6475              2365.6152              2898.0741
 Red. masses --      1.0984                12.6211                 1.0718
 Frc consts  --      1.4885                41.6137                 5.3040
 IR Inten    --      6.6733                 2.7358                34.1794

                     58                     59                     60
                      A                      A                      A
 Frequencies --   2908.4713              2930.2032              3002.1495
 Red. masses --      1.0717                 1.0610                 1.0578
 Frc consts  --      5.3415                 5.3672                 5.6170
 IR Inten    --     58.5500                80.7889                 8.8273

                     61                     62                     63
                      A                      A                      A
 Frequencies --   3015.6686              3027.2272              3028.9134
 Red. masses --      1.0593                 1.0986                 1.0453
 Frc consts  --      5.6757                 5.9316                 5.6500
 IR Inten    --     23.4760                 2.1213                12.4578

                     64                     65                     66
                      A                      A                      A
 Frequencies --   3029.7145              3038.9480              3050.9674
 Red. masses --      1.0540                 1.0821                 1.1033
 Frc consts  --      5.7000                 5.8878                 6.0507
 IR Inten    --     42.3864                35.3103                10.6605

                     67                     68                     69
                      A                      A                      A
 Frequencies --   3064.8048              3077.1707              3090.4318
 Red. masses --      1.0844                 1.1035                 1.0726
 Frc consts  --      6.0015                 6.1566                 6.0354
 IR Inten    --      7.1967                52.3352                17.8974

                     70                     71                     72
                      A                      A                      A
 Frequencies --   3095.5048              3102.2506              3134.6701
 Red. masses --      1.1021                 1.1009                 1.1017
 Frc consts  --      6.2220                 6.2423                 6.3780
 IR Inten    --     61.9353                36.5850                18.5230

 - Thermochemistry -
 -------------------
 Temperature   298.150 Kelvin.  Pressure   1.00000 Atm.
 Atom     1 has atomic number  6 and mass  12.00000

 Molecular mass:   140.13135 amu.
 Principal axes and moments of inertia in atomic units:
                           1         2         3
     Eigenvalues --   367.247754776.353444907.98636
           X            0.99995   0.00593   0.00822
           Y           -0.00573   0.99969  -0.02407
           Z           -0.00836   0.02402   0.99968
 This molecule is an asymmetric top.
 Rotational symmetry number  1.
 Rotational temperatures (Kelvin)      0.23585     0.01813     0.01765
 Rotational constants (GHZ):           4.91423     0.37785     0.36772
 Zero-point vibrational energy     610404.7 (Joules/Mol)
                                  145.89023 (Kcal/Mol)
 Warning -- explicit consideration of  17 degrees of freedom as
           vibrations may cause significant error
 Vibrational temperatures:     55.31    68.72   110.26   129.83   186.69
          (Kelvin)            205.11   230.45   347.76   356.69   376.19
                              381.52   516.75   560.83   568.93   612.03
                              691.34   871.12  1059.62  1107.09  1229.75
                             1241.18  1301.32  1349.74  1412.22  1441.29
                             1470.12  1501.13  1537.19  1539.15  1613.23
                             1635.75  1680.08  1719.32  1768.18  1807.06
                             1845.23  1865.46  1894.00  1913.94  1933.58
                             1948.85  1984.35  2012.94  2033.75  2055.20
                             2105.59  2118.22  2136.27  2140.16  2149.61
                             2158.14  2159.02  2162.47  2170.48  2182.12
                             3403.59  4169.68  4184.64  4215.91  4319.42
                             4338.87  4355.50  4357.93  4359.08  4372.37
                             4389.66  4409.57  4427.36  4446.44  4453.74
                             4463.45  4510.09

 Zero-point correction=                           0.232491 (Hartree/Particle)
 Thermal correction to Energy=                    0.244968
 Thermal correction to Enthalpy=                  0.245912
 Thermal correction to Gibbs Free Energy=         0.192915
 Sum of electronic and zero-point Energies=           -423.763561
 Sum of electronic and thermal Energies=              -423.751083
 Sum of electronic and thermal Enthalpies=            -423.750139
 Sum of electronic and thermal Free Energies=         -423.803136

                     E (Thermal)             CV                S
                      KCal/Mol        Cal/Mol-Kelvin    Cal/Mol-Kelvin
 Total                  153.720             43.775            111.541
 Electronic               0.000              0.000              0.000
 Translational            0.889              2.981             40.724
 Rotational               0.889              2.981             30.533
 Vibrational            151.942             37.814             40.285
 Vibration     1          0.594              1.982              5.338
 Vibration     2          0.595              1.978              4.908
 Vibration     3          0.599              1.965              3.975
 Vibration     4          0.602              1.956              3.655
 Vibration     5          0.612              1.924              2.950
 Vibration     6          0.616              1.911              2.769
 Vibration     7          0.622              1.891              2.548
 Vibration     8          0.658              1.776              1.790
 Vibration     9          0.662              1.766              1.745
 Vibration    10          0.669              1.743              1.652
 Vibration    11          0.671              1.737              1.628
 Vibration    12          0.734              1.556              1.126
 Vibration    13          0.758              1.492              1.001
 Vibration    14          0.762              1.480              0.980
 Vibration    15          0.787              1.415              0.874
 Vibration    16          0.837              1.293              0.709
 Vibration    17          0.964              1.020              0.440

                           ! Non-Optimized Parameters !
 Normal termination of Gaussian 16 at Tue Jun  1 03:10:58 2021.
