 Gaussian 16, Revision A.03,
 Gaussian 16:  ES64L-G16RevA.03 25-Dec-2016

 -----------------------------
 # opt freq b3lyp/6-31g(2df,p)
 -----------------------------

 -------------------
 Title Card Required
 -------------------
 Symbolic Z-matrix:
 Charge =  0 Multiplicity = 1

 SCF Done:  E(RB3LYP) =  -441.209596372     A.U. after   13 cycles
 SCF Done:  E(RB3LYP) =  -441.215433349     A.U. after   11 cycles
 SCF Done:  E(RB3LYP) =  -441.216196950     A.U. after   10 cycles
 SCF Done:  E(RB3LYP) =  -441.216288946     A.U. after    9 cycles
 SCF Done:  E(RB3LYP) =  -441.216294796     A.U. after    7 cycles
 SCF Done:  E(RB3LYP) =  -441.216295164     A.U. after    6 cycles
 Optimization completed.
    -- Stationary point found.
 Normal termination of Gaussian 16 at Tue Jun  1 15:01:38 2021.

 ----------------------------------------------------------------------
 #N Geom=AllCheck Guess=TCheck SCRF=Check GenChk RB3LYP/6-31G(2df,p) Fr
 eq
 ----------------------------------------------------------------------

 Structure from the checkpoint file:  "CCCCCNpCpCdNN.chk"
 -------------------
 Title Card Required
 -------------------
 Charge =  0 Multiplicity = 1

                         Standard orientation:
 ---------------------------------------------------------------------
 Center     Atomic      Atomic             Coordinates (Angstroms)
 Number     Number       Type             X           Y           Z
 ---------------------------------------------------------------------
      1          6           0       -5.067567   -0.514793    0.000002
      2          6           0       -3.805039    0.351069    0.000006
      3          6           0       -2.511977   -0.471336   -0.000003
      4          6           0       -1.245503    0.393602    0.000001
      5          6           0        0.019222   -0.464088   -0.000008
      6          7           0        1.280939    0.266840   -0.000000
      7          6           0        1.420493    1.706700    0.000001
      8          6           0        2.440263   -0.478902   -0.000001
      9          7           0        3.602161    0.056433   -0.000004
     10          7           0        4.687664   -0.769286   -0.000040
     11          1           0       -5.973401    0.099368    0.000008
     12          1           0       -5.104087   -1.161823    0.883557
     13          1           0       -5.104091   -1.161810   -0.883562
     14          1           0       -3.813261    1.011978    0.876827
     15          1           0       -3.813264    1.011991   -0.876805
     16          1           0       -2.503039   -1.132500   -0.877541
     17          1           0       -2.503035   -1.132513    0.877526
     18          1           0       -1.256924    1.047969    0.880484
     19          1           0       -1.256928    1.047983   -0.880471
     20          1           0       -0.022493   -1.127284   -0.879625
     21          1           0       -0.022492   -1.127302    0.879595
     22          1           0        0.444102    2.186782    0.000002
     23          1           0        1.982373    2.046081   -0.880788
     24          1           0        1.982375    2.046079    0.880789
     25          1           0        2.281017   -1.563921   -0.000006
     26          1           0        5.583783   -0.329071    0.000184
     27          1           0        4.604671   -1.773426    0.000139
 ---------------------------------------------------------------------

 SCF Done:  E(RB3LYP) =  -441.216295164     A.U. after    1 cycles

 The electronic state is 1-A.
 Alpha  occ. eigenvalues --  -14.32569 -14.32287 -14.31676 -10.21263 -10.21013
 Alpha  occ. eigenvalues --  -10.19347 -10.18503 -10.18210 -10.18131 -10.17386
 Alpha  occ. eigenvalues --   -0.96473  -0.91604  -0.80534  -0.77097  -0.74263
 Alpha  occ. eigenvalues --   -0.69999  -0.66012  -0.59867  -0.57905  -0.55564
 Alpha  occ. eigenvalues --   -0.51194  -0.50267  -0.48486  -0.45687  -0.45048
 Alpha  occ. eigenvalues --   -0.42536  -0.41510  -0.41213  -0.39549  -0.38074
 Alpha  occ. eigenvalues --   -0.37222  -0.35682  -0.35477  -0.34232  -0.33310
 Alpha  occ. eigenvalues --   -0.32582  -0.32349  -0.25297  -0.25075  -0.15103
 Alpha virt. eigenvalues --    0.05944   0.08353   0.09694   0.10243   0.11587
 Alpha virt. eigenvalues --    0.11803   0.13067   0.14282   0.15687   0.16081
 Alpha virt. eigenvalues --    0.16803   0.17245   0.17766   0.18894   0.19004

 Mulliken charges:
               1
     1  C   -0.380363
     2  C   -0.167259
     3  C   -0.160705
     4  C   -0.221124
     5  C   -0.132746
     6  N   -0.070121
     7  C   -0.318929
     8  C    0.097210
     9  N   -0.222552
    10  N   -0.459176
    11  H    0.112276
    12  H    0.114032
    13  H    0.114032
    14  H    0.095700
    15  H    0.095700
    16  H    0.095692
    17  H    0.095691
    18  H    0.107167
    19  H    0.107167
    20  H    0.096939
    21  H    0.096938
    22  H    0.115626
    23  H    0.122110
    24  H    0.122108
    25  H    0.062642
    26  H    0.254771
    27  H    0.227173
 Sum of Mulliken charges =  -0.00000

 Dipole moment (field-independent basis, Debye):
    X=             -1.2387    Y=             -1.1305    Z=              0.0006  Tot=              1.6770
 Quadrupole moment (field-independent basis, Debye-Ang):
   XX=            -61.0655   YY=            -60.5910   ZZ=            -65.2318
   XY=             -5.7201   XZ=              0.0033   YZ=             -0.0006

  Exact polarizability: 150.839  -3.754  94.678   0.000  -0.000  72.852
 Approx polarizability: 180.749  -1.223 137.373  -0.001  -0.000 113.472

 ******    2 imaginary frequencies (negative Signs) ******

                      1                      2                      3
                      A                      A                      A
 Frequencies --   -753.3117              -192.7007                13.7247
 Red. masses --      1.2729                 2.0810                 3.0093
 Frc consts  --      0.4256                 0.0455                 0.0003
 IR Inten    --    202.1060                 0.0216                 0.0857

                      4                      5                      6
                      A                      A                      A
 Frequencies --     70.7590                75.5700                92.1180
 Red. masses --      1.8720                 3.6106                 2.1188
 Frc consts  --      0.0055                 0.0121                 0.0106
 IR Inten    --      0.4946                 0.3756                 0.0442

                      7                      8                      9
                      A                      A                      A
 Frequencies --    134.6334               173.7059               177.4992
 Red. masses --      1.4231                 2.0673                 3.3709
 Frc consts  --      0.0152                 0.0368                 0.0626
 IR Inten    --      6.7431                 0.3656                 3.5923

                     10                     11                     12
                      A                      A                      A
 Frequencies --    179.3907               246.4278               249.5492
 Red. masses --      1.8199                 1.1134                 3.7253
 Frc consts  --      0.0345                 0.0398                 0.1367
 IR Inten    --     11.2986                 0.0035                 0.0115

                     13                     14                     15
                      A                      A                      A
 Frequencies --    305.1998               347.9774               381.5890
 Red. masses --      3.5160                 3.2309                 2.9256
 Frc consts  --      0.1930                 0.2305                 0.2510
 IR Inten    --      7.7475                 1.3785                 3.7879

                     16                     17                     18
                      A                      A                      A
 Frequencies --    398.5331               432.9069               494.0366
 Red. masses --      1.2992                 3.1215                 3.3796
 Frc consts  --      0.1216                 0.3447                 0.4860
 IR Inten    --      4.4828                 9.4769                16.6562

                     19                     20                     21
                      A                      A                      A
 Frequencies --    672.7785               740.4629               772.4391
 Red. masses --      3.6704                 1.0705                 1.1042
 Frc consts  --      0.9788                 0.3458                 0.3882
 IR Inten    --      2.8549                 3.2635                 0.0056

                     22                     23                     24
                      A                      A                      A
 Frequencies --    858.0159               877.3201               912.5207
 Red. masses --      1.1838                 3.1518                 2.0288
 Frc consts  --      0.5135                 1.4293                 0.9953
 IR Inten    --      0.0676                 0.8647                 1.2864

                     25                     26                     27
                      A                      A                      A
 Frequencies --    919.3441               991.9450              1021.6816
 Red. masses --      1.4412                 1.1544                 3.6162
 Frc consts  --      0.7177                 0.6692                 2.2240
 IR Inten    --      2.8024                 0.4756                 1.0962

                     28                     29                     30
                      A                      A                      A
 Frequencies --   1048.2148              1068.9607              1101.2820
 Red. masses --      2.6963                 2.4102                 1.7640
 Frc consts  --      1.7455                 1.6227                 1.2605
 IR Inten    --      1.6546                 0.5818                83.7301

                     31                     32                     33
                      A                      A                      A
 Frequencies --   1126.9019              1135.7395              1150.1492
 Red. masses --      2.9790                 3.7661                 1.2929
 Frc consts  --      2.2289                 2.8622                 1.0077
 IR Inten    --     30.1726               148.8453                 0.2119

                     34                     35                     36
                      A                      A                      A
 Frequencies --   1185.1820              1185.4628              1242.3815
 Red. masses --      1.3924                 1.5571                 1.3929
 Frc consts  --      1.1524                 1.2893                 1.2668
 IR Inten    --     13.7300                 0.0474                 0.0125

                     37                     38                     39
                      A                      A                      A
 Frequencies --   1264.1232              1293.4897              1308.0599
 Red. masses --      1.3678                 1.9275                 1.1906
 Frc consts  --      1.2878                 1.9001                 1.2003
 IR Inten    --     11.1167               109.9299                 0.0041

                     40                     41                     42
                      A                      A                      A
 Frequencies --   1329.9146              1332.7905              1335.8042
 Red. masses --      1.0496                 1.7769                 1.1025
 Frc consts  --      1.0938                 1.8596                 1.1591
 IR Inten    --      0.0042                29.7001                 0.8926

                     43                     44                     45
                      A                      A                      A
 Frequencies --   1375.6469              1400.6937              1413.7610
 Red. masses --      1.9080                 1.6362                 1.2453
 Frc consts  --      2.1274                 1.8913                 1.4665
 IR Inten    --     29.8345                 1.1144                 2.1990

                     46                     47                     48
                      A                      A                      A
 Frequencies --   1427.8112              1442.8584              1468.6154
 Red. masses --      1.7995                 1.5298                 1.0398
 Frc consts  --      2.1615                 1.8764                 1.3213
 IR Inten    --    114.7891                32.7849                 2.1856

                     49                     50                     51
                      A                      A                      A
 Frequencies --   1470.4609              1485.1209              1491.1293
 Red. masses --      1.2916                 1.0676                 1.0704
 Frc consts  --      1.6455                 1.3874                 1.4023
 IR Inten    --     10.9938                 0.2436                 0.0803

                     52                     53                     54
                      A                      A                      A
 Frequencies --   1499.9130              1503.2108              1513.1911
 Red. masses --      1.0401                 1.0767                 1.0917
 Frc consts  --      1.3787                 1.4334                 1.4728
 IR Inten    --      5.1657                 1.3583                 3.0671

                     55                     56                     57
                      A                      A                      A
 Frequencies --   1525.4064              1534.9098              1631.6334
 Red. masses --      1.0705                 1.0876                 1.1470
 Frc consts  --      1.4676                 1.5097                 1.7991
 IR Inten    --     16.1128                22.3503                10.6598

                     58                     59                     60
                      A                      A                      A
 Frequencies --   1742.3119              2951.5209              2966.8097
 Red. masses --      5.9304                 1.0555                 1.1044
 Frc consts  --     10.6068                 5.4175                 5.7271
 IR Inten    --     76.2223                81.0405                38.5804

                     61                     62                     63
                      A                      A                      A
 Frequencies --   3002.1151              3004.7840              3014.1342
 Red. masses --      1.0412                 1.0573                 1.0589
 Frc consts  --      5.5288                 5.6243                 5.6681
 IR Inten    --     56.4746                 1.1726                 9.9955

                     64                     65                     66
                      A                      A                      A
 Frequencies --   3024.4253              3028.9732              3029.1631
 Red. masses --      1.0584                 1.0994                 1.0362
 Frc consts  --      5.7041                 5.9429                 5.6022
 IR Inten    --     58.2399                 0.3254                44.9200

                     67                     68                     69
                      A                      A                      A
 Frequencies --   3033.3273              3040.8925              3049.1754
 Red. masses --      1.1022                 1.0854                 1.1034
 Frc consts  --      5.9750                 5.9135                 6.0445
 IR Inten    --     35.3223                52.6529                 5.4502

                     70                     71                     72
                      A                      A                      A
 Frequencies --   3071.5237              3095.3745              3101.7378
 Red. masses --      1.1053                 1.1021                 1.1009
 Frc consts  --      6.1440                 6.2216                 6.2404
 IR Inten    --     58.3907                60.6432                37.3484

                     73                     74                     75
                      A                      A                      A
 Frequencies --   3162.9941              3576.3218              3787.8710
 Red. masses --      1.0929                 1.0479                 1.0991
 Frc consts  --      6.4420                 7.8966                 9.2916
 IR Inten    --     17.4429                 7.6178                47.9172

 - Thermochemistry -
 -------------------
 Temperature   298.150 Kelvin.  Pressure   1.00000 Atm.
 Atom     1 has atomic number  6 and mass  12.00000

 Molecular mass:   143.14225 amu.
 Principal axes and moments of inertia in atomic units:
                           1         2         3
     Eigenvalues --   354.671204970.778635258.59046
           X            1.00000   0.00166   0.00000
           Y           -0.00166   1.00000  -0.00000
           Z           -0.00000   0.00000   1.00000
 This molecule is an asymmetric top.
 Rotational symmetry number  1.
 Rotational temperatures (Kelvin)      0.24421     0.01742     0.01647
 Rotational constants (GHZ):           5.08849     0.36307     0.34320
    2 imaginary frequencies ignored.
 Zero-point vibrational energy     637109.6 (Joules/Mol)
                                  152.27284 (Kcal/Mol)
 Warning -- explicit consideration of  16 degrees of freedom as
           vibrations may cause significant error
 Vibrational temperatures:     19.75   101.81   108.73   132.54   193.71
          (Kelvin)            249.92   255.38   258.10   354.55   359.05
                              439.11   500.66   549.02   573.40   622.86
                              710.81   967.98  1065.36  1111.37  1234.49
                             1262.27  1312.91  1322.73  1427.19  1469.97
                             1508.15  1538.00  1584.50  1621.36  1634.08
                             1654.81  1705.21  1705.62  1787.51  1818.79
                             1861.04  1882.01  1913.45  1917.59  1921.92
                             1979.25  2015.29  2034.09  2054.30  2075.95
                             2113.01  2115.67  2136.76  2145.40  2158.04
                             2162.79  2177.14  2194.72  2208.39  2347.56
                             2506.80  4246.58  4268.58  4319.37  4323.21
                             4336.67  4351.47  4358.02  4358.29  4364.28
                             4375.17  4387.08  4419.24  4453.55  4462.71
                             4550.84  5145.53  5449.90

 Zero-point correction=                           0.242662 (Hartree/Particle)
 Thermal correction to Energy=                    0.255049
 Thermal correction to Enthalpy=                  0.255993
 Thermal correction to Gibbs Free Energy=         0.202535
 Sum of electronic and zero-point Energies=           -440.973633
 Sum of electronic and thermal Energies=              -440.961246
 Sum of electronic and thermal Enthalpies=            -440.960302
 Sum of electronic and thermal Free Energies=         -441.013760

                     E (Thermal)             CV                S
                      KCal/Mol        Cal/Mol-Kelvin    Cal/Mol-Kelvin
 Total                  160.046             43.308            112.513
 Electronic               0.000              0.000              0.000
 Translational            0.889              2.981             40.787
 Rotational               0.889              2.981             30.606
 Vibrational            158.268             37.347             41.120
 Vibration     1          0.593              1.986              7.382
 Vibration     2          0.598              1.968              4.132
 Vibration     3          0.599              1.965              4.003
 Vibration     4          0.602              1.955              3.615
 Vibration     5          0.613              1.919              2.879
 Vibration     6          0.627              1.875              2.395
 Vibration     7          0.628              1.870              2.355
 Vibration     8          0.629              1.868              2.335
 Vibration     9          0.661              1.769              1.756
 Vibration    10          0.662              1.764              1.734
 Vibration    11          0.696              1.664              1.388
 Vibration    12          0.726              1.579              1.175
 Vibration    13          0.751              1.509              1.033
 Vibration    14          0.765              1.473              0.968
 Vibration    15          0.794              1.399              0.849
 Vibration    16          0.850              1.263              0.673

 Optimization completed.
    -- Stationary point found.
 Normal termination of Gaussian 16 at Tue Jun  1 15:43:51 2021.
