 Gaussian 16, Revision A.03,
 Gaussian 16:  ES64L-G16RevA.03 25-Dec-2016

 -----------------------------
 # opt freq b3lyp/6-31g(2df,p)
 -----------------------------

 -------------------
 Title Card Required
 -------------------
 Symbolic Z-matrix:
 Charge =  0 Multiplicity = 1

 SCF Done:  E(RB3LYP) =  -442.445350268     A.U. after   12 cycles
 SCF Done:  E(RB3LYP) =  -442.450690466     A.U. after   11 cycles
 SCF Done:  E(RB3LYP) =  -442.451909183     A.U. after   10 cycles
 SCF Done:  E(RB3LYP) =  -442.452327339     A.U. after   10 cycles
 SCF Done:  E(RB3LYP) =  -442.452397029     A.U. after    9 cycles
 SCF Done:  E(RB3LYP) =  -442.452420402     A.U. after    8 cycles
 SCF Done:  E(RB3LYP) =  -442.452431404     A.U. after    8 cycles
 SCF Done:  E(RB3LYP) =  -442.452435914     A.U. after    8 cycles
 SCF Done:  E(RB3LYP) =  -442.452438634     A.U. after    8 cycles
 SCF Done:  E(RB3LYP) =  -442.452440273     A.U. after    8 cycles
 SCF Done:  E(RB3LYP) =  -442.452441035     A.U. after    8 cycles
 SCF Done:  E(RB3LYP) =  -442.452441426     A.U. after    7 cycles
 SCF Done:  E(RB3LYP) =  -442.452441649     A.U. after    7 cycles
 Optimization completed.
    -- Stationary point found.
 Normal termination of Gaussian 16 at Tue Jun  1 03:28:03 2021.

 ----------------------------------------------------------------------
 #N Geom=AllCheck Guess=TCheck SCRF=Check GenChk RB3LYP/6-31G(2df,p) Fr
 eq
 ----------------------------------------------------------------------

 Structure from the checkpoint file:  "CCCCNCNpCpCN.chk"
 -------------------
 Title Card Required
 -------------------
 Charge =  0 Multiplicity = 1

                         Standard orientation:
 ---------------------------------------------------------------------
 Center     Atomic      Atomic             Coordinates (Angstroms)
 Number     Number       Type             X           Y           Z
 ---------------------------------------------------------------------
      1          6           0       -5.203792    0.290894   -0.344003
      2          6           0       -3.965011   -0.489520    0.103848
      3          6           0       -2.654281    0.249224   -0.184376
      4          6           0       -1.415290   -0.521472    0.269911
      5          7           0       -0.192218    0.199339   -0.071839
      6          6           0        1.007328   -0.465500    0.414750
      7          7           0        2.219343    0.131360   -0.120258
      8          6           0        2.401615    1.514930    0.297597
      9          6           0        3.390098   -0.685643    0.152243
     10          7           0        4.502360   -0.239016   -0.677477
     11          1           0       -6.123976   -0.261159   -0.128500
     12          1           0       -5.178316    0.489019   -1.421255
     13          1           0       -5.268475    1.258093    0.166970
     14          1           0       -3.947167   -1.466331   -0.397394
     15          1           0       -4.035130   -0.702269    1.178815
     16          1           0       -2.674253    1.228733    0.315834
     17          1           0       -2.565291    0.455169   -1.258039
     18          1           0       -1.384821   -1.495766   -0.237065
     19          1           0       -1.497596   -0.740884    1.352967
     20          1           0       -0.247667    1.129187    0.332572
     21          1           0        0.966047   -1.507392    0.074519
     22          1           0        1.036484   -0.496572    1.532923
     23          1           0        1.637895    2.152615   -0.156468
     24          1           0        3.378635    1.855426   -0.047383
     25          1           0        2.355698    1.636976    1.398265
     26          1           0        3.094282   -1.733840   -0.020201
     27          1           0        3.724122   -0.616895    1.207108
     28          1           0        4.306847   -0.455695   -1.649984
     29          1           0        5.352272   -0.727670   -0.416483
 ---------------------------------------------------------------------

 SCF Done:  E(RB3LYP) =  -442.452441649     A.U. after    1 cycles

 The electronic state is 1-A.
 Alpha  occ. eigenvalues --  -14.31011 -14.30561 -14.30513 -10.22493 -10.22120
 Alpha  occ. eigenvalues --  -10.19888 -10.18594 -10.17781 -10.17444 -10.17068
 Alpha  occ. eigenvalues --   -0.93672  -0.89080  -0.84707  -0.78410  -0.71368
 Alpha  occ. eigenvalues --   -0.68884  -0.65074  -0.60877  -0.58217  -0.56894
 Alpha  occ. eigenvalues --   -0.50272  -0.48406  -0.47745  -0.46114  -0.45382
 Alpha  occ. eigenvalues --   -0.42646  -0.42011  -0.40888  -0.40006  -0.39504
 Alpha  occ. eigenvalues --   -0.37761  -0.37116  -0.35634  -0.34970  -0.34765
 Alpha  occ. eigenvalues --   -0.32996  -0.32127  -0.32018  -0.23752  -0.22146
 Alpha  occ. eigenvalues --   -0.20626
 Alpha virt. eigenvalues --    0.08321   0.09151   0.09832   0.10995   0.11953
 Alpha virt. eigenvalues --    0.13356   0.14029   0.14829   0.15247   0.16307
 Alpha virt. eigenvalues --    0.16834   0.17447   0.18121   0.18659   0.18705

 Mulliken charges:
               1
     1  C   -0.379364
     2  C   -0.161831
     3  C   -0.177737
     4  C   -0.118979
     5  N   -0.310061
     6  C   -0.074386
     7  N   -0.048493
     8  C   -0.337194
     9  C   -0.095688
    10  N   -0.499773
    11  H    0.110404
    12  H    0.115103
    13  H    0.112831
    14  H    0.095793
    15  H    0.094376
    16  H    0.086148
    17  H    0.106894
    18  H    0.099355
    19  H    0.072511
    20  H    0.211797
    21  H    0.097264
    22  H    0.050710
    23  H    0.117475
    24  H    0.144512
    25  H    0.079673
    26  H    0.079980
    27  H    0.075383
    28  H    0.228582
    29  H    0.224712
 Sum of Mulliken charges =  -0.00000

 Dipole moment (field-independent basis, Debye):
    X=              0.0503    Y=             -1.0431    Z=              0.8398  Tot=              1.3401
 Quadrupole moment (field-independent basis, Debye-Ang):
   XX=            -60.8645   YY=            -63.2392   ZZ=            -65.8141
   XY=             -5.6048   XZ=             -0.6614   YZ=              2.0068

  Exact polarizability: 132.644  -1.438  92.831  -0.643  -0.273  86.492
 Approx polarizability: 144.465  -0.396 136.641  -0.841  -0.031 133.314

                      1                      2                      3
                      A                      A                      A
 Frequencies --     33.8395                36.1244                68.3681
 Red. masses --      2.6176                 2.2083                 3.4849
 Frc consts  --      0.0018                 0.0017                 0.0096
 IR Inten    --      0.7917                 0.4517                 0.1296

                      4                      5                      6
                      A                      A                      A
 Frequencies --     86.7490               119.4524               135.9658
 Red. masses --      2.8148                 1.8284                 2.4981
 Frc consts  --      0.0125                 0.0154                 0.0272
 IR Inten    --      0.5879                 3.4247                 1.2545

                      7                      8                      9
                      A                      A                      A
 Frequencies --    160.3611               195.3936               234.1275
 Red. masses --      2.2504                 2.7825                 1.5223
 Frc consts  --      0.0341                 0.0626                 0.0492
 IR Inten    --      0.3004                 3.4369                 6.7504

                     10                     11                     12
                      A                      A                      A
 Frequencies --    248.9044               262.3114               276.7558
 Red. masses --      1.1190                 1.8586                 1.1544
 Frc consts  --      0.0408                 0.0753                 0.0521
 IR Inten    --      0.1837                 2.1669                29.8609

                     13                     14                     15
                      A                      A                      A
 Frequencies --    313.0447               366.3542               367.5702
 Red. masses --      2.8022                 2.2249                 2.4974
 Frc consts  --      0.1618                 0.1759                 0.1988
 IR Inten    --      5.6207                 3.3972                 5.0559

                     16                     17                     18
                      A                      A                      A
 Frequencies --    441.4570               508.5471               587.3190
 Red. masses --      3.0919                 3.7462                 2.9419
 Frc consts  --      0.3550                 0.5708                 0.5979
 IR Inten    --      2.6044                 3.1701                 7.4560

                     19                     20                     21
                      A                      A                      A
 Frequencies --    742.4184               796.6665               813.5109
 Red. masses --      1.0745                 1.1771                 1.1902
 Frc consts  --      0.3489                 0.4402                 0.4641
 IR Inten    --      2.2175                51.3406                13.1218

                     22                     23                     24
                      A                      A                      A
 Frequencies --    833.1427               874.7440               905.1696
 Red. masses --      1.6150                 2.1345                 1.8649
 Frc consts  --      0.6605                 0.9623                 0.9003
 IR Inten    --     93.0135                53.1994                 1.5125

                     25                     26                     27
                      A                      A                      A
 Frequencies --    950.4680               996.9305              1018.5845
 Red. masses --      1.1767                 1.6399                 3.0290
 Frc consts  --      0.6263                 0.9603                 1.8516
 IR Inten    --      1.7144                20.0658                 3.1610

                     28                     29                     30
                      A                      A                      A
 Frequencies --   1032.6459              1052.8514              1072.1689
 Red. masses --      2.2794                 2.2990                 1.8072
 Frc consts  --      1.4321                 1.5015                 1.2240
 IR Inten    --      8.1649                 4.3722                33.7260

                     31                     32                     33
                      A                      A                      A
 Frequencies --   1073.6072              1098.0188              1141.1803
 Red. masses --      2.2769                 2.1509                 1.3576
 Frc consts  --      1.5463                 1.5279                 1.0416
 IR Inten    --      7.3816                46.5801                 2.8368

                     34                     35                     36
                      A                      A                      A
 Frequencies --   1143.0129              1154.7912              1173.2258
 Red. masses --      2.5948                 2.7857                 1.7035
 Frc consts  --      1.9973                 2.1887                 1.3815
 IR Inten    --     43.9198                68.0838                14.6703

                     37                     38                     39
                      A                      A                      A
 Frequencies --   1215.2082              1233.6826              1265.2388
 Red. masses --      1.7420                 1.6965                 1.6938
 Frc consts  --      1.5156                 1.5213                 1.5976
 IR Inten    --     38.9471                 8.3589                23.1398

                     40                     41                     42
                      A                      A                      A
 Frequencies --   1277.8416              1300.8022              1312.6106
 Red. masses --      1.5306                 1.6034                 1.2641
 Frc consts  --      1.4725                 1.5985                 1.2833
 IR Inten    --      2.6589                16.3313                 7.4358

                     43                     44                     45
                      A                      A                      A
 Frequencies --   1325.5599              1331.9618              1357.0035
 Red. masses --      1.0652                 1.1947                 1.2843
 Frc consts  --      1.1027                 1.2487                 1.3934
 IR Inten    --      0.2310                 5.0456                17.0384

                     46                     47                     48
                      A                      A                      A
 Frequencies --   1374.6255              1400.6150              1412.9072
 Red. masses --      1.3831                 1.5268                 1.2352
 Frc consts  --      1.5398                 1.7647                 1.4529
 IR Inten    --      9.7963                38.8537                 2.7464

                     49                     50                     51
                      A                      A                      A
 Frequencies --   1427.4665              1432.9214              1476.7720
 Red. masses --      1.1917                 1.4113                 1.3078
 Frc consts  --      1.4307                 1.7073                 1.6804
 IR Inten    --     14.4066                36.6655                11.5499

                     52                     53                     54
                      A                      A                      A
 Frequencies --   1486.0954              1490.8590              1494.0474
 Red. masses --      1.0654                 1.1703                 1.0746
 Frc consts  --      1.3863                 1.5326                 1.4133
 IR Inten    --      1.7582                47.0936                 0.2927

                     55                     56                     57
                      A                      A                      A
 Frequencies --   1499.0467              1500.0177              1503.6662
 Red. masses --      1.0666                 1.0411                 1.0771
 Frc consts  --      1.4121                 1.3802                 1.4348
 IR Inten    --      2.0763                 4.8799                 7.1970

                     58                     59                     60
                      A                      A                      A
 Frequencies --   1509.7383              1514.7852              1524.0261
 Red. masses --      1.0791                 1.0738                 1.1043
 Frc consts  --      1.4491                 1.4517                 1.5112
 IR Inten    --      4.9591                 8.6003                 0.1506

                     61                     62                     63
                      A                      A                      A
 Frequencies --   1528.7506              1640.4368              2777.4421
 Red. masses --      1.0968                 1.0998                 1.0715
 Frc consts  --      1.5103                 1.7437                 4.8698
 IR Inten    --      4.6686                28.1429               100.4329

                     64                     65                     66
                      A                      A                      A
 Frequencies --   2898.2238              2903.0479              2912.3314
 Red. masses --      1.0676                 1.0728                 1.0626
 Frc consts  --      5.2834                 5.3269                 5.3099
 IR Inten    --     60.4785                73.1270               128.7611

                     67                     68                     69
                      A                      A                      A
 Frequencies --   2959.1268              2999.8117              3013.4709
 Red. masses --      1.0894                 1.0664                 1.0632
 Frc consts  --      5.6204                 5.6543                 5.6886
 IR Inten    --     65.7017                 7.3938                18.7556

                     70                     71                     72
                      A                      A                      A
 Frequencies --   3023.2046              3028.9265              3038.4289
 Red. masses --      1.0786                 1.0368                 1.0961
 Frc consts  --      5.8082                 5.6044                 5.9620
 IR Inten    --     37.0051                36.8479                 4.7160

                     73                     74                     75
                      A                      A                      A
 Frequencies --   3039.7345              3064.2602              3078.2736
 Red. masses --      1.0836                 1.1006                 1.0737
 Frc consts  --      5.8992                 6.0890                 5.9946
 IR Inten    --     47.8320                41.7953                31.6568

                     76                     77                     78
                      A                      A                      A
 Frequencies --   3095.6553              3100.8735              3140.4806
 Red. masses --      1.1021                 1.1011                 1.0975
 Frc consts  --      6.2224                 6.2378                 6.3774
 IR Inten    --     57.2908                38.8674                 6.9383

                     79                     80                     81
                      A                      A                      A
 Frequencies --   3498.7806              3508.9073              3586.8319
 Red. masses --      1.0489                 1.0729                 1.0930
 Frc consts  --      7.5652                 7.7828                 8.2851
 IR Inten    --      0.2599                 0.1752                 0.6566

 - Thermochemistry -
 -------------------
 Temperature   298.150 Kelvin.  Pressure   1.00000 Atm.
 Atom     1 has atomic number  6 and mass  12.00000

 Molecular mass:   145.15790 amu.
 Principal axes and moments of inertia in atomic units:
                           1         2         3
     Eigenvalues --   365.010365212.125105369.94261
           X            0.99999  -0.00171   0.00299
           Y            0.00170   0.99999   0.00393
           Z           -0.00300  -0.00393   0.99999
 This molecule is an asymmetric top.
 Rotational symmetry number  1.
 Rotational temperatures (Kelvin)      0.23729     0.01662     0.01613
 Rotational constants (GHZ):           4.94436     0.34626     0.33608
 Zero-point vibrational energy     704721.8 (Joules/Mol)
                                  168.43255 (Kcal/Mol)
 Warning -- explicit consideration of  18 degrees of freedom as
           vibrations may cause significant error
 Vibrational temperatures:     48.69    51.97    98.37   124.81   171.87
          (Kelvin)            195.62   230.72   281.13   336.86   358.12
                              377.41   398.19   450.40   527.10   528.85
                              635.16   731.69   845.02  1068.17  1146.23
                             1170.46  1198.71  1258.56  1302.34  1367.51
                             1434.36  1465.52  1485.75  1514.82  1542.61
                             1544.68  1579.80  1641.90  1644.54  1661.49
                             1688.01  1748.41  1774.99  1820.40  1838.53
                             1871.56  1888.55  1907.19  1916.40  1952.43
                             1977.78  2015.17  2032.86  2053.81  2061.65
                             2124.75  2138.16  2145.01  2149.60  2156.79
                             2158.19  2163.44  2172.18  2179.44  2192.73
                             2199.53  2360.22  3996.12  4169.90  4176.84
                             4190.20  4257.52  4316.06  4335.71  4349.72
                             4357.95  4371.62  4373.50  4408.79  4428.95
                             4453.96  4461.47  4518.45  5033.96  5048.53
                             5160.65

 Zero-point correction=                           0.268414 (Hartree/Particle)
 Thermal correction to Energy=                    0.281731
 Thermal correction to Enthalpy=                  0.282675
 Thermal correction to Gibbs Free Energy=         0.227593
 Sum of electronic and zero-point Energies=           -442.184027
 Sum of electronic and thermal Energies=              -442.170711
 Sum of electronic and thermal Enthalpies=            -442.169767
 Sum of electronic and thermal Free Energies=         -442.224849

                     E (Thermal)             CV                S
                      KCal/Mol        Cal/Mol-Kelvin    Cal/Mol-Kelvin
 Total                  176.789             46.958            115.930
 Electronic               0.000              0.000              0.000
 Translational            0.889              2.981             40.829
 Rotational               0.889              2.981             30.703
 Vibrational            175.011             40.996             44.398
 Vibration     1          0.594              1.983              5.591
 Vibration     2          0.594              1.982              5.461
 Vibration     3          0.598              1.969              4.200
 Vibration     4          0.601              1.958              3.732
 Vibration     5          0.609              1.933              3.109
 Vibration     6          0.614              1.917              2.860
 Vibration     7          0.622              1.891              2.546
 Vibration     8          0.636              1.846              2.176
 Vibration     9          0.654              1.789              1.847
 Vibration    10          0.662              1.765              1.738
 Vibration    11          0.670              1.742              1.646
 Vibration    12          0.678              1.716              1.554
 Vibration    13          0.701              1.649              1.346
 Vibration    14          0.739              1.541              1.095
 Vibration    15          0.740              1.539              1.090
 Vibration    16          0.801              1.380              0.822
 Vibration    17          0.864              1.231              0.637
 Vibration    18          0.944              1.059              0.472

                           ! Non-Optimized Parameters !
 Normal termination of Gaussian 16 at Tue Jun  1 04:13:01 2021.
