 Gaussian 16, Revision A.03,
 Gaussian 16:  ES64L-G16RevA.03 25-Dec-2016

 -----------------------------
 # opt freq b3lyp/6-31g(2df,p)
 -----------------------------

 -------------------
 Title Card Required
 -------------------
 Symbolic Z-matrix:
 Charge =  0 Multiplicity = 1

 SCF Done:  E(RB3LYP) =  -441.234569928     A.U. after   13 cycles
 SCF Done:  E(RB3LYP) =  -441.240899168     A.U. after   13 cycles
 SCF Done:  E(RB3LYP) =  -441.246095462     A.U. after   11 cycles
 SCF Done:  E(RB3LYP) =  -441.246898381     A.U. after   11 cycles
 SCF Done:  E(RB3LYP) =  -441.247333950     A.U. after   10 cycles
 SCF Done:  E(RB3LYP) =  -441.247923486     A.U. after   13 cycles
 SCF Done:  E(RB3LYP) =  -441.248961579     A.U. after   11 cycles
 SCF Done:  E(RB3LYP) =  -441.250454197     A.U. after   12 cycles
 SCF Done:  E(RB3LYP) =  -441.250658721     A.U. after   12 cycles
 SCF Done:  E(RB3LYP) =  -441.250523667     A.U. after   12 cycles
 SCF Done:  E(RB3LYP) =  -441.253873052     A.U. after    9 cycles
 SCF Done:  E(RB3LYP) =  -441.253879738     A.U. after    9 cycles
 SCF Done:  E(RB3LYP) =  -441.253880125     A.U. after    7 cycles
 SCF Done:  E(RB3LYP) =  -441.253880231     A.U. after    7 cycles
 SCF Done:  E(RB3LYP) =  -441.253880290     A.U. after    6 cycles
 SCF Done:  E(RB3LYP) =  -441.253880438     A.U. after    7 cycles
 SCF Done:  E(RB3LYP) =  -441.253880493     A.U. after    6 cycles
 SCF Done:  E(RB3LYP) =  -441.253880559     A.U. after    6 cycles
 SCF Done:  E(RB3LYP) =  -441.253880577     A.U. after    6 cycles
 Optimization completed.
    -- Stationary point found.
 Normal termination of Gaussian 16 at Mon May 31 23:19:01 2021.

 ----------------------------------------------------------------------
 #N Geom=AllCheck Guess=TCheck SCRF=Check GenChk RB3LYP/6-31G(2df,p) Fr
 eq
 ----------------------------------------------------------------------

 Structure from the checkpoint file:  "CCCCNCpCNpdNC.chk"
 -------------------
 Title Card Required
 -------------------
 Charge =  0 Multiplicity = 1

                         Standard orientation:
 ---------------------------------------------------------------------
 Center     Atomic      Atomic             Coordinates (Angstroms)
 Number     Number       Type             X           Y           Z
 ---------------------------------------------------------------------
      1          6           0        4.693722   -0.294731    0.278897
      2          6           0        3.399023    0.206105   -0.366782
      3          6           0        2.146125   -0.459912    0.209843
      4          6           0        0.853850    0.036977   -0.440597
      5          7           0       -0.295965   -0.634293    0.143381
      6          6           0       -1.618500   -0.299554   -0.068573
      7          6           0       -1.874310    1.146958   -0.473818
      8          7           0       -1.364584    2.085886    0.537157
      9          7           0       -2.491613   -1.217408    0.114574
     10          6           0       -3.913855   -0.985795    0.055718
     11          1           0        5.571193    0.198249   -0.151012
     12          1           0        4.815290   -1.374370    0.136614
     13          1           0        4.698155   -0.102109    1.357418
     14          1           0        3.438588    0.031089   -1.450072
     15          1           0        3.321717    1.293622   -0.237829
     16          1           0        2.088221   -0.279806    1.290536
     17          1           0        2.223562   -1.549545    0.081425
     18          1           0        0.916302   -0.120326   -1.532034
     19          1           0        0.747754    1.110665   -0.263839
     20          1           0       -0.192253   -1.627147    0.307288
     21          1           0       -2.939787    1.269340   -0.698447
     22          1           0       -1.337748    1.341086   -1.411358
     23          1           0       -1.814297    1.900962    1.428772
     24          1           0       -1.618490    3.034436    0.277765
     25          1           0       -4.394723   -1.503998    0.894685
     26          1           0       -4.334916   -1.426319   -0.859088
     27          1           0       -4.239755    0.064594    0.095272
 ---------------------------------------------------------------------

 SCF Done:  E(RB3LYP) =  -441.253880577     A.U. after    1 cycles

 The electronic state is 1-A.
 Alpha  occ. eigenvalues --  -14.32131 -14.31640 -14.28028 -10.23533 -10.21188
 Alpha  occ. eigenvalues --  -10.20251 -10.18764 -10.17931 -10.17760 -10.17178
 Alpha  occ. eigenvalues --   -0.94057  -0.87786  -0.85923  -0.78714  -0.72313
 Alpha  occ. eigenvalues --   -0.68857  -0.66579  -0.61843  -0.58049  -0.54700
 Alpha  occ. eigenvalues --   -0.49750  -0.48485  -0.46893  -0.45966  -0.43369
 Alpha  occ. eigenvalues --   -0.42028  -0.41805  -0.41049  -0.39676  -0.39643
 Alpha  occ. eigenvalues --   -0.37818  -0.36866  -0.35942  -0.33209  -0.33191
 Alpha  occ. eigenvalues --   -0.32446  -0.30490  -0.24468  -0.22262  -0.20028
 Alpha virt. eigenvalues --    0.03169   0.08770   0.09444   0.11255   0.12132
 Alpha virt. eigenvalues --    0.12480   0.13704   0.14189   0.15298   0.15616
 Alpha virt. eigenvalues --    0.16181   0.17651   0.18403   0.18898   0.19315

 Mulliken charges:
               1
     1  C   -0.379760
     2  C   -0.163442
     3  C   -0.180083
     4  C   -0.139615
     5  N   -0.306287
     6  C    0.358357
     7  C   -0.256780
     8  N   -0.498891
     9  N   -0.299220
    10  C   -0.319139
    11  H    0.111128
    12  H    0.113840
    13  H    0.115376
    14  H    0.095252
    15  H    0.099091
    16  H    0.106164
    17  H    0.089374
    18  H    0.083269
    19  H    0.136848
    20  H    0.228362
    21  H    0.101468
    22  H    0.118565
    23  H    0.234783
    24  H    0.229641
    25  H    0.115992
    26  H    0.114015
    27  H    0.091693
 Sum of Mulliken charges =  -0.00000

 Dipole moment (field-independent basis, Debye):
    X=              0.1973    Y=              1.9641    Z=             -0.5639  Tot=              2.0530
 Quadrupole moment (field-independent basis, Debye-Ang):
   XX=            -61.3016   YY=            -62.0966   ZZ=            -63.0346
   XY=             -7.2230   XZ=             -0.5101   YZ=              0.3910

  Exact polarizability: 138.793   7.533  94.667  -1.410  -2.047  79.259
 Approx polarizability: 162.216  13.735 140.249  -2.767  -3.863 120.992

                      1                      2                      3
                      A                      A                      A
 Frequencies --     38.9010                43.5328                66.6416
 Red. masses --      3.2574                 2.0530                 1.1509
 Frc consts  --      0.0029                 0.0023                 0.0030
 IR Inten    --      0.5484                 1.0142                 1.0391

                      4                      5                      6
                      A                      A                      A
 Frequencies --     80.1950                92.2184               121.5473
 Red. masses --      2.1823                 2.5620                 2.4650
 Frc consts  --      0.0083                 0.0128                 0.0215
 IR Inten    --      0.0907                 3.1027                 0.4602

                      7                      8                      9
                      A                      A                      A
 Frequencies --    170.4771               202.6454               234.4902
 Red. masses --      2.1171                 3.2435                 1.3395
 Frc consts  --      0.0363                 0.0785                 0.0434
 IR Inten    --      6.1459                 1.9193                23.0055

                     10                     11                     12
                      A                      A                      A
 Frequencies --    237.8046               249.6069               286.5166
 Red. masses --      3.2598                 1.1454                 3.2850
 Frc consts  --      0.1086                 0.0420                 0.1589
 IR Inten    --      1.9433                 0.4776                 0.9706

                     13                     14                     15
                      A                      A                      A
 Frequencies --    300.2824               368.4536               417.3989
 Red. masses --      2.5590                 2.6330                 2.6791
 Frc consts  --      0.1360                 0.2106                 0.2750
 IR Inten    --     12.3768                 6.1927                 0.3778

                     16                     17                     18
                      A                      A                      A
 Frequencies --    528.6797               569.1493               612.4660
 Red. masses --      2.5660                 3.5645                 1.6663
 Frc consts  --      0.4226                 0.6803                 0.3683
 IR Inten    --     26.4520                12.1393                18.0837

                     19                     20                     21
                      A                      A                      A
 Frequencies --    688.7488               744.9331               797.7588
 Red. masses --      2.7455                 1.0735                 2.2873
 Frc consts  --      0.7673                 0.3510                 0.8577
 IR Inten    --     61.9364                 3.4581                21.2162

                     22                     23                     24
                      A                      A                      A
 Frequencies --    816.6840               858.3176               908.6764
 Red. masses --      1.2197                 1.4217                 1.8142
 Frc consts  --      0.4793                 0.6171                 0.8826
 IR Inten    --      6.1990                60.2169                 1.0466

                     25                     26                     27
                      A                      A                      A
 Frequencies --    954.2245               997.6918              1018.7870
 Red. masses --      1.1856                 2.4132                 3.4367
 Frc consts  --      0.6360                 1.4153                 2.1017
 IR Inten    --      6.5414                26.2345                13.7947

                     28                     29                     30
                      A                      A                      A
 Frequencies --   1056.0732              1061.9020              1076.3616
 Red. masses --      3.3075                 2.3173                 2.2241
 Frc consts  --      2.1734                 1.5396                 1.5182
 IR Inten    --     22.6199                14.5205                23.1619

                     31                     32                     33
                      A                      A                      A
 Frequencies --   1107.2304              1129.4100              1149.4543
 Red. masses --      1.9816                 1.3754                 1.6573
 Frc consts  --      1.4314                 1.0337                 1.2902
 IR Inten    --      3.7823                 1.7687                 6.0611

                     34                     35                     36
                      A                      A                      A
 Frequencies --   1156.9619              1174.1947              1200.9802
 Red. masses --      1.7214                 1.2719                 2.2170
 Frc consts  --      1.3576                 1.0332                 1.8841
 IR Inten    --      4.2548                11.1534                22.8555

                     37                     38                     39
                      A                      A                      A
 Frequencies --   1252.5212              1290.1027              1298.8994
 Red. masses --      1.3760                 1.2939                 1.3635
 Frc consts  --      1.2719                 1.2688                 1.3554
 IR Inten    --     26.1890                 9.1578                22.9788

                     40                     41                     42
                      A                      A                      A
 Frequencies --   1324.9672              1329.9946              1363.8775
 Red. masses --      1.1623                 1.0606                 1.5979
 Frc consts  --      1.2022                 1.1054                 1.7512
 IR Inten    --      5.8017                14.8671                78.1935

                     43                     44                     45
                      A                      A                      A
 Frequencies --   1386.9623              1410.2825              1416.2783
 Red. masses --      1.6191                 1.3756                 1.3432
 Frc consts  --      1.8351                 1.6120                 1.5874
 IR Inten    --     31.7252                 3.5022                21.7486

                     46                     47                     48
                      A                      A                      A
 Frequencies --   1424.1202              1451.7912              1477.8664
 Red. masses --      1.7279                 1.2143                 1.3604
 Frc consts  --      2.0647                 1.5080                 1.7507
 IR Inten    --     59.0233                16.2717                40.5581

                     49                     50                     51
                      A                      A                      A
 Frequencies --   1485.8736              1487.3522              1495.2646
 Red. masses --      1.0668                 1.0818                 1.0843
 Frc consts  --      1.3878                 1.4100                 1.4283
 IR Inten    --      6.1647                 3.0575                 2.5165

                     52                     53                     54
                      A                      A                      A
 Frequencies --   1499.4727              1500.0889              1509.3462
 Red. masses --      1.1751                 1.0553                 1.0758
 Frc consts  --      1.5567                 1.3991                 1.4440
 IR Inten    --     10.6774                 6.7008                 3.9684

                     55                     56                     57
                      A                      A                      A
 Frequencies --   1521.1811              1529.6535              1655.8260
 Red. masses --      1.0873                 1.0836                 1.0900
 Frc consts  --      1.4824                 1.4939                 1.7608
 IR Inten    --      2.5051                 9.0030                30.7308

                     58                     59                     60
                      A                      A                      A
 Frequencies --   1727.9164              2937.4633              2975.2553
 Red. masses --      6.7101                 1.0724                 1.0410
 Frc consts  --     11.8039                 5.4521                 5.4293
 IR Inten    --    374.2933                71.7327                83.1908

                     61                     62                     63
                      A                      A                      A
 Frequencies --   3001.4712              3015.9204              3023.6691
 Red. masses --      1.0638                 1.0608                 1.0649
 Frc consts  --      5.6465                 5.6848                 5.7361
 IR Inten    --     13.7734                35.8146                65.8743

                     64                     65                     66
                      A                      A                      A
 Frequencies --   3029.2816              3030.3589              3038.7250
 Red. masses --      1.0363                 1.0886                 1.0947
 Frc consts  --      5.6029                 5.8896                 5.9558
 IR Inten    --     32.9426                32.8728                 7.3919

                     67                     68                     69
                      A                      A                      A
 Frequencies --   3048.3324              3052.2689              3059.5991
 Red. masses --      1.0984                 1.1000                 1.0987
 Frc consts  --      6.0135                 6.0377                 6.0598
 IR Inten    --     58.0134                27.1838                33.8331

                     70                     71                     72
                      A                      A                      A
 Frequencies --   3091.0772              3096.6529              3101.5248
 Red. masses --      1.0909                 1.1013                 1.1010
 Frc consts  --      6.1411                 6.2220                 6.2403
 IR Inten    --      6.5232                61.8475                38.0671

                     73                     74                     75
                      A                      A                      A
 Frequencies --   3489.8402              3570.4915              3577.8870
 Red. masses --      1.0490                 1.0931                 1.0742
 Frc consts  --      7.5272                 8.2102                 8.1019
 IR Inten    --      0.4853                 0.8479                 9.1274

 - Thermochemistry -
 -------------------
 Temperature   298.150 Kelvin.  Pressure   1.00000 Atm.
 Atom     1 has atomic number  6 and mass  12.00000

 Molecular mass:   143.14225 amu.
 Principal axes and moments of inertia in atomic units:
                           1         2         3
     Eigenvalues --   634.982543747.132174188.04616
           X            0.99998  -0.00663   0.00194
           Y            0.00665   0.99993  -0.00936
           Z           -0.00188   0.00937   0.99995
 This molecule is an asymmetric top.
 Rotational symmetry number  1.
 Warning -- assumption of classical behavior for rotation
           may cause significant error
 Rotational temperatures (Kelvin)      0.13640     0.02311     0.02068
 Rotational constants (GHZ):           2.84219     0.48163     0.43093
 Zero-point vibrational energy     642985.9 (Joules/Mol)
                                  153.67733 (Kcal/Mol)
 Warning -- explicit consideration of  18 degrees of freedom as
           vibrations may cause significant error
 Vibrational temperatures:     55.97    62.63    95.88   115.38   132.68
          (Kelvin)            174.88   245.28   291.56   337.38   342.15
                              359.13   412.23   432.04   530.12   600.54
                              760.65   818.88   881.20   990.96  1071.79
                             1147.80  1175.03  1234.93  1307.38  1372.92
                             1435.46  1465.81  1519.45  1527.84  1548.64
                             1593.06  1624.97  1653.81  1664.61  1689.40
                             1727.94  1802.10  1856.17  1868.83  1906.33
                             1913.57  1962.32  1995.53  2029.08  2037.71
                             2048.99  2088.80  2126.32  2137.84  2139.97
                             2151.35  2157.41  2158.29  2171.61  2188.64
                             2200.83  2382.36  2486.09  4226.35  4280.73
                             4318.45  4339.24  4350.39  4358.46  4360.01
                             4372.05  4385.87  4391.53  4402.08  4447.37
                             4455.39  4462.40  5021.10  5137.14  5147.78

 Zero-point correction=                           0.244900 (Hartree/Particle)
 Thermal correction to Energy=                    0.258101
 Thermal correction to Enthalpy=                  0.259045
 Thermal correction to Gibbs Free Energy=         0.204165
 Sum of electronic and zero-point Energies=           -441.008980
 Sum of electronic and thermal Energies=              -440.995780
 Sum of electronic and thermal Enthalpies=            -440.994835
 Sum of electronic and thermal Free Energies=         -441.049715

                     E (Thermal)             CV                S
                      KCal/Mol        Cal/Mol-Kelvin    Cal/Mol-Kelvin
 Total                  161.961             45.993            115.504
 Electronic               0.000              0.000              0.000
 Translational            0.889              2.981             40.787
 Rotational               0.889              2.981             30.678
 Vibrational            160.183             40.031             44.039
 Vibration     1          0.594              1.981              5.314
 Vibration     2          0.595              1.980              5.091
 Vibration     3          0.598              1.970              4.250
 Vibration     4          0.600              1.963              3.886
 Vibration     5          0.602              1.955              3.612
 Vibration     6          0.609              1.931              3.076
 Vibration     7          0.626              1.879              2.430
 Vibration     8          0.639              1.836              2.109
 Vibration     9          0.654              1.788              1.844
 Vibration    10          0.656              1.783              1.819
 Vibration    11          0.662              1.763              1.733
 Vibration    12          0.684              1.699              1.494
 Vibration    13          0.693              1.673              1.415
 Vibration    14          0.741              1.537              1.086
 Vibration    15          0.780              1.432              0.901
 Vibration    16          0.884              1.187              0.590
 Vibration    17          0.925              1.098              0.506
 Vibration    18          0.972              1.005              0.429

 Optimization completed.
    -- Stationary point found.
 Normal termination of Gaussian 16 at Mon May 31 23:58:58 2021.
