 Gaussian 16, Revision A.03,
 Gaussian 16:  ES64L-G16RevA.03 25-Dec-2016

 -----------------------------
 # opt freq b3lyp/6-31g(2df,p)
 -----------------------------

 -------------------
 Title Card Required
 -------------------
 Symbolic Z-matrix:
 Charge =  0 Multiplicity = 1

 SCF Done:  E(RB3LYP) =  -479.292466113     A.U. after   14 cycles
 SCF Done:  E(RB3LYP) =  -479.310881189     A.U. after   12 cycles
 SCF Done:  E(RB3LYP) =  -479.317309035     A.U. after   11 cycles
 SCF Done:  E(RB3LYP) =  -479.322342061     A.U. after   11 cycles
 SCF Done:  E(RB3LYP) =  -479.328202486     A.U. after   13 cycles
 SCF Done:  E(RB3LYP) =  -479.329974507     A.U. after   10 cycles
 SCF Done:  E(RB3LYP) =  -479.330850998     A.U. after   10 cycles
 SCF Done:  E(RB3LYP) =  -479.331394420     A.U. after   10 cycles
 SCF Done:  E(RB3LYP) =  -479.331880009     A.U. after   11 cycles
 SCF Done:  E(RB3LYP) =  -479.332281225     A.U. after   11 cycles
 SCF Done:  E(RB3LYP) =  -479.347015456     A.U. after   10 cycles
 SCF Done:  E(RB3LYP) =  -479.347092952     A.U. after   10 cycles
 SCF Done:  E(RB3LYP) =  -479.347102483     A.U. after   10 cycles
 SCF Done:  E(RB3LYP) =  -479.347146377     A.U. after   10 cycles
 SCF Done:  E(RB3LYP) =  -479.347154405     A.U. after    9 cycles
 SCF Done:  E(RB3LYP) =  -479.347153420     A.U. after    9 cycles
 SCF Done:  E(RB3LYP) =  -479.347155233     A.U. after    9 cycles
 SCF Done:  E(RB3LYP) =  -479.347155312     A.U. after    6 cycles
 SCF Done:  E(RB3LYP) =  -479.347155324     A.U. after    6 cycles
 Optimization completed.
    -- Stationary point found.
 Normal termination of Gaussian 16 at Tue Jun  1 11:04:14 2021.

 ----------------------------------------------------------------------
 #N Geom=AllCheck Guess=TCheck SCRF=Check GenChk RB3LYP/6-31G(2df,p) Fr
 eq
 ----------------------------------------------------------------------

 Structure from the checkpoint file:  "CCCC1NCdCNC1NC.chk"
 -------------------
 Title Card Required
 -------------------
 Charge =  0 Multiplicity = 1

                         Standard orientation:
 ---------------------------------------------------------------------
 Center     Atomic      Atomic             Coordinates (Angstroms)
 Number     Number       Type             X           Y           Z
 ---------------------------------------------------------------------
      1          6           0       -3.818061    0.012481   -0.379737
      2          6           0       -2.300848   -0.097568   -0.555738
      3          6           0       -1.564968   -0.236479    0.782878
      4          6           0       -0.065635   -0.553743    0.689015
      5          7           0        0.135377   -1.854615    0.047845
      6          6           0        1.474312   -2.183323   -0.235872
      7          6           0        2.425295   -1.248759   -0.327030
      8          7           0        2.168155    0.116777   -0.064650
      9          6           0        0.749528    0.510545   -0.084379
     10          7           0        0.541240    1.819564    0.503583
     11          6           0        1.056720    2.938173   -0.276679
     12          1           0       -4.325201    0.124679   -1.343394
     13          1           0       -4.085336    0.876813    0.238906
     14          1           0       -4.227062   -0.879577    0.108736
     15          1           0       -1.936053    0.793137   -1.080039
     16          1           0       -2.058540   -0.956569   -1.191104
     17          1           0       -2.035191   -1.040928    1.368142
     18          1           0       -1.684393    0.681674    1.365476
     19          1           0        0.343939   -0.558649    1.715381
     20          1           0       -0.358824   -2.590647    0.534308
     21          1           0        1.688406   -3.230475   -0.405173
     22          1           0        3.447021   -1.501948   -0.578297
     23          1           0        2.722842    0.723159   -0.655277
     24          1           0        0.366085    0.554092   -1.114572
     25          1           0        0.965652    1.825267    1.426839
     26          1           0        0.572250    2.948147   -1.259131
     27          1           0        2.148790    2.934835   -0.438484
     28          1           0        0.804148    3.876942    0.225487
 ---------------------------------------------------------------------

 SCF Done:  E(RB3LYP) =  -479.347155324     A.U. after    1 cycles

 The electronic state is 1-A.
 Alpha  occ. eigenvalues --  -14.31747 -14.31559 -14.31220 -10.22956 -10.20583
 Alpha  occ. eigenvalues --  -10.20273 -10.18135 -10.18036 -10.16925 -10.16706
 Alpha  occ. eigenvalues --  -10.16498  -0.94446  -0.89876  -0.86387  -0.78284
 Alpha  occ. eigenvalues --   -0.73886  -0.68546  -0.68041  -0.63362  -0.60846
 Alpha  occ. eigenvalues --   -0.57028  -0.53644  -0.50729  -0.48128  -0.47728
 Alpha  occ. eigenvalues --   -0.45691  -0.44260  -0.43768  -0.41528  -0.40410
 Alpha  occ. eigenvalues --   -0.40028  -0.38569  -0.37757  -0.36974  -0.35843
 Alpha  occ. eigenvalues --   -0.34448  -0.33069  -0.31836  -0.31226  -0.30603
 Alpha  occ. eigenvalues --   -0.25929  -0.22522  -0.15789
 Alpha virt. eigenvalues --    0.06383   0.07730   0.08999   0.10489   0.11056
 Alpha virt. eigenvalues --    0.12993   0.14288   0.14764   0.15592   0.16186
 Alpha virt. eigenvalues --    0.16469   0.17117   0.17896   0.18708   0.19355

 Mulliken charges:
               1
     1  C   -0.382972
     2  C   -0.153514
     3  C   -0.193458
     4  C    0.012746
     5  N   -0.331281
     6  C   -0.055949
     7  C   -0.060836
     8  N   -0.342511
     9  C    0.054236
    10  N   -0.275226
    11  C   -0.325381
    12  H    0.107460
    13  H    0.112189
    14  H    0.108070
    15  H    0.099245
    16  H    0.106318
    17  H    0.076297
    18  H    0.107551
    19  H    0.064419
    20  H    0.223899
    21  H    0.093158
    22  H    0.092369
    23  H    0.223378
    24  H    0.083394
    25  H    0.216233
    26  H    0.124408
    27  H    0.093954
    28  H    0.121801
 Sum of Mulliken charges =  -0.00000

 Dipole moment (field-independent basis, Debye):
    X=              0.5137    Y=              0.3729    Z=              0.1504  Tot=              0.6523
 Quadrupole moment (field-independent basis, Debye-Ang):
   XX=            -68.7975   YY=            -63.7984   ZZ=            -68.6536
   XY=              3.3799   XZ=             -2.4809   YZ=             -2.0135

  Exact polarizability: 121.487   2.754 117.400  -4.688  -0.137  81.776
 Approx polarizability: 162.286  14.204 166.277  -6.393   0.760 128.958

                      1                      2                      3
                      A                      A                      A
 Frequencies --     59.6999                73.6674                86.7903
 Red. masses --      3.2168                 1.7355                 2.3413
 Frc consts  --      0.0068                 0.0055                 0.0104
 IR Inten    --      0.0833                 0.0408                 0.8043

                      4                      5                      6
                      A                      A                      A
 Frequencies --    106.2416               120.5668               197.7296
 Red. masses --      3.1968                 2.6225                 1.5723
 Frc consts  --      0.0213                 0.0225                 0.0362
 IR Inten    --      0.3831                 0.2225                 0.3692

                      7                      8                      9
                      A                      A                      A
 Frequencies --    208.6841               240.4675               250.0139
 Red. masses --      2.6617                 1.4203                 1.4140
 Frc consts  --      0.0683                 0.0484                 0.0521
 IR Inten    --      1.3607                 1.6241                 0.5789

                     10                     11                     12
                      A                      A                      A
 Frequencies --    287.3874               311.7411               414.5695
 Red. masses --      2.6326                 2.6099                 2.9687
 Frc consts  --      0.1281                 0.1494                 0.3006
 IR Inten    --      0.7900                 0.1735                29.3066

                     13                     14                     15
                      A                      A                      A
 Frequencies --    442.8803               473.0733               496.2542
 Red. masses --      2.7386                 2.8768                 3.2520
 Frc consts  --      0.3165                 0.3793                 0.4719
 IR Inten    --     16.8108                 0.5991                 7.3250

                     16                     17                     18
                      A                      A                      A
 Frequencies --    535.8412               603.3134               639.0906
 Red. masses --      4.3191                 1.8359                 2.2932
 Frc consts  --      0.7307                 0.3937                 0.5518
 IR Inten    --      7.5154               128.9523               100.8635

                     19                     20                     21
                      A                      A                      A
 Frequencies --    703.5670               725.4032               743.6220
 Red. masses --      1.6556                 1.4085                 1.1425
 Frc consts  --      0.4828                 0.4367                 0.3722
 IR Inten    --     16.4836                21.9232                 5.5043

                     22                     23                     24
                      A                      A                      A
 Frequencies --    762.9604               827.0578               862.8888
 Red. masses --      1.6728                 2.6416                 1.2831
 Frc consts  --      0.5737                 1.0646                 0.5629
 IR Inten    --     81.9484                 1.6506                 1.2563

                     25                     26                     27
                      A                      A                      A
 Frequencies --    866.0888               908.6068               956.5200
 Red. masses --      1.2825                 2.1964                 2.3878
 Frc consts  --      0.5668                 1.0684                 1.2872
 IR Inten    --      0.2578                19.1755                24.9671

                     28                     29                     30
                      A                      A                      A
 Frequencies --   1002.9344              1008.1281              1038.3514
 Red. masses --      1.9488                 2.3513                 2.5348
 Frc consts  --      1.1550                 1.4079                 1.6102
 IR Inten    --      8.1491                 8.0311                 4.1217

                     31                     32                     33
                      A                      A                      A
 Frequencies --   1045.3307              1081.6385              1090.9631
 Red. masses --      2.1551                 1.9613                 2.0951
 Frc consts  --      1.3875                 1.3520                 1.4692
 IR Inten    --      0.8405                13.8756                37.1067

                     34                     35                     36
                      A                      A                      A
 Frequencies --   1116.0093              1141.1826              1153.4794
 Red. masses --      2.3757                 2.2777                 1.9218
 Frc consts  --      1.7433                 1.7476                 1.5065
 IR Inten    --     64.0644                24.5990                 3.9219

                     37                     38                     39
                      A                      A                      A
 Frequencies --   1167.1072              1178.0321              1215.9933
 Red. masses --      1.8172                 1.9450                 2.2237
 Frc consts  --      1.4584                 1.5904                 1.9372
 IR Inten    --     13.5905                 4.9587                19.1691

                     40                     41                     42
                      A                      A                      A
 Frequencies --   1258.2447              1280.5899              1283.2596
 Red. masses --      1.2452                 1.3130                 1.3215
 Frc consts  --      1.1615                 1.2686                 1.2822
 IR Inten    --      8.4320                12.5839                 4.6070

                     43                     44                     45
                      A                      A                      A
 Frequencies --   1313.5817              1333.1091              1347.0350
 Red. masses --      1.4092                 1.1222                 1.2909
 Frc consts  --      1.4326                 1.1750                 1.3801
 IR Inten    --      1.1005                 3.1447                45.3785

                     46                     47                     48
                      A                      A                      A
 Frequencies --   1360.7286              1381.7494              1401.7629
 Red. masses --      1.3348                 1.4601                 1.4676
 Frc consts  --      1.4562                 1.6425                 1.6991
 IR Inten    --     13.1435                44.1159                 1.2727

                     49                     50                     51
                      A                      A                      A
 Frequencies --   1412.5792              1428.2016              1455.5735
 Red. masses --      1.2357                 1.4546                 1.3037
 Frc consts  --      1.4527                 1.7481                 1.6274
 IR Inten    --      0.4479                11.1330                 4.1284

                     52                     53                     54
                      A                      A                      A
 Frequencies --   1458.9581              1464.3615              1487.4373
 Red. masses --      1.2510                 1.2511                 1.2682
 Frc consts  --      1.5689                 1.5806                 1.6531
 IR Inten    --     11.3814                25.3404                 7.1975

                     55                     56                     57
                      A                      A                      A
 Frequencies --   1492.7252              1494.7970              1499.8560
 Red. masses --      1.0634                 1.0541                 1.0512
 Frc consts  --      1.3961                 1.3877                 1.3933
 IR Inten    --      3.6702                 2.6219                12.0371

                     58                     59                     60
                      A                      A                      A
 Frequencies --   1501.2601              1510.3007              1525.0585
 Red. masses --      1.2283                 1.0856                 1.0698
 Frc consts  --      1.6311                 1.4590                 1.4660
 IR Inten    --     29.8090                 3.0699                11.1317

                     61                     62                     63
                      A                      A                      A
 Frequencies --   1750.6452              2925.2601              2949.4556
 Red. masses --      5.5944                 1.0809                 1.0587
 Frc consts  --     10.1017                 5.4494                 5.4264
 IR Inten    --     32.1358                43.2724                89.4505

                     64                     65                     66
                      A                      A                      A
 Frequencies --   2993.8468              2998.5708              3024.6392
 Red. masses --      1.0829                 1.0710                 1.0362
 Frc consts  --      5.7188                 5.6738                 5.5850
 IR Inten    --     43.1342                31.2531                33.4114

                     67                     68                     69
                      A                      A                      A
 Frequencies --   3037.1765              3058.1790              3065.2345
 Red. masses --      1.0597                 1.0732                 1.0975
 Frc consts  --      5.7593                 5.9139                 6.0754
 IR Inten    --     32.3293                35.7323                 1.0611

                     70                     71                     72
                      A                      A                      A
 Frequencies --   3084.4094              3096.7364              3098.7501
 Red. masses --      1.0940                 1.1009                 1.1008
 Frc consts  --      6.1319                 6.2205                 6.2277
 IR Inten    --      3.5065                42.3411                64.2614

                     73                     74                     75
                      A                      A                      A
 Frequencies --   3101.5308              3202.6987              3223.5888
 Red. masses --      1.1021                 1.0852                 1.0993
 Frc consts  --      6.2464                 6.5585                 6.7308
 IR Inten    --     25.8033                 0.1768                25.8200

                     76                     77                     78
                      A                      A                      A
 Frequencies --   3506.9502              3554.5831              3565.3045
 Red. masses --      1.0727                 1.0746                 1.0752
 Frc consts  --      7.7727                 7.9996                 8.0528
 IR Inten    --      0.5915                 2.0269                 2.7656

 - Thermochemistry -
 -------------------
 Temperature   298.150 Kelvin.  Pressure   1.00000 Atm.
 Atom     1 has atomic number  6 and mass  12.00000

 Molecular mass:   155.14225 amu.
 Principal axes and moments of inertia in atomic units:
                           1         2         3
     Eigenvalues --  1376.768452126.105843198.33470
           X            0.99961   0.02799  -0.00146
           Y           -0.02800   0.99956  -0.01019
           Z            0.00117   0.01022   0.99995
 This molecule is an asymmetric top.
 Rotational symmetry number  1.
 Warning -- assumption of classical behavior for rotation
           may cause significant error
 Rotational temperatures (Kelvin)      0.06291     0.04074     0.02708
 Rotational constants (GHZ):           1.31085     0.84885     0.56428
 Zero-point vibrational energy     664361.7 (Joules/Mol)
                                  158.78626 (Kcal/Mol)
 Warning -- explicit consideration of  17 degrees of freedom as
           vibrations may cause significant error
 Vibrational temperatures:     85.89   105.99   124.87   152.86   173.47
          (Kelvin)            284.49   300.25   345.98   359.71   413.49
                              448.53   596.47   637.21   680.65   714.00
                              770.96   868.03   919.51  1012.28  1043.69
                             1069.91  1097.73  1189.95  1241.50  1246.11
                             1307.28  1376.22  1443.00  1450.47  1493.96
                             1504.00  1556.24  1569.65  1605.69  1641.91
                             1659.60  1679.21  1694.93  1749.54  1810.33
                             1842.48  1846.32  1889.95  1918.05  1938.08
                             1957.78  1988.03  2016.82  2032.39  2054.86
                             2094.25  2099.12  2106.89  2140.09  2147.70
                             2150.68  2157.96  2159.98  2172.99  2194.22
                             2518.79  4208.80  4243.61  4307.48  4314.27
                             4351.78  4369.82  4400.04  4410.19  4437.78
                             4455.51  4458.41  4462.41  4607.97  4638.03
                             5045.72  5114.25  5129.68

 Zero-point correction=                           0.253042 (Hartree/Particle)
 Thermal correction to Energy=                    0.265282
 Thermal correction to Enthalpy=                  0.266226
 Thermal correction to Gibbs Free Energy=         0.214716
 Sum of electronic and zero-point Energies=           -479.094113
 Sum of electronic and thermal Energies=              -479.081873
 Sum of electronic and thermal Enthalpies=            -479.080929
 Sum of electronic and thermal Free Energies=         -479.132440

                     E (Thermal)             CV                S
                      KCal/Mol        Cal/Mol-Kelvin    Cal/Mol-Kelvin
 Total                  166.467             46.134            108.413
 Electronic               0.000              0.000              0.000
 Translational            0.889              2.981             41.027
 Rotational               0.889              2.981             30.616
 Vibrational            164.690             40.173             36.770
 Vibration     1          0.597              1.974              4.467
 Vibration     2          0.599              1.966              4.053
 Vibration     3          0.601              1.958              3.731
 Vibration     4          0.605              1.944              3.336
 Vibration     5          0.609              1.932              3.091
 Vibration     6          0.637              1.843              2.154
 Vibration     7          0.642              1.827              2.055
 Vibration     8          0.658              1.778              1.799
 Vibration     9          0.663              1.763              1.730
 Vibration    10          0.685              1.697              1.489
 Vibration    11          0.700              1.651              1.353
 Vibration    12          0.778              1.439              0.911
 Vibration    13          0.803              1.377              0.818
 Vibration    14          0.830              1.310              0.729
 Vibration    15          0.852              1.258              0.668
 Vibration    16          0.891              1.171              0.574
 Vibration    17          0.962              1.025              0.444

 Optimization completed.
    -- Stationary point found.
 Normal termination of Gaussian 16 at Tue Jun  1 12:28:10 2021.
