 Gaussian 16, Revision A.03,
 Gaussian 16:  ES64L-G16RevA.03 25-Dec-2016

 -----------------------------
 # opt freq b3lyp/6-31g(2df,p)
 -----------------------------

 -------------------
 Title Card Required
 -------------------
 Symbolic Z-matrix:
 Charge =  0 Multiplicity = 1

 SCF Done:  E(RB3LYP) =  -456.018939631     A.U. after   14 cycles
 SCF Done:  E(RB3LYP) =  -456.026279785     A.U. after   12 cycles
 SCF Done:  E(RB3LYP) =  -456.030742285     A.U. after   13 cycles
 SCF Done:  E(RB3LYP) =  -456.036521016     A.U. after   14 cycles
 SCF Done:  E(RB3LYP) =  -456.039498347     A.U. after   12 cycles
 SCF Done:  E(RB3LYP) =  -456.041171864     A.U. after   11 cycles
 SCF Done:  E(RB3LYP) =  -456.041516928     A.U. after   11 cycles
 SCF Done:  E(RB3LYP) =  -456.041610440     A.U. after   11 cycles
 SCF Done:  E(RB3LYP) =  -456.041634400     A.U. after   10 cycles
 SCF Done:  E(RB3LYP) =  -456.041647239     A.U. after    9 cycles
 SCF Done:  E(RB3LYP) =  -456.041651454     A.U. after    9 cycles
 SCF Done:  E(RB3LYP) =  -456.041652048     A.U. after    7 cycles
 SCF Done:  E(RB3LYP) =  -456.041652249     A.U. after    7 cycles
 SCF Done:  E(RB3LYP) =  -456.041652344     A.U. after    7 cycles
 SCF Done:  E(RB3LYP) =  -456.041652394     A.U. after    7 cycles
 Optimization completed.
    -- Stationary point found.
 Normal termination of Gaussian 16 at Tue Jun  1 04:07:23 2021.

 ----------------------------------------------------------------------
 #N Geom=AllCheck Guess=TCheck SCRF=Check GenChk RB3LYP/6-31G(2df,p) Fr
 eq
 ----------------------------------------------------------------------

 Structure from the checkpoint file:  "CCCCNCNpNpCtN.chk"
 -------------------
 Title Card Required
 -------------------
 Charge =  0 Multiplicity = 1

                         Standard orientation:
 ---------------------------------------------------------------------
 Center     Atomic      Atomic             Coordinates (Angstroms)
 Number     Number       Type             X           Y           Z
 ---------------------------------------------------------------------
      1          6           0        4.927383    0.248961   -0.371304
      2          6           0        3.704485   -0.324263    0.349646
      3          6           0        2.379677    0.094473   -0.296066
      4          6           0        1.157386   -0.484964    0.414903
      5          7           0       -0.081127   -0.026163   -0.213646
      6          6           0       -1.291963   -0.521100    0.403235
      7          7           0       -2.421772    0.265583   -0.092991
      8          7           0       -2.443607    1.657798    0.182083
      9          6           0       -3.615501   -0.317299   -0.226657
     10          7           0       -4.633688   -0.859221   -0.370128
     11          1           0        5.857589   -0.064490    0.112087
     12          1           0        4.906776    1.344268   -0.376274
     13          1           0        4.964921   -0.085119   -1.414044
     14          1           0        3.713234   -0.001906    1.399200
     15          1           0        3.770145   -1.419988    0.368353
     16          1           0        2.371664   -0.226951   -1.347539
     17          1           0        2.294458    1.188049   -0.308492
     18          1           0        1.145820   -0.149957    1.460528
     19          1           0        1.236734   -1.587098    0.442783
     20          1           0       -0.083816   -0.269596   -1.200028
     21          1           0       -1.188604   -0.403960    1.493915
     22          1           0       -1.525046   -1.577681    0.199139
     23          1           0       -1.575683    2.021251   -0.203962
     24          1           0       -2.395633    1.792348    1.194569
 ---------------------------------------------------------------------

 SCF Done:  E(RB3LYP) =  -456.041652394     A.U. after    1 cycles

 The electronic state is 1-A.
 Alpha  occ. eigenvalues --  -14.40475 -14.36651 -14.33962 -14.30632 -10.26495
 Alpha  occ. eigenvalues --  -10.22928 -10.22391 -10.19327 -10.19229 -10.18228
 Alpha  occ. eigenvalues --   -1.02396  -0.92605  -0.88357  -0.82342  -0.80020
 Alpha  occ. eigenvalues --   -0.73675  -0.68337  -0.63319  -0.59542  -0.56463
 Alpha  occ. eigenvalues --   -0.53625  -0.51506  -0.49886  -0.47109  -0.47071
 Alpha  occ. eigenvalues --   -0.43227  -0.42522  -0.42008  -0.38876  -0.36928
 Alpha  occ. eigenvalues --   -0.36433  -0.34786  -0.34576  -0.34180  -0.33737
 Alpha  occ. eigenvalues --   -0.31753  -0.28913  -0.25359  -0.24259
 Alpha virt. eigenvalues --    0.03560   0.06150   0.07448   0.08440   0.09216
 Alpha virt. eigenvalues --    0.10172   0.11374   0.11953   0.13226   0.13527
 Alpha virt. eigenvalues --    0.14335   0.15967   0.16801   0.17686   0.17863

 Mulliken charges:
               1
     1  C   -0.380733
     2  C   -0.164277
     3  C   -0.178340
     4  C   -0.132199
     5  N   -0.298458
     6  C   -0.122443
     7  N   -0.164936
     8  N   -0.462413
     9  C    0.374585
    10  N   -0.365378
    11  H    0.115621
    12  H    0.116749
    13  H    0.116331
    14  H    0.098371
    15  H    0.099182
    16  H    0.093913
    17  H    0.105192
    18  H    0.106913
    19  H    0.087940
    20  H    0.225280
    21  H    0.107550
    22  H    0.122189
    23  H    0.259109
    24  H    0.240252
 Sum of Mulliken charges =  -0.00000

 Dipole moment (field-independent basis, Debye):
    X=              6.0905    Y=              0.6832    Z=              1.4158  Tot=              6.2901
 Quadrupole moment (field-independent basis, Debye-Ang):
   XX=            -93.0862   YY=            -61.9670   ZZ=            -59.0696
   XY=             -5.3998   XZ=             -5.4525   YZ=              1.6264

  Exact polarizability: 126.188   7.693  83.096   2.719   1.522  74.776
 Approx polarizability: 150.648  15.666 126.682   5.518   3.465 114.300

                      1                      2                      3
                      A                      A                      A
 Frequencies --     31.7755                50.1004                62.6317
 Red. masses --      4.9550                 3.0490                 2.2175
 Frc consts  --      0.0029                 0.0045                 0.0051
 IR Inten    --      4.7531                 3.3736                 1.4007

                      4                      5                      6
                      A                      A                      A
 Frequencies --     93.9995               133.9872               139.8447
 Red. masses --      3.1349                 2.5924                 2.2090
 Frc consts  --      0.0163                 0.0274                 0.0255
 IR Inten    --      2.4676                 0.2781                 4.0967

                      7                      8                      9
                      A                      A                      A
 Frequencies --    179.7200               211.6249               248.7270
 Red. masses --      4.6937                 3.3096                 1.1282
 Frc consts  --      0.0893                 0.0873                 0.0411
 IR Inten    --      2.8905                 1.2870                 0.0189

                     10                     11                     12
                      A                      A                      A
 Frequencies --    255.4873               291.1300               325.0675
 Red. masses --      2.5409                 3.4986                 1.3282
 Frc consts  --      0.0977                 0.1747                 0.0827
 IR Inten    --     14.0862                 3.8721                26.4287

                     13                     14                     15
                      A                      A                      A
 Frequencies --    373.2270               452.9949               514.1724
 Red. masses --      2.5434                 2.9012                 4.7483
 Frc consts  --      0.2087                 0.3508                 0.7396
 IR Inten    --      5.7524                 2.1424                 5.4784

                     16                     17                     18
                      A                      A                      A
 Frequencies --    546.8700               631.1755               742.5797
 Red. masses --      9.3801                 7.3115                 1.0738
 Frc consts  --      1.6528                 1.7162                 0.3489
 IR Inten    --      9.0873                 0.8195                 2.4049

                     19                     20                     21
                      A                      A                      A
 Frequencies --    799.4854               813.3911               815.8206
 Red. masses --      1.2174                 1.2252                 3.8594
 Frc consts  --      0.4585                 0.4776                 1.5134
 IR Inten    --     36.6946                16.1982                31.2269

                     22                     23                     24
                      A                      A                      A
 Frequencies --    905.9617               949.8103               969.8129
 Red. masses --      1.8669                 1.1889                 1.9363
 Frc consts  --      0.9028                 0.6319                 1.0730
 IR Inten    --      1.6936                 8.8821               141.3927

                     25                     26                     27
                      A                      A                      A
 Frequencies --   1021.2153              1040.8317              1065.0535
 Red. masses --      2.5811                 2.2672                 2.0537
 Frc consts  --      1.5859                 1.4471                 1.3726
 IR Inten    --      8.2868                 7.7890                 6.1289

                     28                     29                     30
                      A                      A                      A
 Frequencies --   1075.3459              1144.7516              1155.6861
 Red. masses --      1.8526                 2.4642                 4.0246
 Frc consts  --      1.2622                 1.9026                 3.1670
 IR Inten    --      7.6908                 1.7889               131.7748

                     31                     32                     33
                      A                      A                      A
 Frequencies --   1168.4136              1184.7134              1231.5048
 Red. masses --      2.4710                 2.1944                 1.5082
 Frc consts  --      1.9875                 1.8146                 1.3476
 IR Inten    --     18.5923                21.4820                 7.3821

                     34                     35                     36
                      A                      A                      A
 Frequencies --   1272.4876              1294.2886              1321.0663
 Red. masses --      1.3938                 1.3869                 1.1973
 Frc consts  --      1.3297                 1.3689                 1.2311
 IR Inten    --      7.8387                14.5615                 2.7028

                     37                     38                     39
                      A                      A                      A
 Frequencies --   1327.8508              1353.4340              1361.5416
 Red. masses --      1.0610                 1.1648                 1.4486
 Frc consts  --      1.1022                 1.2571                 1.5822
 IR Inten    --      1.1078                 6.9613                15.1259

                     40                     41                     42
                      A                      A                      A
 Frequencies --   1383.3363              1402.0341              1414.2649
 Red. masses --      1.6604                 1.6128                 1.2389
 Frc consts  --      1.8721                 1.8679                 1.4600
 IR Inten    --      6.4773                33.7847                 2.1969

                     43                     44                     45
                      A                      A                      A
 Frequencies --   1435.9559              1486.1595              1489.9309
 Red. masses --      1.4460                 1.0659                 1.2501
 Frc consts  --      1.7567                 1.3870                 1.6350
 IR Inten    --     11.2135                 2.6862                51.1610

                     46                     47                     48
                      A                      A                      A
 Frequencies --   1493.7860              1500.2039              1504.8390
 Red. masses --      1.0675                 1.0405                 1.0857
 Frc consts  --      1.4034                 1.3797                 1.4486
 IR Inten    --      1.9896                 5.6068                13.4203

                     49                     50                     51
                      A                      A                      A
 Frequencies --   1510.0483              1524.1408              1690.9811
 Red. masses --      1.0812                 1.0936                 1.0850
 Frc consts  --      1.4525                 1.4968                 1.8279
 IR Inten    --      0.6985                 2.7295                 7.7706

                     52                     53                     54
                      A                      A                      A
 Frequencies --   2340.3016              2934.8750              2968.9070
 Red. masses --     12.4749                 1.0716                 1.0555
 Frc consts  --     40.2561                 5.4385                 5.4813
 IR Inten    --    160.4067                53.5902                44.3643

                     55                     56                     57
                      A                      A                      A
 Frequencies --   3005.2979              3008.4851              3016.6390
 Red. masses --      1.0640                 1.1068                 1.0619
 Frc consts  --      5.6622                 5.9022                 5.6937
 IR Inten    --      5.6728                43.3783                27.9261

                     58                     59                     60
                      A                      A                      A
 Frequencies --   3030.7918              3032.9308              3040.2443
 Red. masses --      1.0441                 1.0734                 1.0982
 Frc consts  --      5.6510                 5.8175                 5.9806
 IR Inten    --     18.4521                53.0573                 0.8675

                     61                     62                     63
                      A                      A                      A
 Frequencies --   3065.9334              3097.9779              3104.9427
 Red. masses --      1.1022                 1.1022                 1.1010
 Frc consts  --      6.1043                 6.2325                 6.2539
 IR Inten    --     43.5556                53.7915                34.5526

                     64                     65                     66
                      A                      A                      A
 Frequencies --   3409.2196              3509.8873              3536.7364
 Red. masses --      1.0548                 1.0737                 1.0859
 Frc consts  --      7.2232                 7.7929                 8.0028
 IR Inten    --      5.4416                 0.9547                12.0781

 - Thermochemistry -
 -------------------
 Temperature   298.150 Kelvin.  Pressure   1.00000 Atm.
 Atom     1 has atomic number  6 and mass  12.00000

 Molecular mass:   142.12185 amu.
 Principal axes and moments of inertia in atomic units:
                           1         2         3
     Eigenvalues --   367.341634796.387034980.55233
           X            0.99998  -0.00328  -0.00574
           Y            0.00319   0.99989  -0.01420
           Z            0.00579   0.01418   0.99988
 This molecule is an asymmetric top.
 Rotational symmetry number  1.
 Rotational temperatures (Kelvin)      0.23579     0.01806     0.01739
 Rotational constants (GHZ):           4.91298     0.37627     0.36236
 Zero-point vibrational energy     553251.5 (Joules/Mol)
                                  132.23029 (Kcal/Mol)
 Warning -- explicit consideration of  16 degrees of freedom as
           vibrations may cause significant error
 Vibrational temperatures:     45.72    72.08    90.11   135.24   192.78
          (Kelvin)            201.21   258.58   304.48   357.86   367.59
                              418.87   467.70   536.99   651.76   739.78
                              786.82   908.12  1068.41  1150.28  1170.29
                             1173.78  1303.48  1366.57  1395.34  1469.30
                             1497.52  1532.37  1547.18  1647.04  1662.77
                             1681.09  1704.54  1771.86  1830.83  1862.19
                             1900.72  1910.48  1947.29  1958.95  1990.31
                             2017.21  2034.81  2066.02  2138.25  2143.68
                             2149.22  2158.46  2165.13  2172.62  2192.90
                             2432.94  3367.17  4222.63  4271.60  4323.95
                             4328.54  4340.27  4360.63  4363.71  4374.23
                             4411.19  4457.30  4467.32  4905.11  5049.94
                             5088.57

 Zero-point correction=                           0.210722 (Hartree/Particle)
 Thermal correction to Energy=                    0.223026
 Thermal correction to Enthalpy=                  0.223970
 Thermal correction to Gibbs Free Energy=         0.170984
 Sum of electronic and zero-point Energies=           -455.830930
 Sum of electronic and thermal Energies=              -455.818627
 Sum of electronic and thermal Enthalpies=            -455.817683
 Sum of electronic and thermal Free Energies=         -455.870668

                     E (Thermal)             CV                S
                      KCal/Mol        Cal/Mol-Kelvin    Cal/Mol-Kelvin
 Total                  139.951             42.628            111.517
 Electronic               0.000              0.000              0.000
 Translational            0.889              2.981             40.766
 Rotational               0.889              2.981             30.552
 Vibrational            138.173             36.667             40.200
 Vibration     1          0.594              1.983              5.715
 Vibration     2          0.595              1.978              4.813
 Vibration     3          0.597              1.972              4.373
 Vibration     4          0.603              1.953              3.575
 Vibration     5          0.613              1.919              2.888
 Vibration     6          0.615              1.913              2.806
 Vibration     7          0.629              1.867              2.331
 Vibration     8          0.643              1.823              2.030
 Vibration     9          0.662              1.765              1.740
 Vibration    10          0.666              1.754              1.692
 Vibration    11          0.687              1.690              1.467
 Vibration    12          0.709              1.625              1.284
 Vibration    13          0.745              1.527              1.066
 Vibration    14          0.812              1.354              0.787
 Vibration    15          0.869              1.219              0.624
 Vibration    16          0.902              1.147              0.551

                           ! Non-Optimized Parameters !
 Normal termination of Gaussian 16 at Tue Jun  1 04:44:49 2021.
