 Gaussian 16, Revision A.03,
 Gaussian 16:  ES64L-G16RevA.03 25-Dec-2016

 -----------------------------
 # opt freq b3lyp/6-31g(2df,p)
 -----------------------------

 -------------------
 Title Card Required
 -------------------
 Symbolic Z-matrix:
 Charge =  0 Multiplicity = 1

 SCF Done:  E(RB3LYP) =  -441.177773961     A.U. after   12 cycles
 SCF Done:  E(RB3LYP) =  -441.183127609     A.U. after   12 cycles
 SCF Done:  E(RB3LYP) =  -441.184806688     A.U. after   10 cycles
 SCF Done:  E(RB3LYP) =  -441.185626548     A.U. after   10 cycles
 SCF Done:  E(RB3LYP) =  -441.185902687     A.U. after   10 cycles
 SCF Done:  E(RB3LYP) =  -441.185940239     A.U. after    9 cycles
 SCF Done:  E(RB3LYP) =  -441.185951394     A.U. after    9 cycles
 SCF Done:  E(RB3LYP) =  -441.185954636     A.U. after    9 cycles
 SCF Done:  E(RB3LYP) =  -441.185955524     A.U. after    7 cycles
 SCF Done:  E(RB3LYP) =  -441.185955767     A.U. after    7 cycles
 SCF Done:  E(RB3LYP) =  -441.185955815     A.U. after    6 cycles
 SCF Done:  E(RB3LYP) =  -441.185955839     A.U. after    6 cycles
 Optimization completed.
    -- Stationary point found.
 Normal termination of Gaussian 16 at Tue Jun  1 20:04:23 2021.

 ----------------------------------------------------------------------
 #N Geom=AllCheck Guess=TCheck SCRF=Check GenChk RB3LYP/6-31G(2df,p) Fr
 eq
 ----------------------------------------------------------------------

 Structure from the checkpoint file:  "CCCCNCN1CN1C.chk"
 -------------------
 Title Card Required
 -------------------
 Charge =  0 Multiplicity = 1

                         Standard orientation:
 ---------------------------------------------------------------------
 Center     Atomic      Atomic             Coordinates (Angstroms)
 Number     Number       Type             X           Y           Z
 ---------------------------------------------------------------------
      1          6           0       -5.176061    0.373740   -0.245990
      2          6           0       -3.940068   -0.397929    0.224088
      3          6           0       -2.624632    0.248565   -0.221378
      4          6           0       -1.388041   -0.512539    0.254856
      5          7           0       -0.163047    0.115033   -0.230086
      6          6           0        1.040354   -0.552941    0.222560
      7          7           0        2.204208    0.089118   -0.398273
      8          6           0        2.822603    1.116123    0.411976
      9          7           0        3.417215   -0.195194    0.401407
     10          6           0        4.579767   -0.342767   -0.472643
     11          1           0       -6.099874   -0.111649    0.083898
     12          1           0       -5.207383    0.442452   -1.338979
     13          1           0       -5.178103    1.396163    0.148230
     14          1           0       -3.984354   -1.426780   -0.156900
     15          1           0       -3.954009   -0.479888    1.318995
     16          1           0       -2.582132    1.280188    0.158085
     17          1           0       -2.591247    0.322713   -1.315098
     18          1           0       -1.415918   -1.538280   -0.137472
     19          1           0       -1.415781   -0.605488    1.358541
     20          1           0       -0.141072    1.086076    0.069893
     21          1           0        1.011362   -1.591645   -0.127240
     22          1           0        1.153823   -0.580594    1.325979
     23          1           0        2.357529    1.409609    1.353761
     24          1           0        3.297170    1.925473   -0.141940
     25          1           0        5.477754   -0.116737    0.111927
     26          1           0        4.541398    0.312988   -1.352621
     27          1           0        4.638666   -1.380817   -0.811212
 ---------------------------------------------------------------------

 SCF Done:  E(RB3LYP) =  -441.185955839     A.U. after    1 cycles

 The electronic state is 1-A.
 Alpha  occ. eigenvalues --  -14.35253 -14.34885 -14.30963 -10.23381 -10.22386
 Alpha  occ. eigenvalues --  -10.20170 -10.20008 -10.17898 -10.17609 -10.17163
 Alpha  occ. eigenvalues --   -1.03204  -0.90460  -0.79793  -0.77700  -0.71975
 Alpha  occ. eigenvalues --   -0.68466  -0.62204  -0.60614  -0.59624  -0.57518
 Alpha  occ. eigenvalues --   -0.50719  -0.48166  -0.47573  -0.45511  -0.44834
 Alpha  occ. eigenvalues --   -0.43487  -0.41475  -0.41180  -0.40387  -0.39183
 Alpha  occ. eigenvalues --   -0.37082  -0.35152  -0.34888  -0.33907  -0.33157
 Alpha  occ. eigenvalues --   -0.32279  -0.31338  -0.26762  -0.23811  -0.22019
 Alpha virt. eigenvalues --    0.08240   0.09451   0.09697   0.10602   0.12006
 Alpha virt. eigenvalues --    0.12230   0.13528   0.13998   0.14996   0.15206
 Alpha virt. eigenvalues --    0.16167   0.16885   0.17159   0.17408   0.18381

 Mulliken charges:
               1
     1  C   -0.379383
     2  C   -0.161953
     3  C   -0.176280
     4  C   -0.121078
     5  N   -0.301089
     6  C   -0.055487
     7  N   -0.111793
     8  C   -0.196379
     9  N   -0.093800
    10  C   -0.289529
    11  H    0.110997
    12  H    0.115505
    13  H    0.112679
    14  H    0.096744
    15  H    0.094635
    16  H    0.085595
    17  H    0.107948
    18  H    0.102809
    19  H    0.073566
    20  H    0.209094
    21  H    0.108977
    22  H    0.075859
    23  H    0.112705
    24  H    0.115771
    25  H    0.119693
    26  H    0.116027
    27  H    0.128169
 Sum of Mulliken charges =  -0.00000

 Dipole moment (field-independent basis, Debye):
    X=             -0.1345    Y=              0.9320    Z=              0.9595  Tot=              1.3444
 Quadrupole moment (field-independent basis, Debye-Ang):
   XX=            -59.2072   YY=            -60.7951   ZZ=            -66.7173
   XY=              3.0287   XZ=             -1.2928   YZ=              2.1963

  Exact polarizability: 133.021   0.186  90.059  -1.812   1.434  81.301
 Approx polarizability: 144.395   0.347 137.327   0.884   2.662 127.182

                      1                      2                      3
                      A                      A                      A
 Frequencies --     34.8151                48.8534                63.7352
 Red. masses --      3.6717                 1.8207                 3.4861
 Frc consts  --      0.0026                 0.0026                 0.0083
 IR Inten    --      0.1119                 0.5861                 0.1611

                      4                      5                      6
                      A                      A                      A
 Frequencies --     93.1652               127.2086               145.7942
 Red. masses --      2.8366                 1.8194                 2.5752
 Frc consts  --      0.0145                 0.0173                 0.0323
 IR Inten    --      0.3896                 1.9933                 0.3655

                      7                      8                      9
                      A                      A                      A
 Frequencies --    173.4411               211.6240               241.7552
 Red. masses --      2.4481                 1.3235                 3.0049
 Frc consts  --      0.0434                 0.0349                 0.1035
 IR Inten    --      2.6996                 0.5596                 0.2715

                     10                     11                     12
                      A                      A                      A
 Frequencies --    248.7925               290.5343               326.9882
 Red. masses --      1.1206                 2.6683                 3.4091
 Frc consts  --      0.0409                 0.1327                 0.2148
 IR Inten    --      0.0697                 1.8567                 4.0609

                     13                     14                     15
                      A                      A                      A
 Frequencies --    426.1939               462.9925               501.6444
 Red. masses --      2.9523                 2.5245                 3.1401
 Frc consts  --      0.3160                 0.3188                 0.4656
 IR Inten    --      0.7578                 1.3201                 1.3990

                     16                     17                     18
                      A                      A                      A
 Frequencies --    540.8296               742.4075               777.9243
 Red. masses --      2.7950                 1.0751                 1.9731
 Frc consts  --      0.4817                 0.3491                 0.7035
 IR Inten    --      4.3115                 2.1560                62.3563

                     19                     20                     21
                      A                      A                      A
 Frequencies --    790.8382               812.2108               814.9546
 Red. masses --      1.8322                 1.2001                 4.9585
 Frc consts  --      0.6751                 0.4664                 1.9403
 IR Inten    --     11.0134                 7.8493                10.1201

                     22                     23                     24
                      A                      A                      A
 Frequencies --    905.4419               942.6091               950.3139
 Red. masses --      1.8466                 2.2600                 1.1902
 Frc consts  --      0.8920                 1.1831                 0.6333
 IR Inten    --      1.6540                 0.0726                 2.2665

                     25                     26                     27
                      A                      A                      A
 Frequencies --   1020.1939              1029.7996              1058.0126
 Red. masses --      2.0359                 2.0234                 1.9913
 Frc consts  --      1.2484                 1.2643                 1.3133
 IR Inten    --      1.8966                 3.8980                18.8112

                     28                     29                     30
                      A                      A                      A
 Frequencies --   1066.4318              1076.5771              1096.6291
 Red. masses --      2.2662                 1.9092                 1.4473
 Frc consts  --      1.5185                 1.3037                 1.0255
 IR Inten    --      2.8837                 3.5103                 5.3863

                     31                     32                     33
                      A                      A                      A
 Frequencies --   1143.5267              1148.7150              1159.1180
 Red. masses --      2.3114                 2.0531                 2.0481
 Frc consts  --      1.7808                 1.5962                 1.6213
 IR Inten    --      2.5821                 4.5213                67.5742

                     34                     35                     36
                      A                      A                      A
 Frequencies --   1166.4312              1176.7393              1209.9437
 Red. masses --      1.6391                 2.0363                 1.7071
 Frc consts  --      1.3139                 1.6613                 1.4724
 IR Inten    --     43.4154                33.9494                 1.8228

                     37                     38                     39
                      A                      A                      A
 Frequencies --   1216.6673              1248.1915              1276.8427
 Red. masses --      1.9180                 1.3789                 1.2805
 Frc consts  --      1.6728                 1.2658                 1.2300
 IR Inten    --      6.4160                 5.4169                 1.5686

                     40                     41                     42
                      A                      A                      A
 Frequencies --   1298.0270              1320.0744              1320.6144
 Red. masses --      1.3118                 1.1678                 4.6355
 Frc consts  --      1.3022                 1.1990                 4.7632
 IR Inten    --     15.2269                 0.5361                15.4959

                     43                     44                     45
                      A                      A                      A
 Frequencies --   1326.3570              1366.9026              1394.8273
 Red. masses --      1.0836                 1.3011                 1.4907
 Frc consts  --      1.1232                 1.4323                 1.7088
 IR Inten    --      0.5124                20.2426                24.4275

                     46                     47                     48
                      A                      A                      A
 Frequencies --   1412.4529              1429.5044              1438.4364
 Red. masses --      1.2430                 1.4442                 1.1662
 Frc consts  --      1.4611                 1.7388                 1.4217
 IR Inten    --      1.3395                 2.2675                 7.0643

                     49                     50                     51
                      A                      A                      A
 Frequencies --   1481.6902              1486.1593              1491.7899
 Red. masses --      1.0474                 1.0654                 1.2316
 Frc consts  --      1.3548                 1.3864                 1.6149
 IR Inten    --      4.5781                 1.7215                49.0697

                     52                     53                     54
                      A                      A                      A
 Frequencies --   1494.0345              1495.3694              1499.9890
 Red. masses --      1.0672                 1.0684                 1.0411
 Frc consts  --      1.4035                 1.4076                 1.3801
 IR Inten    --      1.0103                13.6377                 5.1474

                     55                     56                     57
                      A                      A                      A
 Frequencies --   1508.0208              1512.2015              1521.9824
 Red. masses --      1.0770                 1.1000                 1.1059
 Frc consts  --      1.4430                 1.4820                 1.5094
 IR Inten    --      3.9839                 0.8617                 2.2613

                     58                     59                     60
                      A                      A                      A
 Frequencies --   1532.9416              2882.0364              2905.6934
 Red. masses --      1.1033                 1.0722                 1.0730
 Frc consts  --      1.5276                 5.2472                 5.3376
 IR Inten    --      0.8294                56.7343                90.7824

                     61                     62                     63
                      A                      A                      A
 Frequencies --   3000.2021              3007.5078              3014.1420
 Red. masses --      1.0663                 1.0386                 1.0621
 Frc consts  --      5.6552                 5.5348                 5.6851
 IR Inten    --      8.0066                50.7122                22.6092

                     64                     65                     66
                      A                      A                      A
 Frequencies --   3026.0868              3029.1591              3039.1131
 Red. masses --      1.0783                 1.0386                 1.0961
 Frc consts  --      5.8175                 5.6147                 5.9647
 IR Inten    --     32.0511                40.6022                 6.2182

                     67                     68                     69
                      A                      A                      A
 Frequencies --   3049.9743              3065.3062              3069.9131
 Red. masses --      1.0869                 1.1004                 1.0497
 Frc consts  --      5.9572                 6.0918                 5.8284
 IR Inten    --     32.8222                40.2488                27.4650

                     70                     71                     72
                      A                      A                      A
 Frequencies --   3086.5152              3095.8061              3101.2975
 Red. masses --      1.0962                 1.1020                 1.1011
 Frc consts  --      6.1527                 6.2230                 6.2395
 IR Inten    --     30.0153                57.4174                38.4713

                     73                     74                     75
                      A                      A                      A
 Frequencies --   3112.7530              3156.4417              3494.9128
 Red. masses --      1.1025                 1.1192                 1.0730
 Frc consts  --      6.2937                 6.5696                 7.7220
 IR Inten    --     20.0537                21.4477                 0.4419

 - Thermochemistry -
 -------------------
 Temperature   298.150 Kelvin.  Pressure   1.00000 Atm.
 Atom     1 has atomic number  6 and mass  12.00000

 Molecular mass:   143.14225 amu.
 Principal axes and moments of inertia in atomic units:
                           1         2         3
     Eigenvalues --   270.726935229.975125310.29744
           X            1.00000  -0.00054  -0.00200
           Y            0.00056   0.99996   0.00854
           Z            0.00200  -0.00854   0.99996
 This molecule is an asymmetric top.
 Rotational symmetry number  1.
 Rotational temperatures (Kelvin)      0.31993     0.01656     0.01631
 Rotational constants (GHZ):           6.66628     0.34508     0.33986
 Zero-point vibrational energy     641420.4 (Joules/Mol)
                                  153.30316 (Kcal/Mol)
 Warning -- explicit consideration of  16 degrees of freedom as
           vibrations may cause significant error
 Vibrational temperatures:     50.09    70.29    91.70   134.04   183.02
          (Kelvin)            209.77   249.54   304.48   347.83   357.96
                              418.01   470.46   613.20   666.14   721.75
                              778.13  1068.16  1119.26  1137.84  1168.59
                             1172.54  1302.73  1356.20  1367.29  1467.83
                             1481.65  1522.24  1534.36  1548.95  1577.80
                             1645.28  1652.74  1667.71  1678.23  1693.07
                             1740.84  1750.51  1795.87  1837.09  1867.57
                             1899.29  1900.07  1908.33  1966.67  2006.85
                             2032.20  2056.74  2069.59  2131.82  2138.25
                             2146.35  2149.58  2151.50  2158.15  2169.71
                             2175.72  2189.79  2205.56  4146.61  4180.64
                             4316.62  4327.13  4336.68  4353.86  4358.28
                             4372.61  4388.23  4410.29  4416.92  4440.81
                             4454.17  4462.08  4478.56  4541.42  5028.40

 Zero-point correction=                           0.244304 (Hartree/Particle)
 Thermal correction to Energy=                    0.256655
 Thermal correction to Enthalpy=                  0.257599
 Thermal correction to Gibbs Free Energy=         0.204679
 Sum of electronic and zero-point Energies=           -440.941652
 Sum of electronic and thermal Energies=              -440.929301
 Sum of electronic and thermal Enthalpies=            -440.928357
 Sum of electronic and thermal Free Energies=         -440.981277

                     E (Thermal)             CV                S
                      KCal/Mol        Cal/Mol-Kelvin    Cal/Mol-Kelvin
 Total                  161.053             43.750            111.378
 Electronic               0.000              0.000              0.000
 Translational            0.889              2.981             40.787
 Rotational               0.889              2.981             30.398
 Vibrational            159.276             37.788             40.193
 Vibration     1          0.594              1.983              5.534
 Vibration     2          0.595              1.978              4.863
 Vibration     3          0.597              1.972              4.338
 Vibration     4          0.602              1.954              3.592
 Vibration     5          0.611              1.926              2.988
 Vibration     6          0.617              1.907              2.726
 Vibration     7          0.627              1.875              2.398
 Vibration     8          0.643              1.823              2.030
 Vibration     9          0.658              1.776              1.790
 Vibration    10          0.662              1.765              1.739
 Vibration    11          0.687              1.691              1.471
 Vibration    12          0.711              1.622              1.275
 Vibration    13          0.788              1.413              0.871
 Vibration    14          0.821              1.332              0.757
 Vibration    15          0.857              1.246              0.654
 Vibration    16          0.896              1.160              0.564

 Optimization completed.
    -- Stationary point found.
 Normal termination of Gaussian 16 at Tue Jun  1 20:47:37 2021.
