 Gaussian 16, Revision A.03,
 Gaussian 16:  ES64L-G16RevA.03 25-Dec-2016

 -----------------------------
 # opt freq b3lyp/6-31g(2df,p)
 -----------------------------

 -------------------
 Title Card Required
 -------------------
 Symbolic Z-matrix:
 Charge =  0 Multiplicity = 1

 SCF Done:  E(RB3LYP) =  -519.858034673     A.U. after   12 cycles
 SCF Done:  E(RB3LYP) =  -519.865073521     A.U. after   11 cycles
 SCF Done:  E(RB3LYP) =  -519.865914046     A.U. after   10 cycles
 SCF Done:  E(RB3LYP) =  -519.866417302     A.U. after   10 cycles
 SCF Done:  E(RB3LYP) =  -519.866610080     A.U. after    9 cycles
 SCF Done:  E(RB3LYP) =  -519.866709231     A.U. after   10 cycles
 SCF Done:  E(RB3LYP) =  -519.866767868     A.U. after   10 cycles
 SCF Done:  E(RB3LYP) =  -519.866822908     A.U. after   10 cycles
 SCF Done:  E(RB3LYP) =  -519.866897156     A.U. after   10 cycles
 SCF Done:  E(RB3LYP) =  -519.866938390     A.U. after    9 cycles
 SCF Done:  E(RB3LYP) =  -519.866942671     A.U. after    8 cycles
 SCF Done:  E(RB3LYP) =  -519.866943246     A.U. after    9 cycles
 SCF Done:  E(RB3LYP) =  -519.866944140     A.U. after    9 cycles
 SCF Done:  E(RB3LYP) =  -519.866945159     A.U. after    7 cycles
 SCF Done:  E(RB3LYP) =  -519.866945431     A.U. after    7 cycles
 Optimization completed.
    -- Stationary point found.
 Normal termination of Gaussian 16 at Tue Jun  1 11:08:59 2021.

 ----------------------------------------------------------------------
 #N Geom=AllCheck Guess=TCheck SCRF=Check GenChk RB3LYP/6-31G(2df,p) Fr
 eq
 ----------------------------------------------------------------------

 Structure from the checkpoint file:  "CCCC1NCCCN1CNC.chk"
 -------------------
 Title Card Required
 -------------------
 Charge =  0 Multiplicity = 1

                         Standard orientation:
 ---------------------------------------------------------------------
 Center     Atomic      Atomic             Coordinates (Angstroms)
 Number     Number       Type             X           Y           Z
 ---------------------------------------------------------------------
      1          6           0       -3.897323    0.907839   -0.163079
      2          6           0       -2.560502    0.225157   -0.470140
      3          6           0       -1.853728   -0.252119    0.808175
      4          6           0       -0.486561   -0.951604    0.656611
      5          7           0       -0.464875   -1.826191   -0.523288
      6          6           0        0.783015   -2.590757   -0.612960
      7          6           0        2.044086   -1.719559   -0.475334
      8          6           0        1.905430   -0.825946    0.772139
      9          7           0        0.667721   -0.040860    0.793985
     10          6           0        0.663536    1.115439   -0.097878
     11          7           0        1.833151    1.961388    0.098206
     12          6           0        1.627459    3.327289   -0.369624
     13          1           0       -4.405647    1.221219   -1.080337
     14          1           0       -3.755327    1.797731    0.460420
     15          1           0       -4.570327    0.232411    0.376800
     16          1           0       -1.928007    0.916543   -1.039119
     17          1           0       -2.738080   -0.639441   -1.119677
     18          1           0       -2.524505   -0.965333    1.300926
     19          1           0       -1.726845    0.581715    1.508680
     20          1           0       -0.382701   -1.630955    1.514175
     21          1           0       -0.583058   -1.272473   -1.365894
     22          1           0        0.785827   -3.150538   -1.554238
     23          1           0        0.773480   -3.334769    0.196476
     24          1           0        2.164701   -1.102019   -1.375705
     25          1           0        2.940789   -2.346615   -0.397202
     26          1           0        2.756708   -0.151870    0.891301
     27          1           0        1.897071   -1.468109    1.664061
     28          1           0       -0.212851    1.720841    0.152967
     29          1           0        0.550127    0.833780   -1.170695
     30          1           0        2.624739    1.567935   -0.398768
     31          1           0        0.879818    3.821508    0.260514
     32          1           0        1.286628    3.407127   -1.417856
     33          1           0        2.563005    3.886506   -0.276625
 ---------------------------------------------------------------------

 SCF Done:  E(RB3LYP) =  -519.866945431     A.U. after    1 cycles

 The electronic state is 1-A.
 Alpha  occ. eigenvalues --  -14.31273 -14.30406 -14.30371 -10.22382 -10.22341
 Alpha  occ. eigenvalues --  -10.20064 -10.19960 -10.19546 -10.17637 -10.17374
 Alpha  occ. eigenvalues --  -10.17320 -10.17059  -0.94201  -0.89950  -0.85038
 Alpha  occ. eigenvalues --   -0.78924  -0.75563  -0.70630  -0.68013  -0.65245
 Alpha  occ. eigenvalues --   -0.62598  -0.60603  -0.57593  -0.55514  -0.49178
 Alpha  occ. eigenvalues --   -0.48307  -0.47867  -0.46077  -0.45084  -0.43411
 Alpha  occ. eigenvalues --   -0.42570  -0.41426  -0.40806  -0.40116  -0.39310
 Alpha  occ. eigenvalues --   -0.37455  -0.37033  -0.36556  -0.36130  -0.35210
 Alpha  occ. eigenvalues --   -0.34080  -0.33502  -0.32314  -0.31963  -0.31133
 Alpha  occ. eigenvalues --   -0.23764  -0.21903  -0.19266
 Alpha virt. eigenvalues --    0.06800   0.08746   0.09632   0.10253   0.12113
 Alpha virt. eigenvalues --    0.12823   0.13508   0.14224   0.15198   0.15383
 Alpha virt. eigenvalues --    0.15655   0.16724   0.16961   0.17235   0.17834

 Mulliken charges:
               1
     1  C   -0.379212
     2  C   -0.181369
     3  C   -0.208217
     4  C    0.033104
     5  N   -0.288971
     6  C   -0.156819
     7  C   -0.203228
     8  C   -0.179182
     9  N   -0.058664
    10  C   -0.100258
    11  N   -0.286748
    12  C   -0.312262
    13  H    0.108996
    14  H    0.113026
    15  H    0.115643
    16  H    0.095179
    17  H    0.108484
    18  H    0.101175
    19  H    0.106497
    20  H    0.079180
    21  H    0.213381
    22  H    0.093972
    23  H    0.100289
    24  H    0.085352
    25  H    0.089455
    26  H    0.103674
    27  H    0.095869
    28  H    0.105914
    29  H    0.049340
    30  H    0.218379
    31  H    0.125927
    32  H    0.093100
    33  H    0.118993
 Sum of Mulliken charges =  -0.00000

 Dipole moment (field-independent basis, Debye):
    X=              0.6897    Y=              0.3758    Z=             -1.5173  Tot=              1.7085
 Quadrupole moment (field-independent basis, Debye-Ang):
   XX=            -75.1722   YY=            -76.8141   ZZ=            -77.7616
   XY=             -2.0846   XZ=             -3.0628   YZ=             -2.6832

  Exact polarizability: 129.561  -4.231 127.746  -0.178  -2.280 100.157
 Approx polarizability: 166.649  -2.501 169.192   0.802  -3.871 159.253

                      1                      2                      3
                      A                      A                      A
 Frequencies --     44.7323                61.0302                79.0595
 Red. masses --      2.6241                 2.5406                 2.5292
 Frc consts  --      0.0031                 0.0056                 0.0093
 IR Inten    --      1.1186                 0.7461                 1.3012

                      4                      5                      6
                      A                      A                      A
 Frequencies --    111.9350               117.1413               148.9745
 Red. masses --      2.2640                 2.1016                 2.8410
 Frc consts  --      0.0167                 0.0170                 0.0371
 IR Inten    --      0.2786                 0.3111                 0.3052

                      7                      8                      9
                      A                      A                      A
 Frequencies --    187.6232               221.5629               244.5445
 Red. masses --      1.8690                 2.1241                 1.2570
 Frc consts  --      0.0388                 0.0614                 0.0443
 IR Inten    --      0.4876                 0.8880                 0.9570

                     10                     11                     12
                      A                      A                      A
 Frequencies --    261.3713               293.9085               301.1387
 Red. masses --      1.4138                 2.4951                 2.6893
 Frc consts  --      0.0569                 0.1270                 0.1437
 IR Inten    --      0.2965                 0.3894                 3.2499

                     13                     14                     15
                      A                      A                      A
 Frequencies --    312.8132               368.1278               382.3066
 Red. masses --      2.4400                 2.5170                 2.6178
 Frc consts  --      0.1407                 0.2010                 0.2254
 IR Inten    --      4.4357                 1.2141                 2.2870

                     16                     17                     18
                      A                      A                      A
 Frequencies --    453.6936               488.3691               516.3107
 Red. masses --      2.2692                 4.1650                 2.6717
 Frc consts  --      0.2752                 0.5853                 0.4196
 IR Inten    --      3.4506                 4.6392                 3.2188

                     19                     20                     21
                      A                      A                      A
 Frequencies --    610.8580               678.3033               739.1585
 Red. masses --      1.7562                 2.9644                 1.2243
 Frc consts  --      0.3861                 0.8036                 0.3941
 IR Inten    --     18.5958                 2.2484                 1.0233

                     22                     23                     24
                      A                      A                      A
 Frequencies --    753.7387               794.5684               801.7716
 Red. masses --      2.2717                 1.4160                 1.7057
 Frc consts  --      0.7604                 0.5267                 0.6460
 IR Inten    --     84.4531                52.6431                19.5017

                     25                     26                     27
                      A                      A                      A
 Frequencies --    850.1279               863.9483               874.7951
 Red. masses --      2.2766                 1.8352                 1.8286
 Frc consts  --      0.9694                 0.8071                 0.8245
 IR Inten    --      4.6847                10.2785                12.1309

                     28                     29                     30
                      A                      A                      A
 Frequencies --    901.8265               933.3487               960.2891
 Red. masses --      1.4584                 2.3691                 1.7646
 Frc consts  --      0.6988                 1.2160                 0.9587
 IR Inten    --      9.8923                29.5264                18.4578

                     31                     32                     33
                      A                      A                      A
 Frequencies --    987.7749              1006.2379              1037.0148
 Red. masses --      2.2093                 1.8061                 2.4148
 Frc consts  --      1.2700                 1.0775                 1.5301
 IR Inten    --      6.3740                 8.8029                 5.2473

                     34                     35                     36
                      A                      A                      A
 Frequencies --   1040.0424              1045.1010              1090.5350
 Red. masses --      1.9916                 1.8148                 1.7167
 Frc consts  --      1.2693                 1.1679                 1.2029
 IR Inten    --      4.1510                41.7726                 2.2443

                     37                     38                     39
                      A                      A                      A
 Frequencies --   1105.7260              1117.6515              1137.7487
 Red. masses --      2.7766                 2.6079                 2.0741
 Frc consts  --      2.0001                 1.9194                 1.5819
 IR Inten    --     11.9708                 6.7717                22.6808

                     40                     41                     42
                      A                      A                      A
 Frequencies --   1149.1354              1157.6523              1176.6824
 Red. masses --      1.8101                 2.1315                 2.4063
 Frc consts  --      1.4083                 1.6830                 1.9630
 IR Inten    --     28.3136                60.4344                67.2499

                     43                     44                     45
                      A                      A                      A
 Frequencies --   1195.2141              1223.4069              1236.2739
 Red. masses --      2.2633                 1.3892                 1.8847
 Frc consts  --      1.9050                 1.2250                 1.6972
 IR Inten    --     12.7402                10.1889                24.6425

                     46                     47                     48
                      A                      A                      A
 Frequencies --   1257.3878              1281.8729              1309.2347
 Red. masses --      1.5657                 1.3110                 1.4107
 Frc consts  --      1.4585                 1.2693                 1.4246
 IR Inten    --      4.0715                 7.9863                15.2923

                     49                     50                     51
                      A                      A                      A
 Frequencies --   1321.4436              1328.6299              1338.3684
 Red. masses --      1.1992                 1.2260                 1.2068
 Frc consts  --      1.2337                 1.2751                 1.2737
 IR Inten    --     13.1009                 1.1714                 3.5194

                     52                     53                     54
                      A                      A                      A
 Frequencies --   1360.3791              1366.7379              1381.0191
 Red. masses --      1.3646                 1.2510                 1.3311
 Frc consts  --      1.4879                 1.3768                 1.4957
 IR Inten    --      1.8222                 2.7237                11.2195

                     55                     56                     57
                      A                      A                      A
 Frequencies --   1388.3725              1399.8053              1412.8293
 Red. masses --      1.3513                 1.4293                 1.2326
 Frc consts  --      1.5346                 1.6501                 1.4497
 IR Inten    --     11.8528                 0.3357                 0.4229

                     58                     59                     60
                      A                      A                      A
 Frequencies --   1423.1154              1429.0902              1461.6241
 Red. masses --      1.3002                 1.2509                 1.1722
 Frc consts  --      1.5514                 1.5052                 1.4754
 IR Inten    --      8.4570                18.6438                 0.2792

                     61                     62                     63
                      A                      A                      A
 Frequencies --   1474.5550              1481.1702              1483.2474
 Red. masses --      1.1006                 1.1321                 1.0975
 Frc consts  --      1.4099                 1.4633                 1.4226
 IR Inten    --     11.1062                12.7918                 4.7794

                     64                     65                     66
                      A                      A                      A
 Frequencies --   1488.4384              1492.3593              1494.4980
 Red. masses --      1.0872                 1.1421                 1.1073
 Frc consts  --      1.4191                 1.4987                 1.4571
 IR Inten    --      9.4386                17.2234                 5.4013

                     67                     68                     69
                      A                      A                      A
 Frequencies --   1498.5007              1500.1873              1505.9729
 Red. masses --      1.0526                 1.0580                 1.0793
 Frc consts  --      1.3926                 1.4029                 1.4422
 IR Inten    --      4.1228                 7.7928                 7.3300

                     70                     71                     72
                      A                      A                      A
 Frequencies --   1513.0061              1521.2390              1525.7290
 Red. masses --      1.0938                 1.0803                 1.0770
 Frc consts  --      1.4752                 1.4729                 1.4771
 IR Inten    --      1.6964                11.7336                 2.4745

                     73                     74                     75
                      A                      A                      A
 Frequencies --   2807.0316              2940.0883              2996.2862
 Red. masses --      1.0717                 1.0599                 1.0816
 Frc consts  --      4.9752                 5.3979                 5.7212
 IR Inten    --     92.4326                91.9341                 7.8858

                     76                     77                     78
                      A                      A                      A
 Frequencies --   3005.6493              3007.2776              3014.7101
 Red. masses --      1.0673                 1.0717                 1.0619
 Frc consts  --      5.6809                 5.7104                 5.6862
 IR Inten    --     23.6482                34.4042                51.9115

                     79                     80                     81
                      A                      A                      A
 Frequencies --   3027.1825              3029.9472              3039.3115
 Red. masses --      1.0379                 1.0579                 1.0597
 Frc consts  --      5.6037                 5.7223                 5.7676
 IR Inten    --     25.6167                 1.7050                63.2250

                     82                     83                     84
                      A                      A                      A
 Frequencies --   3056.6933              3056.9161              3057.2732
 Red. masses --      1.0835                 1.0926                 1.0930
 Frc consts  --      5.9645                 6.0158                 6.0195
 IR Inten    --     72.5538                34.7772                 8.6050

                     85                     86                     87
                      A                      A                      A
 Frequencies --   3064.3332              3067.6561              3077.0743
 Red. masses --      1.0851                 1.1007                 1.1021
 Frc consts  --      6.0032                 6.1030                 6.1484
 IR Inten    --     14.9601                48.1243                12.7738

                     88                     89                     90
                      A                      A                      A
 Frequencies --   3096.2643              3098.5424              3100.4938
 Red. masses --      1.0917                 1.1029                 1.1009
 Frc consts  --      6.1664                 6.2385                 6.2353
 IR Inten    --     25.1469                74.2648                37.5310

                     91                     92                     93
                      A                      A                      A
 Frequencies --   3104.2837              3517.7831              3522.6245
 Red. masses --      1.1014                 1.0730                 1.0737
 Frc consts  --      6.2535                 7.8236                 7.8501
 IR Inten    --     25.6093                 0.3684                 0.3498

 - Thermochemistry -
 -------------------
 Temperature   298.150 Kelvin.  Pressure   1.00000 Atm.
 Atom     1 has atomic number  6 and mass  12.00000

 Molecular mass:   171.17355 amu.
 Principal axes and moments of inertia in atomic units:
                           1         2         3
     Eigenvalues --  1974.039672452.639213935.63305
           X            0.99894  -0.04568  -0.00508
           Y            0.04563   0.99891  -0.00937
           Z            0.00550   0.00913   0.99994
 This molecule is an asymmetric top.
 Rotational symmetry number  1.
 Warning -- assumption of classical behavior for rotation
           may cause significant error
 Rotational temperatures (Kelvin)      0.04388     0.03531     0.02201
 Rotational constants (GHZ):           0.91424     0.73584     0.45856
 Zero-point vibrational energy     802633.3 (Joules/Mol)
                                  191.83396 (Kcal/Mol)
 Warning -- explicit consideration of  19 degrees of freedom as
           vibrations may cause significant error
 Vibrational temperatures:     64.36    87.81   113.75   161.05   168.54
          (Kelvin)            214.34   269.95   318.78   351.85   376.05
                              422.87   433.27   450.07   529.65   550.05
                              652.76   702.65   742.86   878.89   975.93
                             1063.48  1084.46  1143.21  1153.57  1223.14
                             1243.03  1258.64  1297.53  1342.88  1381.64
                             1421.19  1447.75  1492.03  1496.39  1503.67
                             1569.04  1590.89  1608.05  1636.97  1653.35
                             1665.60  1692.98  1719.65  1760.21  1778.72
                             1809.10  1844.33  1883.70  1901.26  1911.60
                             1925.61  1957.28  1966.43  1986.98  1997.56
                             2014.01  2032.75  2047.55  2056.14  2102.95
                             2121.56  2131.07  2134.06  2141.53  2147.17
                             2150.25  2156.01  2158.43  2166.76  2176.88
                             2188.72  2195.18  4038.69  4230.13  4310.99
                             4324.46  4326.80  4337.50  4355.44  4359.42
                             4372.89  4397.90  4398.22  4398.73  4408.89
                             4413.67  4427.22  4454.83  4458.11  4460.92
                             4466.37  5061.31  5068.27

 Zero-point correction=                           0.305707 (Hartree/Particle)
 Thermal correction to Energy=                    0.319247
 Thermal correction to Enthalpy=                  0.320192
 Thermal correction to Gibbs Free Energy=         0.265522
 Sum of electronic and zero-point Energies=           -519.561239
 Sum of electronic and thermal Energies=              -519.547698
 Sum of electronic and thermal Enthalpies=            -519.546754
 Sum of electronic and thermal Free Energies=         -519.601424

                     E (Thermal)             CV                S
                      KCal/Mol        Cal/Mol-Kelvin    Cal/Mol-Kelvin
 Total                  200.331             51.289            115.063
 Electronic               0.000              0.000              0.000
 Translational            0.889              2.981             41.320
 Rotational               0.889              2.981             31.322
 Vibrational            198.553             45.328             42.420
 Vibration     1          0.595              1.980              5.038
 Vibration     2          0.597              1.973              4.424
 Vibration     3          0.600              1.963              3.914
 Vibration     4          0.607              1.940              3.235
 Vibration     5          0.608              1.935              3.147
 Vibration     6          0.618              1.904              2.685
 Vibration     7          0.632              1.857              2.251
 Vibration     8          0.648              1.808              1.946
 Vibration     9          0.660              1.772              1.770
 Vibration    10          0.669              1.743              1.653
 Vibration    11          0.689              1.685              1.451
 Vibration    12          0.693              1.672              1.411
 Vibration    13          0.701              1.649              1.347
 Vibration    14          0.741              1.538              1.088
 Vibration    15          0.752              1.508              1.030
 Vibration    16          0.812              1.353              0.785
 Vibration    17          0.844              1.276              0.688
 Vibration    18          0.871              1.214              0.619
 Vibration    19          0.970              1.009              0.431

                           ! Non-Optimized Parameters !
 Normal termination of Gaussian 16 at Tue Jun  1 12:52:57 2021.
