 Gaussian 16, Revision A.03,
 Gaussian 16:  ES64L-G16RevA.03 25-Dec-2016

 -----------------------------
 # opt freq b3lyp/6-31g(2df,p)
 -----------------------------

 -------------------
 Title Card Required
 -------------------
 Symbolic Z-matrix:
 Charge =  0 Multiplicity = 1

 SCF Done:  E(RB3LYP) =  -531.292689046     A.U. after   15 cycles
 SCF Done:  E(RB3LYP) =  -531.296390745     A.U. after   11 cycles
 SCF Done:  E(RB3LYP) =  -531.296865893     A.U. after   11 cycles
 SCF Done:  E(RB3LYP) =  -531.296951903     A.U. after    9 cycles
 SCF Done:  E(RB3LYP) =  -531.296960725     A.U. after    8 cycles
 SCF Done:  E(RB3LYP) =  -531.296961037     A.U. after    7 cycles
 Optimization completed.
    -- Stationary point found.
 Normal termination of Gaussian 16 at Mon May 31 20:55:49 2021.

 ----------------------------------------------------------------------
 #N Geom=AllCheck Guess=TCheck SCRF=Check GenChk RB3LYP/6-31G(2df,p) Fr
 eq
 ----------------------------------------------------------------------

 Structure from the checkpoint file:  "CCCCCpdOpNCNdNN.chk"
 -------------------
 Title Card Required
 -------------------
 Charge =  0 Multiplicity = 1

                         Standard orientation:
 ---------------------------------------------------------------------
 Center     Atomic      Atomic             Coordinates (Angstroms)
 Number     Number       Type             X           Y           Z
 ---------------------------------------------------------------------
      1          6           0        5.444143   -0.090825    0.000010
      2          6           0        4.091790   -0.808805    0.000005
      3          6           0        2.904044    0.158245   -0.000002
      4          6           0        1.552678   -0.555938   -0.000007
      5          6           0        0.370160    0.413335   -0.000013
      6          8           0        0.496490    1.627522    0.000002
      7          7           0       -0.854650   -0.176081   -0.000014
      8          6           0       -2.078091    0.598263   -0.000003
      9          7           0       -3.171083   -0.376543    0.000001
     10          7           0       -4.288502    0.181481    0.000012
     11          7           0       -5.311263   -0.666304   -0.000002
     12          1           0        6.275937   -0.802327    0.000015
     13          1           0        5.551452    0.548547    0.883191
     14          1           0        5.551460    0.548545   -0.883172
     15          1           0        4.027360   -1.467780    0.876720
     16          1           0        4.027368   -1.467782   -0.876710
     17          1           0        2.958221    0.819509   -0.872162
     18          1           0        2.958212    0.819511    0.872157
     19          1           0        1.465497   -1.213735    0.875743
     20          1           0        1.465504   -1.213736   -0.875758
     21          1           0       -0.961881   -1.177447   -0.000013
     22          1           0       -2.122764    1.246983   -0.884292
     23          1           0       -2.122753    1.246977    0.884290
     24          1           0       -6.229823   -0.265837    0.000046
     25          1           0       -5.145569   -1.665123    0.000013
 ---------------------------------------------------------------------

 SCF Done:  E(RB3LYP) =  -531.296961037     A.U. after    1 cycles

 The electronic state is 1-A.
 Alpha  occ. eigenvalues --  -19.08952 -14.41567 -14.38080 -14.35288 -14.33972
 Alpha  occ. eigenvalues --  -10.26515 -10.23607 -10.18372 -10.17439 -10.17001
 Alpha  occ. eigenvalues --  -10.16674  -1.07327  -1.01932  -0.92606  -0.88615
 Alpha  occ. eigenvalues --   -0.79305  -0.74396  -0.71318  -0.64557  -0.61834
 Alpha  occ. eigenvalues --   -0.58303  -0.57043  -0.55840  -0.49304  -0.47813
 Alpha  occ. eigenvalues --   -0.47685  -0.46588  -0.44641  -0.42810  -0.41173
 Alpha  occ. eigenvalues --   -0.40762  -0.40152  -0.38691  -0.36696  -0.36350
 Alpha  occ. eigenvalues --   -0.33604  -0.32846  -0.32254  -0.31714  -0.25719
 Alpha  occ. eigenvalues --   -0.25070  -0.23750  -0.23424
 Alpha virt. eigenvalues --   -0.02111   0.04320   0.07096   0.09242   0.09910
 Alpha virt. eigenvalues --    0.12404   0.13339   0.13682   0.14281   0.15370
 Alpha virt. eigenvalues --    0.17681   0.17948   0.18314   0.19215   0.19636

 Mulliken charges:
               1
     1  C   -0.379581
     2  C   -0.171201
     3  C   -0.140980
     4  C   -0.336179
     5  C    0.419273
     6  O   -0.382122
     7  N   -0.335443
     8  C   -0.040652
     9  N   -0.234839
    10  N   -0.021717
    11  N   -0.368862
    12  H    0.107950
    13  H    0.115405
    14  H    0.115405
    15  H    0.089910
    16  H    0.089910
    17  H    0.109970
    18  H    0.109971
    19  H    0.113270
    20  H    0.113269
    21  H    0.244937
    22  H    0.128175
    23  H    0.128175
    24  H    0.277196
    25  H    0.248758
 Sum of Mulliken charges =  -0.00000

 Dipole moment (field-independent basis, Debye):
    X=             -3.2033    Y=             -3.6817    Z=              0.0001  Tot=              4.8801
 Quadrupole moment (field-independent basis, Debye-Ang):
   XX=            -42.7230   YY=            -69.5208   ZZ=            -66.5633
   XY=              3.4571   XZ=             -0.0006   YZ=             -0.0001

  Exact polarizability: 151.521   6.973  89.341  -0.000   0.000  67.963
 Approx polarizability: 173.924  11.027 142.927   0.000   0.000 105.816

 ******    3 imaginary frequencies (negative Signs) ******

                      1                      2                      3
                      A                      A                      A
 Frequencies --   -429.9041               -78.4283               -34.0243
 Red. masses --      1.2686                 3.8850                 2.4271
 Frc consts  --      0.1381                 0.0141                 0.0017
 IR Inten    --    186.5580                 0.0982                 0.6331

                      4                      5                      6
                      A                      A                      A
 Frequencies --      5.2759                58.8424                60.7306
 Red. masses --      3.7099                 4.4833                 2.3505
 Frc consts  --      0.0001                 0.0091                 0.0051
 IR Inten    --      0.1598                 0.8195                 0.0001

                      7                      8                      9
                      A                      A                      A
 Frequencies --    115.4319               130.2159               143.0025
 Red. masses --      2.3106                 2.3710                 3.9513
 Frc consts  --      0.0181                 0.0237                 0.0476
 IR Inten    --      0.8580                10.6618                 2.6736

                     10                     11                     12
                      A                      A                      A
 Frequencies --    246.1600               247.8863               261.5631
 Red. masses --      1.1102                 5.1313                 4.2530
 Frc consts  --      0.0396                 0.1858                 0.1714
 IR Inten    --      0.3545                 3.4514                 5.7654

                     13                     14                     15
                      A                      A                      A
 Frequencies --    288.9284               310.7209               385.8093
 Red. masses --      2.8158                 4.8642                 1.1783
 Frc consts  --      0.1385                 0.2767                 0.1033
 IR Inten    --     28.3412                18.1045                44.2890

                     16                     17                     18
                      A                      A                      A
 Frequencies --    416.4190               526.0525               600.3961
 Red. masses --      3.5548                 3.4970                 1.9269
 Frc consts  --      0.3632                 0.5702                 0.4092
 IR Inten    --     11.2497                11.4236                 0.6630

                     19                     20                     21
                      A                      A                      A
 Frequencies --    612.4067               656.5670               723.8823
 Red. masses --      3.8131                 1.3057                 4.2966
 Frc consts  --      0.8426                 0.3316                 1.3265
 IR Inten    --      6.4848                 1.7382                 4.3704

                     22                     23                     24
                      A                      A                      A
 Frequencies --    732.6472               806.7720               907.1684
 Red. masses --      1.1117                 1.3071                 1.8246
 Frc consts  --      0.3516                 0.5013                 0.8847
 IR Inten    --      4.0909                 0.2921                 1.1501

                     25                     26                     27
                      A                      A                      A
 Frequencies --    936.9987               951.7735              1026.7937
 Red. masses --      1.3105                 4.8972                 3.5550
 Frc consts  --      0.6779                 2.6137                 2.2083
 IR Inten    --      2.0800                23.7228                 1.6691

                     28                     29                     30
                      A                      A                      A
 Frequencies --   1045.7257              1054.1133              1073.4823
 Red. masses --      1.5652                 3.0244                 2.3715
 Frc consts  --      1.0085                 1.9800                 1.6101
 IR Inten    --      4.8560                 2.1506                 5.5448

                     31                     32                     33
                      A                      A                      A
 Frequencies --   1100.2287              1120.7198              1149.7172
 Red. masses --      2.3746                 1.5143                 3.6714
 Frc consts  --      1.6936                 1.1206                 2.8593
 IR Inten    --      6.3420                 0.2019                11.9440

                     34                     35                     36
                      A                      A                      A
 Frequencies --   1205.9683              1224.3184              1227.8128
 Red. masses --      2.0754                 2.1827                 1.0653
 Frc consts  --      1.7783                 1.9277                 0.9462
 IR Inten    --    215.8730                 1.7139                 0.0057

                     37                     38                     39
                      A                      A                      A
 Frequencies --   1235.0926              1281.1056              1291.7069
 Red. masses --      1.4824                 1.7088                 1.8776
 Frc consts  --      1.3324                 1.6523                 1.8457
 IR Inten    --      0.0540                48.1729                31.9174

                     40                     41                     42
                      A                      A                      A
 Frequencies --   1313.1786              1325.1495              1360.3755
 Red. masses --      1.1849                 1.0547                 1.4370
 Frc consts  --      1.2039                 1.0912                 1.5668
 IR Inten    --      0.3255                 0.0401                 2.8662

                     43                     44                     45
                      A                      A                      A
 Frequencies --   1392.1355              1401.5698              1413.6401
 Red. masses --      1.5353                 1.6514                 1.2543
 Frc consts  --      1.7531                 1.9113                 1.4768
 IR Inten    --      0.5890                 7.9923                 0.0723

                     46                     47                     48
                      A                      A                      A
 Frequencies --   1465.5832              1483.2072              1495.3765
 Red. masses --      1.0944                 1.0718                 1.0657
 Frc consts  --      1.3850                 1.3892                 1.4041
 IR Inten    --      6.9019                 2.3933                 2.5988

                     49                     50                     51
                      A                      A                      A
 Frequencies --   1499.4792              1508.4230              1511.5624
 Red. masses --      1.0400                 1.2902                 1.0845
 Frc consts  --      1.3778                 1.7297                 1.4599
 IR Inten    --      4.8273               234.8412                 3.6864

                     52                     53                     54
                      A                      A                      A
 Frequencies --   1520.9445              1598.0785              1625.5774
 Red. masses --      1.8585                 1.7870                 2.4187
 Frc consts  --      2.5330                 2.6889                 3.7657
 IR Inten    --    346.5652               137.7309                16.8049

                     55                     56                     57
                      A                      A                      A
 Frequencies --   1766.8375              3005.9370              3009.9342
 Red. masses --     10.0979                 1.0589                 1.0556
 Frc consts  --     18.5727                 5.6374                 5.6344
 IR Inten    --    193.1695                14.0396                10.4971

                     58                     59                     60
                      A                      A                      A
 Frequencies --   3011.8020              3029.2081              3032.7864
 Red. masses --      1.0585                 1.0355                 1.1004
 Frc consts  --      5.6571                 5.5985                 5.9635
 IR Inten    --     39.6147                26.0822                15.5916

                     61                     62                     63
                      A                      A                      A
 Frequencies --   3040.7484              3042.6440              3044.3072
 Red. masses --      1.1001                 1.1080                 1.0596
 Frc consts  --      5.9928                 6.0435                 5.7858
 IR Inten    --      4.0752                26.5703                31.9577

                     64                     65                     66
                      A                      A                      A
 Frequencies --   3083.0551              3097.5639              3100.4204
 Red. masses --      1.1038                 1.1021                 1.1012
 Frc consts  --      6.1816                 6.2305                 6.2369
 IR Inten    --     16.3510                64.8340                38.8227

                     67                     68                     69
                      A                      A                      A
 Frequencies --   3524.2286              3643.9743              3759.8260
 Red. masses --      1.0467                 1.0773                 1.1006
 Frc consts  --      7.6592                 8.4280                 9.1664
 IR Inten    --     20.0202                38.8918                83.9935

 - Thermochemistry -
 -------------------
 Temperature   298.150 Kelvin.  Pressure   1.00000 Atm.
 Atom     1 has atomic number  6 and mass  12.00000

 Molecular mass:   158.11676 amu.
 Principal axes and moments of inertia in atomic units:
                           1         2         3
     Eigenvalues --   338.371106377.302386660.13055
           X            1.00000  -0.00227  -0.00000
           Y            0.00227   1.00000  -0.00000
           Z            0.00000   0.00000   1.00000
 This molecule is an asymmetric top.
 Rotational symmetry number  1.
 Rotational temperatures (Kelvin)      0.25597     0.01358     0.01300
 Rotational constants (GHZ):           5.33362     0.28299     0.27098
    3 imaginary frequencies ignored.
 Zero-point vibrational energy     557878.4 (Joules/Mol)
                                  133.33614 (Kcal/Mol)
 Warning -- explicit consideration of  16 degrees of freedom as
           vibrations may cause significant error
 Vibrational temperatures:      7.59    84.66    87.38   166.08   187.35
          (Kelvin)            205.75   354.17   356.65   376.33   415.70
                              447.06   555.09   599.13   756.87   863.84
                              881.12   944.65  1041.51  1054.12  1160.76
                             1305.21  1348.13  1369.39  1477.33  1504.57
                             1516.63  1544.50  1582.98  1612.47  1654.19
                             1735.12  1761.52  1766.55  1777.02  1843.23
                             1858.48  1889.37  1906.59  1957.28  2002.97
                             2016.55  2033.91  2108.65  2134.00  2151.51
                             2157.42  2170.28  2174.80  2188.30  2299.28
                             2338.84  2542.09  4324.87  4330.62  4333.31
                             4358.35  4363.50  4374.96  4377.69  4380.08
                             4435.83  4456.70  4460.81  5070.58  5242.87
                             5409.55

 Zero-point correction=                           0.212485 (Hartree/Particle)
 Thermal correction to Energy=                    0.224271
 Thermal correction to Enthalpy=                  0.225215
 Thermal correction to Gibbs Free Energy=         0.171525
 Sum of electronic and zero-point Energies=           -531.084476
 Sum of electronic and thermal Energies=              -531.072690
 Sum of electronic and thermal Enthalpies=            -531.071746
 Sum of electronic and thermal Free Energies=         -531.125436

                     E (Thermal)             CV                S
                      KCal/Mol        Cal/Mol-Kelvin    Cal/Mol-Kelvin
 Total                  140.732             41.469            113.000
 Electronic               0.000              0.000              0.000
 Translational            0.889              2.981             41.084
 Rotational               0.889              2.981             31.042
 Vibrational            138.955             35.507             40.874
 Vibration     1          0.593              1.987              9.282
 Vibration     2          0.596              1.974              4.496
 Vibration     3          0.597              1.973              4.433
 Vibration     4          0.608              1.937              3.175
 Vibration     5          0.612              1.923              2.943
 Vibration     6          0.616              1.910              2.763
 Vibration     7          0.661              1.769              1.758
 Vibration     8          0.662              1.766              1.746
 Vibration     9          0.669              1.743              1.651
 Vibration    10          0.685              1.694              1.480
 Vibration    11          0.700              1.653              1.358
 Vibration    12          0.754              1.500              1.016
 Vibration    13          0.780              1.435              0.904
 Vibration    14          0.881              1.192              0.596
 Vibration    15          0.959              1.031              0.449
 Vibration    16          0.972              1.006              0.429

 Optimization completed.
    -- Stationary point found.
 Normal termination of Gaussian 16 at Mon May 31 21:34:35 2021.
