 Gaussian 16, Revision A.03,
 Gaussian 16:  ES64L-G16RevA.03 25-Dec-2016

 -----------------------------
 # opt freq b3lyp/6-31g(2df,p)
 -----------------------------

 -------------------
 Title Card Required
 -------------------
 Symbolic Z-matrix:
 Charge =  0 Multiplicity = 1

 SCF Done:  E(RB3LYP) =  -439.771956916     A.U. after   23 cycles
 SCF Done:  E(RB3LYP) =  -439.809047943     A.U. after   15 cycles
 SCF Done:  E(RB3LYP) =  -439.826098058     A.U. after   14 cycles
 SCF Done:  E(RB3LYP) =  -439.828900584     A.U. after   13 cycles
 SCF Done:  E(RB3LYP) =  -439.830013648     A.U. after   13 cycles
 SCF Done:  E(RB3LYP) =  -439.832208029     A.U. after   14 cycles
 SCF Done:  E(RB3LYP) =  -439.832633580     A.U. after   16 cycles
 SCF Done:  E(RB3LYP) =  -439.837697381     A.U. after   13 cycles
 SCF Done:  E(RB3LYP) =  -439.840755221     A.U. after   13 cycles
 SCF Done:  E(RB3LYP) =  -439.845905732     A.U. after   14 cycles
 SCF Done:  E(RB3LYP) =  -439.915912317     A.U. after    9 cycles
 SCF Done:  E(RB3LYP) =  -439.915953644     A.U. after   10 cycles
 SCF Done:  E(RB3LYP) =  -439.915965958     A.U. after    9 cycles
 SCF Done:  E(RB3LYP) =  -439.915979659     A.U. after    9 cycles
 SCF Done:  E(RB3LYP) =  -439.915981801     A.U. after    8 cycles
 SCF Done:  E(RB3LYP) =  -439.915982499     A.U. after    8 cycles
 SCF Done:  E(RB3LYP) =  -439.915982851     A.U. after    8 cycles
 SCF Done:  E(RB3LYP) =  -439.915982938     A.U. after    7 cycles
 SCF Done:  E(RB3LYP) =  -439.915982985     A.U. after    6 cycles
 Optimization completed.
    -- Stationary point found.
 Normal termination of Gaussian 16 at Mon May 31 22:47:43 2021.

 ----------------------------------------------------------------------
 #N Geom=AllCheck Guess=TCheck SCRF=Check GenChk RB3LYP/6-31G(2df,p) Fr
 eq
 ----------------------------------------------------------------------

 Structure from the checkpoint file:  "CCCCpNpNCN1CdC1.chk"
 -------------------
 Title Card Required
 -------------------
 Charge =  0 Multiplicity = 1

                         Standard orientation:
 ---------------------------------------------------------------------
 Center     Atomic      Atomic             Coordinates (Angstroms)
 Number     Number       Type             X           Y           Z
 ---------------------------------------------------------------------
      1          6           0        4.403125   -0.789076   -0.142506
      2          6           0        3.242066    0.157105    0.176986
      3          6           0        1.870092   -0.476119   -0.070175
      4          6           0        0.678330    0.433038    0.284929
      5          7           0        0.603817    1.692300   -0.458876
      6          7           0       -0.555911   -0.293392    0.027642
      7          6           0       -1.748633    0.291414    0.625931
      8          7           0       -2.854696   -0.665293    0.449631
      9          6           0       -4.149046   -0.022345    0.023639
     10          6           0       -3.488508   -0.576814   -0.915133
     11          1           0        5.370366   -0.309832    0.038358
     12          1           0        4.378341   -1.105201   -1.191273
     13          1           0        4.358522   -1.693345    0.474463
     14          1           0        3.341167    1.066266   -0.429624
     15          1           0        3.310927    0.479648    1.224760
     16          1           0        1.794892   -1.400957    0.520154
     17          1           0        1.774408   -0.771840   -1.123925
     18          1           0        0.775022    0.723067    1.350829
     19          1           0        0.621616    1.490164   -1.455708
     20          1           0        1.406176    2.277006   -0.249188
     21          1           0       -0.474375   -1.248111    0.364222
     22          1           0       -1.937709    1.262622    0.150893
     23          1           0       -1.639769    0.458611    1.714429
     24          1           0       -4.982929    0.469510    0.487775
     25          1           0       -3.293684   -0.936132   -1.906970
 ---------------------------------------------------------------------

 SCF Done:  E(RB3LYP) =  -439.915982985     A.U. after    1 cycles

 The electronic state is 1-A.
 Alpha  occ. eigenvalues --  -14.32664 -14.30128 -14.30053 -10.22685 -10.22006
 Alpha  occ. eigenvalues --  -10.21815 -10.20411 -10.18108 -10.17399 -10.17368
 Alpha  occ. eigenvalues --   -0.95637  -0.91227  -0.84134  -0.78195  -0.71963
 Alpha  occ. eigenvalues --   -0.68050  -0.60656  -0.58726  -0.57786  -0.57280
 Alpha  occ. eigenvalues --   -0.51454  -0.49644  -0.46112  -0.45581  -0.43503
 Alpha  occ. eigenvalues --   -0.42281  -0.40874  -0.40486  -0.39271  -0.37263
 Alpha  occ. eigenvalues --   -0.35961  -0.34160  -0.33428  -0.32658  -0.30566
 Alpha  occ. eigenvalues --   -0.30127  -0.23216  -0.21845  -0.19642
 Alpha virt. eigenvalues --    0.00757   0.08122   0.10462   0.10913   0.11177
 Alpha virt. eigenvalues --    0.11828   0.12153   0.14377   0.15259   0.15355
 Alpha virt. eigenvalues --    0.15943   0.16577   0.17141   0.18223   0.18628

 Mulliken charges:
               1
     1  C   -0.380064
     2  C   -0.171579
     3  C   -0.182784
     4  C    0.060124
     5  N   -0.490739
     6  N   -0.293238
     7  C   -0.070246
     8  N   -0.169529
     9  C   -0.118869
    10  C   -0.095128
    11  H    0.111017
    12  H    0.114627
    13  H    0.115102
    14  H    0.086793
    15  H    0.095537
    16  H    0.086905
    17  H    0.094241
    18  H    0.054245
    19  H    0.220231
    20  H    0.223946
    21  H    0.214523
    22  H    0.096948
    23  H    0.070023
    24  H    0.164047
    25  H    0.163869
 Sum of Mulliken charges =  -0.00000

 Dipole moment (field-independent basis, Debye):
    X=              0.6784    Y=              0.4796    Z=             -0.7438  Tot=              1.1151
 Quadrupole moment (field-independent basis, Debye-Ang):
   XX=            -55.0851   YY=            -64.1694   ZZ=            -59.6479
   XY=             -1.5281   XZ=              1.8404   YZ=              1.3525

  Exact polarizability: 124.051  -2.642  81.806   0.520   3.943  85.303
 Approx polarizability: 143.292  -5.230 126.386  -2.591   8.554 139.670

                      1                      2                      3
                      A                      A                      A
 Frequencies --     30.0072                40.0952                79.9850
 Red. masses --      3.7324                 3.2653                 1.9776
 Frc consts  --      0.0020                 0.0031                 0.0075
 IR Inten    --      3.8475                 2.0486                 0.1959

                      4                      5                      6
                      A                      A                      A
 Frequencies --     83.9723               105.9836               158.0198
 Red. masses --      2.6860                 2.9396                 2.6175
 Frc consts  --      0.0112                 0.0195                 0.0385
 IR Inten    --      2.5153                 0.4149                 1.4105

                      7                      8                      9
                      A                      A                      A
 Frequencies --    204.4819               248.6107               269.8548
 Red. masses --      2.9085                 1.1234                 1.1739
 Frc consts  --      0.0717                 0.0409                 0.0504
 IR Inten    --      3.3203                 0.5849                32.0271

                     10                     11                     12
                      A                      A                      A
 Frequencies --    276.0136               326.9774               346.2067
 Red. masses --      3.9216                 2.8649                 2.7006
 Frc consts  --      0.1760                 0.1805                 0.1907
 IR Inten    --      0.8450                 5.0462                 4.0056

                     13                     14                     15
                      A                      A                      A
 Frequencies --    453.6716               461.0145               523.5007
 Red. masses --      2.0425                 2.8658                 2.1788
 Frc consts  --      0.2477                 0.3589                 0.3518
 IR Inten    --      7.6534                 1.1751                11.5015

                     16                     17                     18
                      A                      A                      A
 Frequencies --    555.9463               607.5809               649.8631
 Red. masses --      3.2977                 2.0006                 2.5502
 Frc consts  --      0.6005                 0.4351                 0.6346
 IR Inten    --      8.9730                40.6796                11.0809

                     19                     20                     21
                      A                      A                      A
 Frequencies --    733.3597               749.6323               797.4764
 Red. masses --      1.5690                 1.1155                 1.3421
 Frc consts  --      0.4972                 0.3693                 0.5029
 IR Inten    --      2.7279                 3.5683               101.0054

                     22                     23                     24
                      A                      A                      A
 Frequencies --    850.4826               862.2615               870.8026
 Red. masses --      1.9516                 1.7332                 1.5078
 Frc consts  --      0.8317                 0.7592                 0.6737
 IR Inten    --     10.2578                71.6018                37.1231

                     25                     26                     27
                      A                      A                      A
 Frequencies --    909.0826               954.7964               965.4135
 Red. masses --      1.8453                 1.4393                 1.4788
 Frc consts  --      0.8985                 0.7731                 0.8121
 IR Inten    --     11.7232                23.7965                 6.8203

                     28                     29                     30
                      A                      A                      A
 Frequencies --   1008.9332              1023.3315              1051.5755
 Red. masses --      1.7736                 2.2245                 2.3402
 Frc consts  --      1.0637                 1.3725                 1.5247
 IR Inten    --      4.0386                 8.6137                 3.4180

                     31                     32                     33
                      A                      A                      A
 Frequencies --   1082.3255              1093.6527              1110.8295
 Red. masses --      1.9922                 1.7004                 2.1430
 Frc consts  --      1.3750                 1.1983                 1.5580
 IR Inten    --      5.9854                12.6219                 5.2669

                     34                     35                     36
                      A                      A                      A
 Frequencies --   1133.4826              1180.3933              1190.8271
 Red. masses --      3.5222                 2.9565                 2.4166
 Frc consts  --      2.6662                 2.4271                 2.0191
 IR Inten    --     33.1609                91.2187                 9.9641

                     37                     38                     39
                      A                      A                      A
 Frequencies --   1223.4602              1248.7856              1278.5918
 Red. masses --      1.4053                 1.3234                 1.3416
 Frc consts  --      1.2394                 1.2159                 1.2922
 IR Inten    --      8.5163                16.9340                10.2277

                     40                     41                     42
                      A                      A                      A
 Frequencies --   1293.7993              1329.3201              1350.6426
 Red. masses --      1.3216                 1.1023                 1.2725
 Frc consts  --      1.3034                 1.1476                 1.3677
 IR Inten    --      3.1366                 0.1102                22.1526

                     43                     44                     45
                      A                      A                      A
 Frequencies --   1385.9460              1397.7193              1412.7691
 Red. masses --      1.4306                 1.4147                 1.2298
 Frc consts  --      1.6191                 1.6284                 1.4461
 IR Inten    --      9.0902                 6.6034                 0.2299

                     46                     47                     48
                      A                      A                      A
 Frequencies --   1428.5657              1480.4277              1485.1461
 Red. masses --      1.3595                 1.0839                 1.2765
 Frc consts  --      1.6347                 1.3996                 1.6589
 IR Inten    --     39.3662                 1.1794                65.4633

                     49                     50                     51
                      A                      A                      A
 Frequencies --   1493.6191              1499.8567              1510.6813
 Red. masses --      1.0581                 1.0418                 1.0843
 Frc consts  --      1.3908                 1.3808                 1.4579
 IR Inten    --      1.3191                 5.7838                 1.7823

                     52                     53                     54
                      A                      A                      A
 Frequencies --   1526.1974              1635.6825              1789.9739
 Red. masses --      1.0865                 1.1073                 4.8168
 Frc consts  --      1.4911                 1.7455                 9.0929
 IR Inten    --      2.3925                22.0933                 6.4007

                     55                     56                     57
                      A                      A                      A
 Frequencies --   2890.6509              2919.0723              2998.3712
 Red. masses --      1.0806                 1.0695                 1.0598
 Frc consts  --      5.3198                 5.3691                 5.6138
 IR Inten    --     56.7762                95.9632                16.5349

                     58                     59                     60
                      A                      A                      A
 Frequencies --   3012.9489              3029.3098              3031.1791
 Red. masses --      1.0606                 1.0364                 1.0902
 Frc consts  --      5.6727                 5.6037                 5.9016
 IR Inten    --     35.0579                32.8761                25.9045

                     61                     62                     63
                      A                      A                      A
 Frequencies --   3033.5681              3054.7011              3096.2789
 Red. masses --      1.0956                 1.1034                 1.1021
 Frc consts  --      5.9403                 6.0661                 6.2251
 IR Inten    --      6.5934                43.1586                50.6002

                     64                     65                     66
                      A                      A                      A
 Frequencies --   3101.0312              3299.0234              3364.2543
 Red. masses --      1.1012                 1.0821                 1.1629
 Frc consts  --      6.2391                 6.9387                 7.7547
 IR Inten    --     37.4060                10.8014                 1.2231

                     67                     68                     69
                      A                      A                      A
 Frequencies --   3481.6699              3517.8488              3578.6319
 Red. masses --      1.0496                 1.0730                 1.0913
 Frc consts  --      7.4961                 7.8235                 8.2342
 IR Inten    --      0.9214                 1.2142                 0.4164

 - Thermochemistry -
 -------------------
 Temperature   298.150 Kelvin.  Pressure   1.00000 Atm.
 Atom     1 has atomic number  6 and mass  12.00000

 Molecular mass:   141.12660 amu.
 Principal axes and moments of inertia in atomic units:
                           1         2         3
     Eigenvalues --   442.754743920.020864090.56797
           X            0.99995  -0.00987  -0.00129
           Y            0.00990   0.99943   0.03240
           Z            0.00097  -0.03241   0.99947
 This molecule is an asymmetric top.
 Rotational symmetry number  1.
 Warning -- assumption of classical behavior for rotation
           may cause significant error
 Rotational temperatures (Kelvin)      0.19563     0.02210     0.02117
 Rotational constants (GHZ):           4.07616     0.46039     0.44120
 Zero-point vibrational energy     575225.3 (Joules/Mol)
                                  137.48216 (Kcal/Mol)
 Warning -- explicit consideration of  17 degrees of freedom as
           vibrations may cause significant error
 Vibrational temperatures:     43.17    57.69   115.08   120.82   152.49
          (Kelvin)            227.36   294.20   357.70   388.26   397.12
                              470.45   498.11   652.73   663.30   753.20
                              799.88   874.17   935.01  1055.14  1078.55
                             1147.39  1223.65  1240.60  1252.89  1307.97
                             1373.74  1389.01  1451.63  1472.35  1512.98
                             1557.23  1573.52  1598.24  1630.83  1698.32
                             1713.33  1760.29  1796.72  1839.61  1861.49
                             1912.60  1943.27  1994.07  2011.01  2032.66
                             2055.39  2130.01  2136.79  2148.98  2157.96
                             2173.53  2195.86  2353.38  2575.37  4159.00
                             4199.89  4313.99  4334.96  4358.50  4361.19
                             4364.63  4395.03  4454.85  4461.69  4746.56
                             4840.41  5009.35  5061.40  5148.85

 Zero-point correction=                           0.219092 (Hartree/Particle)
 Thermal correction to Energy=                    0.231421
 Thermal correction to Enthalpy=                  0.232365
 Thermal correction to Gibbs Free Energy=         0.179534
 Sum of electronic and zero-point Energies=           -439.696891
 Sum of electronic and thermal Energies=              -439.684562
 Sum of electronic and thermal Enthalpies=            -439.683618
 Sum of electronic and thermal Free Energies=         -439.736449

                     E (Thermal)             CV                S
                      KCal/Mol        Cal/Mol-Kelvin    Cal/Mol-Kelvin
 Total                  145.219             44.506            111.192
 Electronic               0.000              0.000              0.000
 Translational            0.889              2.981             40.745
 Rotational               0.889              2.981             30.341
 Vibrational            143.441             38.544             40.106
 Vibration     1          0.594              1.984              5.829
 Vibration     2          0.594              1.981              5.254
 Vibration     3          0.600              1.963              3.891
 Vibration     4          0.601              1.960              3.796
 Vibration     5          0.605              1.944              3.341
 Vibration     6          0.621              1.894              2.573
 Vibration     7          0.640              1.834              2.092
 Vibration     8          0.662              1.765              1.740
 Vibration     9          0.674              1.729              1.597
 Vibration    10          0.678              1.718              1.558
 Vibration    11          0.711              1.622              1.275
 Vibration    12          0.724              1.583              1.183
 Vibration    13          0.812              1.353              0.785
 Vibration    14          0.819              1.337              0.763
 Vibration    15          0.878              1.198              0.602
 Vibration    16          0.911              1.127              0.532
 Vibration    17          0.966              1.016              0.437

                           ! Non-Optimized Parameters !
 Normal termination of Gaussian 16 at Mon May 31 23:21:34 2021.
