 Gaussian 16, Revision A.03,
 Gaussian 16:  ES64L-G16RevA.03 25-Dec-2016

 -----------------------------
 # opt freq b3lyp/6-31g(2df,p)
 -----------------------------

 -------------------
 Title Card Required
 -------------------
 Symbolic Z-matrix:
 Charge =  0 Multiplicity = 1

 SCF Done:  E(RB3LYP) =  -369.868337534     A.U. after   13 cycles
 SCF Done:  E(RB3LYP) =  -369.873389902     A.U. after   11 cycles
 SCF Done:  E(RB3LYP) =  -369.873885013     A.U. after    9 cycles
 SCF Done:  E(RB3LYP) =  -369.873902125     A.U. after    7 cycles
 SCF Done:  E(RB3LYP) =  -369.873903487     A.U. after    6 cycles
 SCF Done:  E(RB3LYP) =  -369.873903560     A.U. after    6 cycles
 Optimization completed.
    -- Stationary point found.
 Normal termination of Gaussian 16 at Tue Jun  1 18:00:56 2021.

 ----------------------------------------------------------------------
 #N Geom=AllCheck Guess=TCheck SCRF=Check GenChk RB3LYP/6-31G(2df,p) Fr
 eq
 ----------------------------------------------------------------------

 Structure from the checkpoint file:  "CCCCCpdNpCCC.chk"
 -------------------
 Title Card Required
 -------------------
 Charge =  0 Multiplicity = 1

                         Standard orientation:
 ---------------------------------------------------------------------
 Center     Atomic      Atomic             Coordinates (Angstroms)
 Number     Number       Type             X           Y           Z
 ---------------------------------------------------------------------
      1          6           0        4.548220    0.070003   -0.000005
      2          6           0        3.221016   -0.692849   -0.000001
      3          6           0        1.997197    0.231136    0.000001
      4          6           0        0.673382   -0.534259    0.000005
      5          6           0       -0.594287    0.309131    0.000008
      6          7           0       -0.649909    1.580549    0.000001
      7          6           0       -1.882200   -0.491293    0.000004
      8          6           0       -3.169151    0.334283   -0.000003
      9          6           0       -4.425556   -0.540441   -0.000005
     10          1           0        5.401753   -0.614869   -0.000007
     11          1           0        4.636159    0.711795    0.883641
     12          1           0        4.636154    0.711795   -0.883651
     13          1           0        3.176184   -1.352262    0.876773
     14          1           0        3.176180   -1.352262   -0.876776
     15          1           0        2.043670    0.888280   -0.878891
     16          1           0        2.043675    0.888281    0.878892
     17          1           0        0.632642   -1.204804    0.870586
     18          1           0        0.632638   -1.204805   -0.870576
     19          1           0        0.285876    1.991391   -0.000003
     20          1           0       -1.865356   -1.164574    0.870552
     21          1           0       -1.865349   -1.164578   -0.870540
     22          1           0       -3.168643    0.997252   -0.871247
     23          1           0       -3.168649    0.997256    0.871238
     24          1           0       -4.462991   -1.188483   -0.883451
     25          1           0       -5.333308    0.070955   -0.000010
     26          1           0       -4.462997   -1.188479    0.883444
 ---------------------------------------------------------------------

 SCF Done:  E(RB3LYP) =  -369.873903560     A.U. after    1 cycles

 The electronic state is 1-A.
 Alpha  occ. eigenvalues --  -14.29863 -10.22345 -10.18934 -10.18631 -10.18533
 Alpha  occ. eigenvalues --  -10.17956 -10.17620 -10.16858 -10.16665  -0.89621
 Alpha  occ. eigenvalues --   -0.79962  -0.77675  -0.73780  -0.69665  -0.64499
 Alpha  occ. eigenvalues --   -0.59301  -0.57666  -0.53194  -0.48057  -0.46487
 Alpha  occ. eigenvalues --   -0.45679  -0.43804  -0.42447  -0.41581  -0.39039
 Alpha  occ. eigenvalues --   -0.38701  -0.37722  -0.35774  -0.35574  -0.33648
 Alpha  occ. eigenvalues --   -0.33074  -0.33067  -0.31940  -0.31859  -0.28968
 Alpha  occ. eigenvalues --   -0.24671
 Alpha virt. eigenvalues --    0.01634   0.08011   0.09546   0.11085   0.11662
 Alpha virt. eigenvalues --    0.12382   0.14149   0.14867   0.15261   0.16695
 Alpha virt. eigenvalues --    0.17697   0.17788   0.18746   0.18872   0.19215

 Mulliken charges:
               1
     1  C   -0.382122
     2  C   -0.171593
     3  C   -0.186226
     4  C   -0.254592
     5  C    0.286004
     6  N   -0.458900
     7  C   -0.232680
     8  C   -0.155193
     9  C   -0.385132
    10  H    0.113400
    11  H    0.115500
    12  H    0.115500
    13  H    0.097074
    14  H    0.097074
    15  H    0.103412
    16  H    0.103412
    17  H    0.112305
    18  H    0.112305
    19  H    0.212378
    20  H    0.104636
    21  H    0.104636
    22  H    0.110093
    23  H    0.110093
    24  H    0.108631
    25  H    0.111355
    26  H    0.108631
 Sum of Mulliken charges =  -0.00000

 Dipole moment (field-independent basis, Debye):
    X=              1.5212    Y=             -1.6778    Z=             -0.0000  Tot=              2.2647
 Quadrupole moment (field-independent basis, Debye-Ang):
   XX=            -58.9950   YY=            -61.4171   ZZ=            -57.8697
   XY=              2.7677   XZ=             -0.0000   YZ=             -0.0000

  Exact polarizability: 119.407   1.827  91.525  -0.000  -0.000  74.964
 Approx polarizability: 128.569   0.592 146.183  -0.000  -0.000 117.614

                      1                      2                      3
                      A                      A                      A
 Frequencies --     37.8144                50.5401                88.5204
 Red. masses --      2.4751                 1.6484                 3.3414
 Frc consts  --      0.0021                 0.0025                 0.0154
 IR Inten    --      0.1719                 0.0277                 0.0269

                      4                      5                      6
                      A                      A                      A
 Frequencies --     96.7386               106.0323               130.1306
 Red. masses --      2.1926                 2.2449                 1.9846
 Frc consts  --      0.0121                 0.0149                 0.0198
 IR Inten    --      0.4069                 0.7319                 0.0497

                      7                      8                      9
                      A                      A                      A
 Frequencies --    189.0043               245.1627               248.0977
 Red. masses --      3.1591                 1.0832                 1.1214
 Frc consts  --      0.0665                 0.0384                 0.0407
 IR Inten    --      2.1262                 0.0123                 0.0285

                     10                     11                     12
                      A                      A                      A
 Frequencies --    279.0942               329.4086               361.8510
 Red. masses --      3.9065                 3.1423                 3.4680
 Frc consts  --      0.1793                 0.2009                 0.2675
 IR Inten    --      0.2031                 2.4498                 2.7373

                     13                     14                     15
                      A                      A                      A
 Frequencies --    465.6191               466.2998               644.6855
 Red. masses --      2.9317                 2.0266                 3.5818
 Frc consts  --      0.3745                 0.2596                 0.8771
 IR Inten    --      0.4304                 0.9655                10.9685

                     16                     17                     18
                      A                      A                      A
 Frequencies --    700.3171               743.5206               772.1572
 Red. masses --      1.1388                 1.1053                 1.1595
 Frc consts  --      0.3291                 0.3600                 0.4073
 IR Inten    --      4.6197                 7.6641                 1.4189

                     19                     20                     21
                      A                      A                      A
 Frequencies --    844.0741               867.8054               904.1111
 Red. masses --      1.2401                 3.1585                 2.5766
 Frc consts  --      0.5205                 1.4014                 1.2409
 IR Inten    --      5.2012                 0.1252                 5.3777

                     22                     23                     24
                      A                      A                      A
 Frequencies --    913.4393               915.5488               972.7613
 Red. masses --      1.1935                 1.7576                 1.1830
 Frc consts  --      0.5867                 0.8680                 0.6596
 IR Inten    --      6.9336                 1.6790                16.9284

                     25                     26                     27
                      A                      A                      A
 Frequencies --   1002.2523              1047.4288              1052.1052
 Red. masses --      2.5942                 2.3204                 2.4957
 Frc consts  --      1.5354                 1.4999                 1.6276
 IR Inten    --     11.5814                 6.5220                 0.5324

                     28                     29                     30
                      A                      A                      A
 Frequencies --   1075.9273              1103.4721              1120.4845
 Red. masses --      2.1138                 1.2579                 2.0528
 Frc consts  --      1.4417                 0.9024                 1.5185
 IR Inten    --      3.5955                 6.4509                10.5646

                     31                     32                     33
                      A                      A                      A
 Frequencies --   1135.2618              1153.3078              1239.1297
 Red. masses --      2.4477                 1.7977                 1.4408
 Frc consts  --      1.8586                 1.4088                 1.3034
 IR Inten    --      0.1816                 0.0007                 0.0865

                     34                     35                     36
                      A                      A                      A
 Frequencies --   1259.9726              1260.9194              1289.5343
 Red. masses --      1.3135                 1.2738                 1.3434
 Frc consts  --      1.2286                 1.1932                 1.3162
 IR Inten    --      0.3057                51.1326                 7.0358

                     37                     38                     39
                      A                      A                      A
 Frequencies --   1312.6588              1327.8644              1333.3405
 Red. masses --      1.1489                 1.1126                 1.0574
 Frc consts  --      1.1663                 1.1559                 1.1075
 IR Inten    --      0.1858                 0.0658                 0.4867

                     40                     41                     42
                      A                      A                      A
 Frequencies --   1344.0282              1378.6663              1400.1930
 Red. masses --      1.4274                 1.5236                 1.6082
 Frc consts  --      1.5192                 1.7062                 1.8577
 IR Inten    --     15.0273                15.3350                 4.9872

                     43                     44                     45
                      A                      A                      A
 Frequencies --   1411.6249              1413.6989              1423.0830
 Red. masses --      1.3227                 1.2458                 1.8449
 Frc consts  --      1.5529                 1.4669                 2.2013
 IR Inten    --      3.3915                 2.6003                42.3490

                     46                     47                     48
                      A                      A                      A
 Frequencies --   1456.0530              1467.8999              1486.1529
 Red. masses --      1.0807                 1.0978                 1.0608
 Frc consts  --      1.3499                 1.3937                 1.3804
 IR Inten    --      0.4868                 9.1068                 3.9511

                     49                     50                     51
                      A                      A                      A
 Frequencies --   1486.8541              1498.7177              1499.9337
 Red. masses --      1.0602                 1.0698                 1.0400
 Frc consts  --      1.3810                 1.4158                 1.3786
 IR Inten    --      0.3191                 0.0660                 5.1808

                     52                     53                     54
                      A                      A                      A
 Frequencies --   1500.6454              1508.2710              1512.7459
 Red. masses --      1.0407                 1.0749                 1.0873
 Frc consts  --      1.3808                 1.4408                 1.4660
 IR Inten    --      4.8123                 2.6567                 3.1397

                     55                     56                     57
                      A                      A                      A
 Frequencies --   1726.1026              2993.0818              3004.2608
 Red. masses --      8.2859                 1.0593                 1.0590
 Frc consts  --     14.5453                 5.5915                 5.6317
 IR Inten    --     51.9917                10.4045                 5.7776

                     58                     59                     60
                      A                      A                      A
 Frequencies --   3008.2799              3014.7733              3018.5263
 Red. masses --      1.0582                 1.0979                 1.0595
 Frc consts  --      5.6425                 5.8792                 5.6876
 IR Inten    --      5.3844                 6.5301                55.6725

                     61                     62                     63
                      A                      A                      A
 Frequencies --   3024.3217              3026.4118              3030.0509
 Red. masses --      1.0364                 1.0978                 1.0358
 Frc consts  --      5.5850                 5.9243                 5.6032
 IR Inten    --     35.3170                 7.9455                34.7646

                     64                     65                     66
                      A                      A                      A
 Frequencies --   3037.7507              3052.9793              3060.5978
 Red. masses --      1.1012                 1.0607                 1.1045
 Frc consts  --      5.9871                 5.8251                 6.0960
 IR Inten    --      1.3470                17.0509                45.3201

                     67                     68                     69
                      A                      A                      A
 Frequencies --   3073.3769              3096.6387              3099.5595
 Red. masses --      1.1006                 1.1022                 1.0997
 Frc consts  --      6.1253                 6.2269                 6.2246
 IR Inten    --      1.6420                49.9303                39.3530

                     70                     71                     72
                      A                      A                      A
 Frequencies --   3099.6369              3102.8863              3448.5985
 Red. masses --      1.1034                 1.1010                 1.0734
 Frc consts  --      6.2458                 6.2454                 7.5211
 IR Inten    --     60.0471                35.1280                 3.1518

 - Thermochemistry -
 -------------------
 Temperature   298.150 Kelvin.  Pressure   1.00000 Atm.
 Atom     1 has atomic number  6 and mass  12.00000

 Molecular mass:   127.13610 amu.
 Principal axes and moments of inertia in atomic units:
                           1         2         3
     Eigenvalues --   305.955093726.489773955.03278
           X            0.99998   0.00576   0.00000
           Y           -0.00576   0.99998  -0.00000
           Z           -0.00000   0.00000   1.00000
 This molecule is an asymmetric top.
 Rotational symmetry number  1.
 Rotational temperatures (Kelvin)      0.28309     0.02324     0.02190
 Rotational constants (GHZ):           5.89871     0.48430     0.45632
 Zero-point vibrational energy     626800.1 (Joules/Mol)
                                  149.80882 (Kcal/Mol)
 Warning -- explicit consideration of  14 degrees of freedom as
           vibrations may cause significant error
 Vibrational temperatures:     54.41    72.72   127.36   139.19   152.56
          (Kelvin)            187.23   271.94   352.73   356.96   401.55
                              473.95   520.62   669.92   670.90   927.56
                             1007.60  1069.76  1110.96  1214.43  1248.58
                             1300.81  1314.24  1317.27  1399.59  1442.02
                             1507.02  1513.74  1548.02  1587.65  1612.13
                             1633.39  1659.35  1782.83  1812.82  1814.18
                             1855.35  1888.62  1910.50  1918.38  1933.76
                             1983.59  2014.57  2031.01  2034.00  2047.50
                             2094.94  2111.98  2138.24  2139.25  2156.32
                             2158.07  2159.09  2170.07  2176.50  2483.48
                             4306.38  4322.46  4328.24  4337.59  4342.99
                             4351.32  4354.33  4359.57  4370.65  4392.56
                             4403.52  4421.90  4455.37  4459.57  4459.69
                             4464.36  4961.76

 Zero-point correction=                           0.238736 (Hartree/Particle)
 Thermal correction to Energy=                    0.250551
 Thermal correction to Enthalpy=                  0.251495
 Thermal correction to Gibbs Free Energy=         0.200121
 Sum of electronic and zero-point Energies=           -369.635168
 Sum of electronic and thermal Energies=              -369.623353
 Sum of electronic and thermal Enthalpies=            -369.622409
 Sum of electronic and thermal Free Energies=         -369.673782

                     E (Thermal)             CV                S
                      KCal/Mol        Cal/Mol-Kelvin    Cal/Mol-Kelvin
 Total                  157.223             41.641            108.125
 Electronic               0.000              0.000              0.000
 Translational            0.889              2.981             40.434
 Rotational               0.889              2.981             29.890
 Vibrational            155.445             35.679             37.801
 Vibration     1          0.594              1.982              5.370
 Vibration     2          0.595              1.977              4.796
 Vibration     3          0.601              1.957              3.693
 Vibration     4          0.603              1.952              3.519
 Vibration     5          0.605              1.944              3.340
 Vibration     6          0.612              1.923              2.944
 Vibration     7          0.633              1.855              2.238
 Vibration     8          0.660              1.771              1.765
 Vibration     9          0.662              1.766              1.744
 Vibration    10          0.679              1.712              1.539
 Vibration    11          0.712              1.617              1.263
 Vibration    12          0.736              1.551              1.114
 Vibration    13          0.823              1.326              0.750
 Vibration    14          0.824              1.325              0.748

 Optimization completed.
    -- Stationary point found.
 Normal termination of Gaussian 16 at Tue Jun  1 18:39:49 2021.
