 Gaussian 16, Revision A.03,
 Gaussian 16:  ES64L-G16RevA.03 25-Dec-2016

 -----------------------------
 # opt freq b3lyp/6-31g(2df,p)
 -----------------------------

 -------------------
 Title Card Required
 -------------------
 Symbolic Z-matrix:
 Charge =  0 Multiplicity = 1

 SCF Done:  E(RB3LYP) =  -426.381455420     A.U. after   12 cycles
 SCF Done:  E(RB3LYP) =  -426.386257805     A.U. after   11 cycles
 SCF Done:  E(RB3LYP) =  -426.389929938     A.U. after   10 cycles
 SCF Done:  E(RB3LYP) =  -426.391908329     A.U. after   11 cycles
 SCF Done:  E(RB3LYP) =  -426.393038683     A.U. after   11 cycles
 SCF Done:  E(RB3LYP) =  -426.392347446     A.U. after   11 cycles
 SCF Done:  E(RB3LYP) =  -426.394717776     A.U. after   10 cycles
 SCF Done:  E(RB3LYP) =  -426.395177703     A.U. after   10 cycles
 SCF Done:  E(RB3LYP) =  -426.395552868     A.U. after   10 cycles
 SCF Done:  E(RB3LYP) =  -426.395623852     A.U. after   10 cycles
 SCF Done:  E(RB3LYP) =  -426.395709663     A.U. after    9 cycles
 SCF Done:  E(RB3LYP) =  -426.395717014     A.U. after    8 cycles
 SCF Done:  E(RB3LYP) =  -426.395718536     A.U. after    8 cycles
 SCF Done:  E(RB3LYP) =  -426.395718938     A.U. after    7 cycles
 SCF Done:  E(RB3LYP) =  -426.395719432     A.U. after    7 cycles
 SCF Done:  E(RB3LYP) =  -426.395719750     A.U. after    7 cycles
 SCF Done:  E(RB3LYP) =  -426.395719940     A.U. after    7 cycles
 SCF Done:  E(RB3LYP) =  -426.395719970     A.U. after    6 cycles
 Optimization completed.
    -- Stationary point found.
 Normal termination of Gaussian 16 at Tue Jun  1 15:49:36 2021.

 ----------------------------------------------------------------------
 #N Geom=AllCheck Guess=TCheck SCRF=Check GenChk RB3LYP/6-31G(2df,p) Fr
 eq
 ----------------------------------------------------------------------

 Structure from the checkpoint file:  "CCCCCpCCpNpCpN.chk"
 -------------------
 Title Card Required
 -------------------
 Charge =  0 Multiplicity = 1

                         Standard orientation:
 ---------------------------------------------------------------------
 Center     Atomic      Atomic             Coordinates (Angstroms)
 Number     Number       Type             X           Y           Z
 ---------------------------------------------------------------------
      1          6           0        4.288871   -0.065552    0.215116
      2          6           0        2.992914   -0.789197   -0.159930
      3          6           0        1.735538    0.043855    0.117868
      4          6           0        0.443023   -0.693163   -0.257383
      5          6           0       -0.849126    0.077448    0.071369
      6          6           0       -0.886707    1.455230   -0.644616
      7          6           0       -0.632159    2.654090    0.274746
      8          7           0       -2.059981   -0.695400   -0.279036
      9          6           0       -2.050580   -2.089894    0.146498
     10          7           0       -3.247716   -0.104476    0.256744
     11          1           0        5.167383   -0.683945    0.005976
     12          1           0        4.306697    0.188112    1.281019
     13          1           0        4.398242    0.868603   -0.347170
     14          1           0        2.928841   -1.736620    0.391433
     15          1           0        3.018422   -1.060323   -1.223697
     16          1           0        1.811668    0.991722   -0.428913
     17          1           0        1.707970    0.308175    1.184396
     18          1           0        0.444514   -1.650452    0.272834
     19          1           0        0.447416   -0.927781   -1.330669
     20          1           0       -0.855122    0.254266    1.169318
     21          1           0       -1.858318    1.578023   -1.131179
     22          1           0       -0.157066    1.454954   -1.462452
     23          1           0       -1.392295    2.712395    1.062022
     24          1           0       -0.659259    3.594502   -0.285110
     25          1           0        0.342970    2.588670    0.767392
     26          1           0       -1.306253   -2.659891   -0.413061
     27          1           0       -3.036717   -2.505767   -0.062483
     28          1           0       -1.847723   -2.218310    1.227406
     29          1           0       -3.486694    0.702591   -0.309623
     30          1           0       -3.071446    0.243310    1.206594
 ---------------------------------------------------------------------

 SCF Done:  E(RB3LYP) =  -426.395719970     A.U. after    1 cycles

 The electronic state is 1-A.
 Alpha  occ. eigenvalues --  -14.33615 -14.32742 -10.20635 -10.18810 -10.17871
 Alpha  occ. eigenvalues --  -10.17806 -10.17708 -10.17649 -10.17432 -10.17205
 Alpha  occ. eigenvalues --   -0.96038  -0.81473  -0.78182  -0.76552  -0.72538
 Alpha  occ. eigenvalues --   -0.68245  -0.62958  -0.61030  -0.57994  -0.55991
 Alpha  occ. eigenvalues --   -0.49337  -0.47962  -0.47540  -0.45452  -0.43065
 Alpha  occ. eigenvalues --   -0.42243  -0.41675  -0.40749  -0.39440  -0.38798
 Alpha  occ. eigenvalues --   -0.38044  -0.36205  -0.35205  -0.33800  -0.33610
 Alpha  occ. eigenvalues --   -0.33275  -0.32792  -0.31946  -0.30688  -0.24422
 Alpha  occ. eigenvalues --   -0.21386
 Alpha virt. eigenvalues --    0.07472   0.09007   0.10361   0.10922   0.11509
 Alpha virt. eigenvalues --    0.11775   0.14390   0.14879   0.15112   0.15407
 Alpha virt. eigenvalues --    0.16567   0.16925   0.17580   0.17855   0.18410

 Mulliken charges:
               1
     1  C   -0.381601
     2  C   -0.164702
     3  C   -0.170872
     4  C   -0.222086
     5  C    0.094743
     6  C   -0.184899
     7  C   -0.381637
     8  N   -0.087321
     9  C   -0.291292
    10  N   -0.470727
    11  H    0.111426
    12  H    0.112995
    13  H    0.113301
    14  H    0.094497
    15  H    0.095371
    16  H    0.098791
    17  H    0.092538
    18  H    0.098550
    19  H    0.101768
    20  H    0.038345
    21  H    0.089875
    22  H    0.098341
    23  H    0.108512
    24  H    0.111747
    25  H    0.120429
    26  H    0.117699
    27  H    0.128885
    28  H    0.081902
    29  H    0.238789
    30  H    0.206633
 Sum of Mulliken charges =  -0.00000

 Dipole moment (field-independent basis, Debye):
    X=              1.0828    Y=              0.8153    Z=              0.5216  Tot=              1.4523
 Quadrupole moment (field-independent basis, Debye-Ang):
   XX=            -71.0608   YY=            -64.9703   ZZ=            -65.9823
   XY=             -4.1781   XZ=             -1.5264   YZ=             -0.6778

  Exact polarizability: 120.843  -0.610 107.031  -1.363   0.169  87.857
 Approx polarizability: 146.446  -2.178 144.310  -1.462   0.038 141.719

                      1                      2                      3
                      A                      A                      A
 Frequencies --     30.3859                62.9497                79.8505
 Red. masses --      2.2744                 2.9153                 1.8081
 Frc consts  --      0.0012                 0.0068                 0.0068
 IR Inten    --      0.1715                 0.2195                 0.4290

                      4                      5                      6
                      A                      A                      A
 Frequencies --     91.6193               100.4044               164.4039
 Red. masses --      2.6387                 2.6988                 1.9561
 Frc consts  --      0.0130                 0.0160                 0.0312
 IR Inten    --      0.6765                 0.1158                 0.2230

                      7                      8                      9
                      A                      A                      A
 Frequencies --    218.2105               233.9141               244.8869
 Red. masses --      1.1692                 1.9758                 1.2234
 Frc consts  --      0.0328                 0.0637                 0.0432
 IR Inten    --      0.1000                 1.6913                 0.4293

                     10                     11                     12
                      A                      A                      A
 Frequencies --    261.0119               271.6876               299.1955
 Red. masses --      1.7895                 1.2795                 1.9594
 Frc consts  --      0.0718                 0.0556                 0.1033
 IR Inten    --      0.2639                20.8881                 7.3157

                     13                     14                     15
                      A                      A                      A
 Frequencies --    315.6226               372.2216               384.7604
 Red. masses --      1.7174                 2.4134                 2.6341
 Frc consts  --      0.1008                 0.1970                 0.2298
 IR Inten    --      2.7848                 3.1987                 0.7017

                     16                     17                     18
                      A                      A                      A
 Frequencies --    427.6781               456.3528               534.7745
 Red. masses --      2.6431                 2.6689                 2.5059
 Frc consts  --      0.2848                 0.3275                 0.4222
 IR Inten    --      0.4548                 0.6041                11.1317

                     19                     20                     21
                      A                      A                      A
 Frequencies --    555.2042               741.4479               758.5046
 Red. masses --      2.7770                 1.0814                 1.2148
 Frc consts  --      0.5043                 0.3503                 0.4118
 IR Inten    --      4.5816                 2.1220                 2.9324

                     22                     23                     24
                      A                      A                      A
 Frequencies --    788.8775               839.0576               871.5567
 Red. masses --      1.3621                 2.3248                 2.1542
 Frc consts  --      0.4994                 0.9643                 0.9641
 IR Inten    --      1.7732                19.0480                 8.4081

                     25                     26                     27
                      A                      A                      A
 Frequencies --    906.3326               936.9258               951.5610
 Red. masses --      1.9233                 1.7983                 1.2563
 Frc consts  --      0.9309                 0.9301                 0.6702
 IR Inten    --      3.5813                76.6174                 2.3777

                     28                     29                     30
                      A                      A                      A
 Frequencies --    997.6575              1026.4343              1038.3936
 Red. masses --      2.6342                 2.6736                 1.8602
 Frc consts  --      1.5448                 1.6597                 1.1818
 IR Inten    --      8.2688                25.2164                32.5415

                     31                     32                     33
                      A                      A                      A
 Frequencies --   1056.6757              1068.2145              1076.9724
 Red. masses --      1.5401                 2.3582                 1.9719
 Frc consts  --      1.0132                 1.5854                 1.3476
 IR Inten    --      1.5021                 0.1773                 9.2100

                     34                     35                     36
                      A                      A                      A
 Frequencies --   1119.5570              1133.1071              1149.0805
 Red. masses --      1.5782                 2.2877                 1.4386
 Frc consts  --      1.1655                 1.7306                 1.1192
 IR Inten    --      0.2847                10.7713                 4.3796

                     37                     38                     39
                      A                      A                      A
 Frequencies --   1182.2071              1215.0552              1233.4279
 Red. masses --      1.9663                 2.5225                 1.9524
 Frc consts  --      1.6191                 2.1942                 1.7500
 IR Inten    --      1.1192                 3.9492                 3.1831

                     40                     41                     42
                      A                      A                      A
 Frequencies --   1249.2912              1282.2402              1290.7261
 Red. masses --      1.6992                 1.3126                 1.2274
 Frc consts  --      1.5625                 1.2715                 1.2048
 IR Inten    --      5.9242                 4.6221                 1.6118

                     43                     44                     45
                      A                      A                      A
 Frequencies --   1310.3774              1318.7887              1331.3589
 Red. masses --      1.2019                 1.2819                 1.1293
 Frc consts  --      1.2160                 1.3136                 1.1794
 IR Inten    --      2.6469                 8.0202                 2.9929

                     46                     47                     48
                      A                      A                      A
 Frequencies --   1338.1400              1355.6152              1381.0521
 Red. masses --      1.2074                 1.2772                 1.4686
 Frc consts  --      1.2738                 1.3828                 1.6503
 IR Inten    --      5.9267                 3.8233                 4.7363

                     49                     50                     51
                      A                      A                      A
 Frequencies --   1390.0840              1404.3697              1411.0633
 Red. masses --      1.4706                 1.4630                 1.2289
 Frc consts  --      1.6743                 1.7001                 1.4417
 IR Inten    --     11.2213                 9.4630                 3.4412

                     52                     53                     54
                      A                      A                      A
 Frequencies --   1414.0999              1448.1618              1481.7393
 Red. masses --      1.2601                 1.1764                 1.0758
 Frc consts  --      1.4846                 1.4536                 1.3916
 IR Inten    --      4.6170                 1.0125                 3.5073

                     55                     56                     57
                      A                      A                      A
 Frequencies --   1486.7108              1493.9308              1496.2823
 Red. masses --      1.0671                 1.0452                 1.0591
 Frc consts  --      1.3896                 1.3744                 1.3971
 IR Inten    --      1.6799                 2.5558                 9.5456

                     58                     59                     60
                      A                      A                      A
 Frequencies --   1499.8231              1500.1013              1501.4290
 Red. masses --      1.0407                 1.0454                 1.0467
 Frc consts  --      1.3792                 1.3860                 1.3902
 IR Inten    --      6.0200                 1.9469                 5.1425

                     61                     62                     63
                      A                      A                      A
 Frequencies --   1504.0741              1510.7017              1515.0292
 Red. masses --      1.0643                 1.0795                 1.0900
 Frc consts  --      1.4185                 1.4515                 1.4741
 IR Inten    --      3.6313                 5.7617                 3.6431

                     64                     65                     66
                      A                      A                      A
 Frequencies --   1667.2255              2850.4145              2922.0554
 Red. masses --      1.0837                 1.0798                 1.0619
 Frc consts  --      1.7747                 5.1691                 5.3419
 IR Inten    --     12.3989                49.7742                79.1808

                     67                     68                     69
                      A                      A                      A
 Frequencies --   3005.7840              3013.0723              3022.3078
 Red. masses --      1.0615                 1.0609                 1.0629
 Frc consts  --      5.6505                 5.6745                 5.7204
 IR Inten    --      2.5899                 8.1229                49.6499

                     70                     71                     72
                      A                      A                      A
 Frequencies --   3028.2651              3030.8190              3035.8506
 Red. masses --      1.0369                 1.0370                 1.0930
 Frc consts  --      5.6024                 5.6124                 5.9353
 IR Inten    --     35.9099                27.9036                11.9972

                     73                     74                     75
                      A                      A                      A
 Frequencies --   3042.0013              3055.5547              3074.6842
 Red. masses --      1.0679                 1.0991                 1.0946
 Frc consts  --      5.8226                 6.0458                 6.0967
 IR Inten    --     14.9241                11.8202                14.6266

                     76                     77                     78
                      A                      A                      A
 Frequencies --   3080.5799              3093.9943              3095.2351
 Red. masses --      1.0973                 1.0860                 1.0881
 Frc consts  --      6.1356                 6.1253                 6.1417
 IR Inten    --     30.0012                41.3525                38.5865

                     79                     80                     81
                      A                      A                      A
 Frequencies --   3096.9003              3100.5138              3107.5245
 Red. masses --      1.1012                 1.1009                 1.1006
 Frc consts  --      6.2224                 6.2352                 6.2620
 IR Inten    --     66.0135                41.6658                40.8987

                     82                     83                     84
                      A                      A                      A
 Frequencies --   3143.2900              3341.6590              3545.8725
 Red. masses --      1.1021                 1.0585                 1.0806
 Frc consts  --      6.4155                 6.9641                 8.0051
 IR Inten    --     19.4641                23.5463                 0.2249

 - Thermochemistry -
 -------------------
 Temperature   298.150 Kelvin.  Pressure   1.00000 Atm.
 Atom     1 has atomic number  6 and mass  12.00000

 Molecular mass:   144.16265 amu.
 Principal axes and moments of inertia in atomic units:
                           1         2         3
     Eigenvalues --   965.817522879.121853653.39501
           X            0.99999  -0.00477  -0.00203
           Y            0.00477   0.99999   0.00064
           Z            0.00203  -0.00065   1.00000
 This molecule is an asymmetric top.
 Rotational symmetry number  1.
 Warning -- assumption of classical behavior for rotation
           may cause significant error
 Rotational temperatures (Kelvin)      0.08968     0.03008     0.02371
 Rotational constants (GHZ):           1.86862     0.62684     0.49399
 Zero-point vibrational energy     732503.2 (Joules/Mol)
                                  175.07247 (Kcal/Mol)
 Warning -- explicit consideration of  19 degrees of freedom as
           vibrations may cause significant error
 Vibrational temperatures:     43.72    90.57   114.89   131.82   144.46
          (Kelvin)            236.54   313.96   336.55   352.34   375.54
                              390.90   430.48   454.11   535.54   553.58
                              615.33   656.59   769.42   798.81  1066.78
                             1091.32  1135.02  1207.22  1253.98  1304.01
                             1348.03  1369.08  1435.41  1476.81  1494.02
                             1520.32  1536.92  1549.52  1610.79  1630.29
                             1653.27  1700.93  1748.19  1774.63  1797.45
                             1844.86  1857.07  1885.34  1897.44  1915.53
                             1925.28  1950.43  1987.03  2000.02  2020.57
                             2030.21  2034.57  2083.58  2131.89  2139.05
                             2149.43  2152.82  2157.91  2158.31  2160.22
                             2164.03  2173.56  2179.79  2398.77  4101.11
                             4204.19  4324.65  4335.14  4348.43  4357.00
                             4360.67  4367.91  4376.76  4396.26  4423.78
                             4432.27  4451.57  4453.35  4455.75  4460.95
                             4471.03  4522.49  4807.90  5101.72

 Zero-point correction=                           0.278996 (Hartree/Particle)
 Thermal correction to Energy=                    0.292291
 Thermal correction to Enthalpy=                  0.293235
 Thermal correction to Gibbs Free Energy=         0.238982
 Sum of electronic and zero-point Energies=           -426.116724
 Sum of electronic and thermal Energies=              -426.103429
 Sum of electronic and thermal Enthalpies=            -426.102485
 Sum of electronic and thermal Free Energies=         -426.156738

                     E (Thermal)             CV                S
                      KCal/Mol        Cal/Mol-Kelvin    Cal/Mol-Kelvin
 Total                  183.415             48.486            114.186
 Electronic               0.000              0.000              0.000
 Translational            0.889              2.981             40.808
 Rotational               0.889              2.981             30.697
 Vibrational            181.638             42.524             42.681
 Vibration     1          0.594              1.984              5.804
 Vibration     2          0.597              1.972              4.363
 Vibration     3          0.600              1.963              3.895
 Vibration     4          0.602              1.955              3.625
 Vibration     5          0.604              1.949              3.446
 Vibration     6          0.623              1.886              2.499
 Vibration     7          0.646              1.813              1.974
 Vibration     8          0.654              1.789              1.849
 Vibration     9          0.660              1.771              1.767
 Vibration    10          0.669              1.744              1.655
 Vibration    11          0.675              1.725              1.585
 Vibration    12          0.692              1.675              1.421
 Vibration    13          0.703              1.644              1.333
 Vibration    14          0.744              1.529              1.071
 Vibration    15          0.754              1.503              1.020
 Vibration    16          0.789              1.410              0.866
 Vibration    17          0.815              1.347              0.777
 Vibration    18          0.890              1.173              0.577
 Vibration    19          0.911              1.128              0.533

                           ! Non-Optimized Parameters !
 Normal termination of Gaussian 16 at Tue Jun  1 16:51:53 2021.
