 Gaussian 16, Revision A.03,
 Gaussian 16:  ES64L-G16RevA.03 25-Dec-2016

 -----------------------------
 # opt freq b3lyp/6-31g(2df,p)
 -----------------------------

 -------------------
 Title Card Required
 -------------------
 Symbolic Z-matrix:
 Charge =  0 Multiplicity = 1

 SCF Done:  E(RB3LYP) =  -403.105547011     A.U. after   12 cycles
 SCF Done:  E(RB3LYP) =  -403.110537703     A.U. after   10 cycles
 SCF Done:  E(RB3LYP) =  -403.111522225     A.U. after   10 cycles
 SCF Done:  E(RB3LYP) =  -403.111723470     A.U. after   10 cycles
 SCF Done:  E(RB3LYP) =  -403.111908937     A.U. after   10 cycles
 SCF Done:  E(RB3LYP) =  -403.111957284     A.U. after   10 cycles
 SCF Done:  E(RB3LYP) =  -403.112044192     A.U. after   10 cycles
 SCF Done:  E(RB3LYP) =  -403.112073828     A.U. after   10 cycles
 SCF Done:  E(RB3LYP) =  -403.112079841     A.U. after   10 cycles
 SCF Done:  E(RB3LYP) =  -403.112083117     A.U. after    9 cycles
 SCF Done:  E(RB3LYP) =  -403.113835109     A.U. after   12 cycles
 SCF Done:  E(RB3LYP) =  -403.116320831     A.U. after   11 cycles
 SCF Done:  E(RB3LYP) =  -403.116779802     A.U. after   11 cycles
 SCF Done:  E(RB3LYP) =  -403.115142786     A.U. after   11 cycles
 SCF Done:  E(RB3LYP) =  -403.117000575     A.U. after   10 cycles
 SCF Done:  E(RB3LYP) =  -403.117013154     A.U. after    8 cycles
 SCF Done:  E(RB3LYP) =  -403.117015051     A.U. after    7 cycles
 SCF Done:  E(RB3LYP) =  -403.117015199     A.U. after    6 cycles
 SCF Done:  E(RB3LYP) =  -403.117015259     A.U. after    6 cycles
 Optimization completed.
    -- Stationary point found.
 Normal termination of Gaussian 16 at Mon May 31 21:27:40 2021.

 ----------------------------------------------------------------------
 #N Geom=AllCheck Guess=TCheck SCRF=Check GenChk RB3LYP/6-31G(2df,p) Fr
 eq
 ----------------------------------------------------------------------

 Structure from the checkpoint file:  "CCCCNCNpCpN.chk"
 -------------------
 Title Card Required
 -------------------
 Charge =  0 Multiplicity = 1

                         Standard orientation:
 ---------------------------------------------------------------------
 Center     Atomic      Atomic             Coordinates (Angstroms)
 Number     Number       Type             X           Y           Z
 ---------------------------------------------------------------------
      1          6           0       -4.484014    0.381299   -0.262654
      2          6           0       -3.138818   -0.270299   -0.594171
      3          6           0       -2.023237    0.128063    0.377398
      4          6           0       -0.681127   -0.523747    0.050241
      5          7           0        0.356517   -0.105140    0.989685
      6          6           0        1.673831   -0.629788    0.699264
      7          7           0        2.294010    0.106384   -0.402133
      8          6           0        2.602712    1.483776   -0.051128
      9          7           0        3.481740   -0.524227   -0.878228
     10          1           0       -5.260262    0.080220   -0.973086
     11          1           0       -4.411832    1.474171   -0.291248
     12          1           0       -4.823790    0.100103    0.740513
     13          1           0       -2.841723    0.001641   -1.615544
     14          1           0       -3.250830   -1.362658   -0.592518
     15          1           0       -2.320719   -0.144979    1.400935
     16          1           0       -1.895310    1.217537    0.377182
     17          1           0       -0.352508   -0.223114   -0.950354
     18          1           0       -0.799684   -1.624722    0.023771
     19          1           0        0.091664   -0.342065    1.938850
     20          1           0        1.660459   -1.690997    0.388980
     21          1           0        2.282155   -0.564106    1.624039
     22          1           0        1.692838    1.962481    0.314342
     23          1           0        2.971075    2.004972   -0.936539
     24          1           0        3.374342    1.554074    0.740178
     25          1           0        3.202162   -1.362565   -1.380457
     26          1           0        4.060009   -0.834944   -0.088009
 ---------------------------------------------------------------------

 SCF Done:  E(RB3LYP) =  -403.117015259     A.U. after    1 cycles

 The electronic state is 1-A.
 Alpha  occ. eigenvalues --  -14.33551 -14.32980 -14.31223 -10.22516 -10.19689
 Alpha  occ. eigenvalues --  -10.18308 -10.17777 -10.17484 -10.17085  -0.96716
 Alpha  occ. eigenvalues --   -0.89734  -0.79083  -0.77326  -0.71609  -0.67223
 Alpha  occ. eigenvalues --   -0.62172  -0.58204  -0.57754  -0.50524  -0.49127
 Alpha  occ. eigenvalues --   -0.46808  -0.45857  -0.45788  -0.42299  -0.41425
 Alpha  occ. eigenvalues --   -0.40017  -0.39737  -0.37318  -0.36988  -0.36149
 Alpha  occ. eigenvalues --   -0.34456  -0.33029  -0.32279  -0.32119  -0.25252
 Alpha  occ. eigenvalues --   -0.22613  -0.21164
 Alpha virt. eigenvalues --    0.08084   0.08893   0.09624   0.12308   0.12956
 Alpha virt. eigenvalues --    0.13433   0.14093   0.15356   0.16385   0.17013
 Alpha virt. eigenvalues --    0.17302   0.17853   0.18694   0.18966   0.19447

 Mulliken charges:
               1
     1  C   -0.379159
     2  C   -0.161453
     3  C   -0.176408
     4  C   -0.125076
     5  N   -0.288508
     6  C   -0.098194
     7  N   -0.052552
     8  C   -0.286088
     9  N   -0.463151
    10  H    0.110691
    11  H    0.114941
    12  H    0.112076
    13  H    0.098096
    14  H    0.093723
    15  H    0.083019
    16  H    0.104082
    17  H    0.120529
    18  H    0.069782
    19  H    0.214762
    20  H    0.067300
    21  H    0.064925
    22  H    0.130716
    23  H    0.122906
    24  H    0.077826
    25  H    0.237438
    26  H    0.207778
 Sum of Mulliken charges =  -0.00000

 Dipole moment (field-independent basis, Debye):
    X=             -0.5806    Y=             -1.5540    Z=              1.3703  Tot=              2.1517
 Quadrupole moment (field-independent basis, Debye-Ang):
   XX=            -60.2769   YY=            -56.6879   ZZ=            -58.1109
   XY=             -3.4755   XZ=              3.6672   YZ=             -0.2599

  Exact polarizability: 112.337  -1.796  83.809  -0.033   1.078  81.024
 Approx polarizability: 127.713  -1.831 121.639  -0.687   1.840 122.529

                      1                      2                      3
                      A                      A                      A
 Frequencies --     42.4036                63.4893                67.2812
 Red. masses --      2.8840                 1.8388                 3.1647
 Frc consts  --      0.0031                 0.0044                 0.0084
 IR Inten    --      0.8960                 0.4419                 0.6633

                      4                      5                      6
                      A                      A                      A
 Frequencies --    119.4345               141.6127               152.8638
 Red. masses --      2.5996                 1.9874                 2.7806
 Frc consts  --      0.0218                 0.0235                 0.0383
 IR Inten    --      0.5664                 0.7926                 0.9737

                      7                      8                      9
                      A                      A                      A
 Frequencies --    245.7308               248.3573               283.0717
 Red. masses --      1.2193                 1.1181                 2.2251
 Frc consts  --      0.0434                 0.0406                 0.1050
 IR Inten    --      1.1262                 0.0371                 5.5608

                     10                     11                     12
                      A                      A                      A
 Frequencies --    301.5911               316.3778               353.6673
 Red. masses --      1.2222                 2.4262                 3.2124
 Frc consts  --      0.0655                 0.1431                 0.2367
 IR Inten    --     27.3893                 2.8090                 3.2152

                     13                     14                     15
                      A                      A                      A
 Frequencies --    398.4839               434.3237               471.1706
 Red. masses --      2.1629                 2.4376                 2.4779
 Frc consts  --      0.2024                 0.2709                 0.3241
 IR Inten    --      0.7562                 3.1392                 7.7026

                     16                     17                     18
                      A                      A                      A
 Frequencies --    580.0410               726.7191               742.5052
 Red. masses --      3.0684                 1.4658                 1.0713
 Frc consts  --      0.6082                 0.4561                 0.3480
 IR Inten    --     16.8965                74.2557                 4.1033

                     19                     20                     21
                      A                      A                      A
 Frequencies --    808.9821               850.1646               904.5333
 Red. masses --      1.2040                 3.3630                 1.9131
 Frc consts  --      0.4643                 1.4321                 0.9222
 IR Inten    --      1.7563                14.3202                 3.2246

                     22                     23                     24
                      A                      A                      A
 Frequencies --    951.3007               959.8687               972.3751
 Red. masses --      1.2777                 1.8614                 1.9661
 Frc consts  --      0.6812                 1.0104                 1.0953
 IR Inten    --      3.8067                56.9381                11.8329

                     25                     26                     27
                      A                      A                      A
 Frequencies --   1032.3485              1057.5599              1069.2710
 Red. masses --      3.3358                 1.7911                 2.2432
 Frc consts  --      2.0946                 1.1803                 1.5111
 IR Inten    --      2.2638                63.6826                 5.9364

                     28                     29                     30
                      A                      A                      A
 Frequencies --   1087.8486              1137.7421              1157.1844
 Red. masses --      1.6522                 1.8522                 1.7710
 Frc consts  --      1.1520                 1.4126                 1.3973
 IR Inten    --      7.6769                 2.1173                12.5915

                     31                     32                     33
                      A                      A                      A
 Frequencies --   1165.5220              1185.5941              1224.9390
 Red. masses --      2.1073                 1.8482                 2.3082
 Frc consts  --      1.6866                 1.5306                 2.0406
 IR Inten    --     45.3065                42.9715                 9.6205

                     34                     35                     36
                      A                      A                      A
 Frequencies --   1232.3042              1253.5457              1283.8090
 Red. masses --      1.8522                 1.5784                 1.3252
 Frc consts  --      1.6572                 1.4613                 1.2869
 IR Inten    --      4.7015                 9.8099                 0.5531

                     37                     38                     39
                      A                      A                      A
 Frequencies --   1309.3373              1313.3767              1326.2308
 Red. masses --      1.2775                 1.1635                 1.0717
 Frc consts  --      1.2903                 1.1824                 1.1106
 IR Inten    --      1.4058                11.4411                 0.5307

                     40                     41                     42
                      A                      A                      A
 Frequencies --   1359.1408              1380.6046              1407.3708
 Red. masses --      1.4081                 1.4032                 1.4775
 Frc consts  --      1.5326                 1.5758                 1.7242
 IR Inten    --     13.7086                 0.5176                28.0861

                     43                     44                     45
                      A                      A                      A
 Frequencies --   1412.7634              1417.6179              1441.5014
 Red. masses --      1.2452                 1.2839                 1.2538
 Frc consts  --      1.4643                 1.5202                 1.5350
 IR Inten    --     13.8467                 7.1557                27.9156

                     46                     47                     48
                      A                      A                      A
 Frequencies --   1485.9425              1487.8126              1490.7679
 Red. masses --      1.0708                 1.1674                 1.0993
 Frc consts  --      1.3930                 1.5226                 1.4394
 IR Inten    --      0.7209                14.8823                 2.1900

                     49                     50                     51
                      A                      A                      A
 Frequencies --   1494.4936              1499.9862              1500.0741
 Red. masses --      1.0679                 1.0421                 1.0554
 Frc consts  --      1.4052                 1.3815                 1.3992
 IR Inten    --      0.2418                 2.7686                 3.5354

                     52                     53                     54
                      A                      A                      A
 Frequencies --   1508.1739              1510.2905              1523.6460
 Red. masses --      1.1058                 1.1040                 1.0915
 Frc consts  --      1.4819                 1.4836                 1.4929
 IR Inten    --      1.0447                 4.2883                 0.9280

                     55                     56                     57
                      A                      A                      A
 Frequencies --   1665.9494              2893.1050              2909.1166
 Red. masses --      1.0852                 1.0594                 1.0734
 Frc consts  --      1.7745                 5.2244                 5.3524
 IR Inten    --     15.8233                81.4269                71.3075

                     58                     59                     60
                      A                      A                      A
 Frequencies --   2921.7060              2934.8998              2997.8026
 Red. masses --      1.0617                 1.0985                 1.0657
 Frc consts  --      5.3398                 5.5750                 5.6427
 IR Inten    --     87.7599                82.1895                17.6933

                     61                     62                     63
                      A                      A                      A
 Frequencies --   3015.1084              3028.5806              3038.5576
 Red. masses --      1.0606                 1.0363                 1.0939
 Frc consts  --      5.6806                 5.6004                 5.9504
 IR Inten    --     32.6135                32.6870                 8.7637

                     64                     65                     66
                      A                      A                      A
 Frequencies --   3056.5731              3073.8366              3094.6500
 Red. masses --      1.0933                 1.0925                 1.0684
 Frc consts  --      6.0179                 6.0819                 6.0283
 IR Inten    --     19.7706                28.9171                16.5039

                     67                     68                     69
                      A                      A                      A
 Frequencies --   3095.3897              3100.8361              3149.3653
 Red. masses --      1.1014                 1.1010                 1.1042
 Frc consts  --      6.2178                 6.2375                 6.4529
 IR Inten    --     67.9113                38.2842                11.2188

                     70                     71                     72
                      A                      A                      A
 Frequencies --   3332.7751              3524.4562              3538.1659
 Red. masses --      1.0582                 1.0814                 1.0741
 Frc consts  --      6.9252                 7.9141                 7.9225
 IR Inten    --     32.6989                 0.3317                 0.0874

 - Thermochemistry -
 -------------------
 Temperature   298.150 Kelvin.  Pressure   1.00000 Atm.
 Atom     1 has atomic number  6 and mass  12.00000

 Molecular mass:   131.14225 amu.
 Principal axes and moments of inertia in atomic units:
                           1         2         3
     Eigenvalues --   439.701143531.542663563.44671
           X            0.99998  -0.00137   0.00638
           Y            0.00108   0.99900   0.04470
           Z           -0.00644  -0.04469   0.99898
 This molecule is an asymmetric top.
 Rotational symmetry number  1.
 Warning -- assumption of classical behavior for rotation
           may cause significant error
 Rotational temperatures (Kelvin)      0.19698     0.02453     0.02431
 Rotational constants (GHZ):           4.10447     0.51103     0.50646
 Zero-point vibrational energy     629618.7 (Joules/Mol)
                                  150.48247 (Kcal/Mol)
 Warning -- explicit consideration of  16 degrees of freedom as
           vibrations may cause significant error
 Vibrational temperatures:     61.01    91.35    96.80   171.84   203.75
          (Kelvin)            219.94   353.55   357.33   407.28   433.92
                              455.20   508.85   573.33   624.89   677.91
                              834.55  1045.59  1068.30  1163.94  1223.20
                             1301.42  1368.71  1381.04  1399.03  1485.32
                             1521.59  1538.44  1565.17  1636.96  1664.93
                             1676.93  1705.81  1762.41  1773.01  1803.57
                             1847.11  1883.84  1889.66  1908.15  1955.50
                             1986.38  2024.89  2032.65  2039.64  2074.00
                             2137.94  2140.63  2144.88  2150.24  2158.15
                             2158.27  2169.93  2172.97  2192.19  2396.93
                             4162.53  4185.57  4203.68  4222.67  4313.17
                             4338.07  4357.45  4371.81  4397.73  4422.57
                             4452.51  4453.58  4461.41  4531.23  4795.12
                             5070.91  5090.63

 Zero-point correction=                           0.239809 (Hartree/Particle)
 Thermal correction to Energy=                    0.251591
 Thermal correction to Enthalpy=                  0.252536
 Thermal correction to Gibbs Free Energy=         0.201652
 Sum of electronic and zero-point Energies=           -402.877206
 Sum of electronic and thermal Energies=              -402.865424
 Sum of electronic and thermal Enthalpies=            -402.864480
 Sum of electronic and thermal Free Energies=         -402.915364

                     E (Thermal)             CV                S
                      KCal/Mol        Cal/Mol-Kelvin    Cal/Mol-Kelvin
 Total                  157.876             42.161            107.094
 Electronic               0.000              0.000              0.000
 Translational            0.889              2.981             40.526
 Rotational               0.889              2.981             30.093
 Vibrational            156.099             36.199             36.475
 Vibration     1          0.595              1.980              5.144
 Vibration     2          0.597              1.972              4.346
 Vibration     3          0.598              1.970              4.231
 Vibration     4          0.609              1.933              3.110
 Vibration     5          0.615              1.912              2.782
 Vibration     6          0.619              1.899              2.636
 Vibration     7          0.660              1.770              1.761
 Vibration     8          0.662              1.765              1.742
 Vibration     9          0.682              1.705              1.515
 Vibration    10          0.694              1.671              1.408
 Vibration    11          0.703              1.642              1.329
 Vibration    12          0.730              1.568              1.150
 Vibration    13          0.765              1.473              0.968
 Vibration    14          0.795              1.395              0.845
 Vibration    15          0.828              1.314              0.734
 Vibration    16          0.937              1.074              0.485

                           ! Non-Optimized Parameters !
 Normal termination of Gaussian 16 at Mon May 31 22:02:43 2021.
