 Gaussian 16, Revision A.03,
 Gaussian 16:  ES64L-G16RevA.03 25-Dec-2016

 -----------------------------
 # opt freq b3lyp/6-31g(2df,p)
 -----------------------------

 -------------------
 Title Card Required
 -------------------
 Symbolic Z-matrix:
 Charge =  0 Multiplicity = 1

 SCF Done:  E(RB3LYP) =  -428.548064511     A.U. after   13 cycles
 SCF Done:  E(RB3LYP) =  -428.552204207     A.U. after   11 cycles
 SCF Done:  E(RB3LYP) =  -428.552651681     A.U. after   10 cycles
 SCF Done:  E(RB3LYP) =  -428.552679786     A.U. after    9 cycles
 SCF Done:  E(RB3LYP) =  -428.552683010     A.U. after    8 cycles
 SCF Done:  E(RB3LYP) =  -428.552683310     A.U. after    6 cycles
 Optimization completed.
    -- Stationary point found.
 Normal termination of Gaussian 16 at Mon May 31 17:43:08 2021.

 ----------------------------------------------------------------------
 #N Geom=AllCheck Guess=TCheck SCRF=Check GenChk RB3LYP/6-31G(2df,p) Fr
 eq
 ----------------------------------------------------------------------

 Structure from the checkpoint file:  "CCCCpdNpCCdCF.chk"
 -------------------
 Title Card Required
 -------------------
 Charge =  0 Multiplicity = 1

                         Standard orientation:
 ---------------------------------------------------------------------
 Center     Atomic      Atomic             Coordinates (Angstroms)
 Number     Number       Type             X           Y           Z
 ---------------------------------------------------------------------
      1          6           0       -4.304698   -0.474376    0.000036
      2          6           0       -3.024856    0.366986    0.000013
      3          6           0       -1.759336   -0.492104   -0.000022
      4          6           0       -0.436919    0.259255   -0.000046
      5          7           0       -0.289293    1.521502   -0.000013
      6          6           0        0.787116   -0.643035   -0.000032
      7          6           0        2.104943    0.087044   -0.000005
      8          6           0        3.276660   -0.525992    0.000012
      9          9           0        4.437769    0.143313    0.000033
     10          1           0       -5.195360    0.160778    0.000060
     11          1           0       -4.355027   -1.119595    0.883899
     12          1           0       -4.355066   -1.119582   -0.883834
     13          1           0       -3.021584    1.024036    0.878853
     14          1           0       -3.021624    1.024049   -0.878817
     15          1           0       -1.767277   -1.163674   -0.870810
     16          1           0       -1.767240   -1.163689    0.870756
     17          1           0       -1.189818    2.002923    0.000012
     18          1           0        0.703132   -1.310482   -0.870074
     19          1           0        0.703106   -1.310497    0.869998
     20          1           0        2.061367    1.170441   -0.000002
     21          1           0        3.433069   -1.601709    0.000010
 ---------------------------------------------------------------------

 SCF Done:  E(RB3LYP) =  -428.552683310     A.U. after    1 cycles

 The electronic state is 1-A.
 Alpha  occ. eigenvalues --  -24.68481 -14.30859 -10.24604 -10.23509 -10.19785
 Alpha  occ. eigenvalues --  -10.19756 -10.19491 -10.18457 -10.17368  -1.20364
 Alpha  occ. eigenvalues --   -0.90728  -0.79545  -0.78915  -0.72398  -0.68620
 Alpha  occ. eigenvalues --   -0.61114  -0.57717  -0.54576  -0.50273  -0.49155
 Alpha  occ. eigenvalues --   -0.48100  -0.45207  -0.44662  -0.43251  -0.42616
 Alpha  occ. eigenvalues --   -0.40427  -0.39416  -0.37020  -0.36164  -0.35175
 Alpha  occ. eigenvalues --   -0.34418  -0.33872  -0.30132  -0.25797  -0.23728
 Alpha virt. eigenvalues --    0.00701   0.02846   0.07601   0.09923   0.10820
 Alpha virt. eigenvalues --    0.12914   0.13599   0.13904   0.15691   0.17262
 Alpha virt. eigenvalues --    0.17340   0.17820   0.18417   0.18923   0.19749

 Mulliken charges:
               1
     1  C   -0.388005
     2  C   -0.193864
     3  C   -0.238041
     4  C    0.302127
     5  N   -0.451700
     6  C   -0.318980
     7  C   -0.133457
     8  C    0.011011
     9  F   -0.091751
    10  H    0.117960
    11  H    0.118259
    12  H    0.118259
    13  H    0.108868
    14  H    0.108868
    15  H    0.114983
    16  H    0.114984
    17  H    0.217717
    18  H    0.125933
    19  H    0.125934
    20  H    0.136909
    21  H    0.093984
 Sum of Mulliken charges =  -0.00000

 Dipole moment (field-independent basis, Debye):
    X=             -3.2137    Y=             -2.1865    Z=             -0.0000  Tot=              3.8870
 Quadrupole moment (field-independent basis, Debye-Ang):
   XX=            -59.3547   YY=            -54.2002   ZZ=            -54.7145
   XY=             -4.7287   XZ=             -0.0001   YZ=              0.0001

  Exact polarizability: 113.242  -4.080  81.632   0.000   0.000  56.919
 Approx polarizability: 134.488  -6.260 131.529   0.001   0.001  89.230

 ******    1 imaginary frequencies (negative Signs) ******

                      1                      2                      3
                      A                      A                      A
 Frequencies --    -92.7370                45.2164                57.0711
 Red. masses --      2.1722                 3.2414                 1.7312
 Frc consts  --      0.0110                 0.0039                 0.0033
 IR Inten    --      0.0508                 0.5629                 0.0024

                      4                      5                      6
                      A                      A                      A
 Frequencies --     93.7838               113.9269               197.5464
 Red. masses --      4.9245                 2.4204                 4.0406
 Frc consts  --      0.0255                 0.0185                 0.0929
 IR Inten    --      0.0960                 0.8581                 0.7210

                      7                      8                      9
                      A                      A                      A
 Frequencies --    246.2301               270.0233               291.6976
 Red. masses --      1.0988                 3.1259                 4.8935
 Frc consts  --      0.0393                 0.1343                 0.2453
 IR Inten    --      0.0004                 0.2628                 0.8598

                     10                     11                     12
                      A                      A                      A
 Frequencies --    353.3433               374.1927               445.9426
 Red. masses --      4.3065                 3.6311                 2.2182
 Frc consts  --      0.3168                 0.2996                 0.2599
 IR Inten    --      7.6123                 2.3709                 1.5308

                     13                     14                     15
                      A                      A                      A
 Frequencies --    567.2494               648.7313               712.7381
 Red. masses --      4.2424                 3.5464                 1.1939
 Frc consts  --      0.8043                 0.8794                 0.3573
 IR Inten    --     18.1707                10.0067                 2.3874

                     16                     17                     18
                      A                      A                      A
 Frequencies --    791.3506               845.9268               873.3955
 Red. masses --      1.2801                 1.5948                 3.2106
 Frc consts  --      0.4723                 0.6724                 1.4430
 IR Inten    --     21.1759                 0.9761                 5.4802

                     19                     20                     21
                      A                      A                      A
 Frequencies --    916.8378               926.5279               978.1215
 Red. masses --      2.4659                 1.3313                 1.1121
 Frc consts  --      1.2213                 0.6733                 0.6269
 IR Inten    --      4.2850                 8.2166                11.3829

                     22                     23                     24
                      A                      A                      A
 Frequencies --    999.3975              1014.3723              1054.4718
 Red. masses --      1.4572                 2.1860                 2.4095
 Frc consts  --      0.8575                 1.3253                 1.5785
 IR Inten    --     37.5340                13.0831                 1.6435

                     25                     26                     27
                      A                      A                      A
 Frequencies --   1103.3046              1122.3353              1131.2943
 Red. masses --      2.4280                 1.4569                 2.3361
 Frc consts  --      1.7414                 1.0813                 1.7615
 IR Inten    --     34.8806                 4.5162                 2.1012

                     28                     29                     30
                      A                      A                      A
 Frequencies --   1158.9314              1223.0804              1226.5297
 Red. masses --      4.9744                 1.1911                 1.3394
 Frc consts  --      3.9365                 1.0498                 1.1871
 IR Inten    --    168.2852                 1.1768                 3.8166

                     31                     32                     33
                      A                      A                      A
 Frequencies --   1272.9854              1283.1327              1323.5341
 Red. masses --      1.2721                 1.2841                 1.3810
 Frc consts  --      1.2146                 1.2456                 1.4254
 IR Inten    --      0.4539                49.2865                 4.2724

                     34                     35                     36
                      A                      A                      A
 Frequencies --   1329.3959              1351.3623              1387.2665
 Red. masses --      1.0831                 1.2638                 1.5723
 Frc consts  --      1.1278                 1.3598                 1.7829
 IR Inten    --      0.5812                 6.9055                 0.8541

                     37                     38                     39
                      A                      A                      A
 Frequencies --   1413.6230              1417.4313              1450.0346
 Red. masses --      1.3552                 1.7549                 1.0785
 Frc consts  --      1.5956                 2.0774                 1.3361
 IR Inten    --     14.6742                37.1591                 2.5947

                     40                     41                     42
                      A                      A                      A
 Frequencies --   1465.2917              1494.5394              1500.4844
 Red. masses --      1.0958                 1.0473                 1.0400
 Frc consts  --      1.3862                 1.3782                 1.3795
 IR Inten    --     11.0960                 2.3768                 5.5398

                     43                     44                     45
                      A                      A                      A
 Frequencies --   1510.2855              1730.0369              1749.6154
 Red. masses --      1.0856                 7.9548                 6.9232
 Frc consts  --      1.4589                14.0279                12.4866
 IR Inten    --      2.1240                66.0095                86.8354

                     46                     47                     48
                      A                      A                      A
 Frequencies --   2997.4087              3006.8073              3016.6375
 Red. masses --      1.0596                 1.0598                 1.0986
 Frc consts  --      5.6090                 5.6454                 5.8905
 IR Inten    --     11.1120                17.9011                 4.4736

                     49                     50                     51
                      A                      A                      A
 Frequencies --   3021.6090              3029.3523              3032.2763
 Red. masses --      1.0586                 1.0982                 1.0359
 Frc consts  --      5.6947                 5.9378                 5.6119
 IR Inten    --     25.0731                11.0871                33.6351

                     52                     53                     54
                      A                      A                      A
 Frequencies --   3058.2592              3099.1900              3107.1804
 Red. masses --      1.1030                 1.1023                 1.1010
 Frc consts  --      6.0781                 6.2383                 6.2630
 IR Inten    --     18.8962                44.7617                30.8582

                     55                     56                     57
                      A                      A                      A
 Frequencies --   3170.2327              3202.5933              3461.7485
 Red. masses --      1.0935                 1.0888                 1.0738
 Frc consts  --      6.4750                 6.5799                 7.5816
 IR Inten    --     16.0069                19.6342                 1.4027

 - Thermochemistry -
 -------------------
 Temperature   298.150 Kelvin.  Pressure   1.00000 Atm.
 Atom     1 has atomic number  6 and mass  12.00000

 Molecular mass:   129.09538 amu.
 Principal axes and moments of inertia in atomic units:
                           1         2         3
     Eigenvalues --   264.846433740.657863961.32582
           X            1.00000  -0.00051  -0.00000
           Y            0.00051   1.00000   0.00000
           Z            0.00000  -0.00000   1.00000
 This molecule is an asymmetric top.
 Rotational symmetry number  1.
 Rotational temperatures (Kelvin)      0.32703     0.02315     0.02186
 Rotational constants (GHZ):           6.81429     0.48247     0.45559
    1 imaginary frequencies ignored.
 Zero-point vibrational energy     470526.5 (Joules/Mol)
                                  112.45853 (Kcal/Mol)
 Warning -- explicit consideration of  12 degrees of freedom as
           vibrations may cause significant error
 Vibrational temperatures:     65.06    82.11   134.93   163.92   284.23
          (Kelvin)            354.27   388.50   419.69   508.38   538.38
                              641.61   816.15   933.38  1025.47  1138.58
                             1217.10  1256.62  1319.13  1333.07  1407.30
                             1437.91  1459.46  1517.15  1587.41  1614.79
                             1627.68  1667.44  1759.74  1764.70  1831.54
                             1846.14  1904.27  1912.70  1944.31  1995.97
                             2033.89  2039.37  2086.28  2108.23  2150.31
                             2158.86  2172.96  2489.14  2517.31  4312.60
                             4326.13  4340.27  4347.42  4358.56  4362.77
                             4400.15  4459.04  4470.54  4561.26  4607.82
                             4980.68

 Zero-point correction=                           0.179214 (Hartree/Particle)
 Thermal correction to Energy=                    0.189167
 Thermal correction to Enthalpy=                  0.190111
 Thermal correction to Gibbs Free Energy=         0.142853
 Sum of electronic and zero-point Energies=           -428.373469
 Sum of electronic and thermal Energies=              -428.363516
 Sum of electronic and thermal Enthalpies=            -428.362572
 Sum of electronic and thermal Free Energies=         -428.409830

                     E (Thermal)             CV                S
                      KCal/Mol        Cal/Mol-Kelvin    Cal/Mol-Kelvin
 Total                  118.704             35.216             99.464
 Electronic               0.000              0.000              0.000
 Translational            0.889              2.981             40.479
 Rotational               0.889              2.981             29.752
 Vibrational            116.927             29.254             29.232
 Vibration     1          0.595              1.979              5.016
 Vibration     2          0.596              1.975              4.556
 Vibration     3          0.603              1.954              3.580
 Vibration     4          0.607              1.938              3.201
 Vibration     5          0.637              1.843              2.156
 Vibration     6          0.661              1.769              1.757
 Vibration     7          0.674              1.728              1.596
 Vibration     8          0.687              1.689              1.464
 Vibration     9          0.730              1.568              1.151
 Vibration    10          0.745              1.525              1.063
 Vibration    11          0.805              1.370              0.808
 Vibration    12          0.923              1.102              0.510

 Optimization completed.
    -- Stationary point found.
 Normal termination of Gaussian 16 at Mon May 31 18:11:10 2021.
