 Gaussian 16, Revision A.03,
 Gaussian 16:  ES64L-G16RevA.03 25-Dec-2016

 -----------------------------
 # opt freq b3lyp/6-31g(2df,p)
 -----------------------------

 -------------------
 Title Card Required
 -------------------
 Symbolic Z-matrix:
 Charge =  0 Multiplicity = 1

 SCF Done:  E(RB3LYP) =  -495.391910126     A.U. after   13 cycles
 SCF Done:  E(RB3LYP) =  -495.394789215     A.U. after   11 cycles
 SCF Done:  E(RB3LYP) =  -495.394969879     A.U. after   10 cycles
 SCF Done:  E(RB3LYP) =  -495.395038303     A.U. after   10 cycles
 SCF Done:  E(RB3LYP) =  -495.395043025     A.U. after    8 cycles
 SCF Done:  E(RB3LYP) =  -495.395043217     A.U. after    6 cycles
 Optimization completed.
    -- Stationary point found.
 Normal termination of Gaussian 16 at Tue Jun  1 14:04:23 2021.

 ----------------------------------------------------------------------
 #N Geom=AllCheck Guess=TCheck SCRF=Check GenChk RB3LYP/6-31G(2df,p) Fr
 eq
 ----------------------------------------------------------------------

 Structure from the checkpoint file:  "CCCCCpNpdNNdCNC.chk"
 -------------------
 Title Card Required
 -------------------
 Charge =  0 Multiplicity = 1

                         Standard orientation:
 ---------------------------------------------------------------------
 Center     Atomic      Atomic             Coordinates (Angstroms)
 Number     Number       Type             X           Y           Z
 ---------------------------------------------------------------------
      1          6           0       -5.462755    0.057995   -0.000004
      2          6           0       -4.149511   -0.728498    0.000000
      3          6           0       -2.907621    0.170511   -0.000000
      4          6           0       -1.601825   -0.631929    0.000004
      5          6           0       -0.309761    0.165030    0.000002
      6          7           0       -0.375560    1.525995    0.000002
      7          7           0        0.796501   -0.503472    0.000001
      8          7           0        1.925381    0.335871    0.000001
      9          6           0        3.019402   -0.331016   -0.000002
     10          7           0        4.242545    0.267984   -0.000005
     11          6           0        5.498944   -0.438311    0.000001
     12          1           0       -6.328792   -0.611116   -0.000003
     13          1           0       -5.539663    0.701302   -0.883792
     14          1           0       -5.539665    0.701308    0.883779
     15          1           0       -4.115344   -1.388434   -0.876629
     16          1           0       -4.115347   -1.388428    0.876635
     17          1           0       -2.945719    0.826084    0.881164
     18          1           0       -2.945716    0.826079   -0.881169
     19          1           0       -1.580034   -1.295392   -0.872276
     20          1           0       -1.580036   -1.295385    0.872289
     21          1           0       -1.242320    2.025017    0.000007
     22          1           0        0.504515    2.014119    0.000003
     23          1           0        3.030913   -1.424082   -0.000004
     24          1           0        4.246846    1.275446   -0.000001
     25          1           0        5.301756   -1.513284   -0.000003
     26          1           0        6.102643   -0.210288    0.888531
     27          1           0        6.102653   -0.210283   -0.888521
 ---------------------------------------------------------------------

 SCF Done:  E(RB3LYP) =  -495.395043217     A.U. after    1 cycles

 The electronic state is 1-A.
 Alpha  occ. eigenvalues --  -14.33995 -14.31846 -14.29792 -14.28585 -10.22289
 Alpha  occ. eigenvalues --  -10.22077 -10.21964 -10.18073 -10.17921 -10.17588
 Alpha  occ. eigenvalues --  -10.17228  -0.96247  -0.92678  -0.87588  -0.79630
 Alpha  occ. eigenvalues --   -0.77968  -0.72776  -0.68941  -0.64049  -0.59658
 Alpha  occ. eigenvalues --   -0.57874  -0.54791  -0.51580  -0.50304  -0.47146
 Alpha  occ. eigenvalues --   -0.45758  -0.44354  -0.44112  -0.42010  -0.41760
 Alpha  occ. eigenvalues --   -0.39875  -0.39030  -0.37488  -0.36161  -0.34955
 Alpha  occ. eigenvalues --   -0.33196  -0.32577  -0.32553  -0.31609  -0.31269
 Alpha  occ. eigenvalues --   -0.24992  -0.19928  -0.16417
 Alpha virt. eigenvalues --    0.03633   0.08776   0.09225   0.09894   0.10432
 Alpha virt. eigenvalues --    0.11318   0.12650   0.13346   0.13398   0.15355
 Alpha virt. eigenvalues --    0.16455   0.16916   0.17392   0.17852   0.18782

 Mulliken charges:
               1
     1  C   -0.383204
     2  C   -0.164866
     3  C   -0.190963
     4  C   -0.265385
     5  C    0.394031
     6  N   -0.547125
     7  N   -0.309835
     8  N   -0.292198
     9  C    0.150040
    10  N   -0.281506
    11  C   -0.316857
    12  H    0.112787
    13  H    0.112942
    14  H    0.112942
    15  H    0.098593
    16  H    0.098593
    17  H    0.097527
    18  H    0.097528
    19  H    0.124020
    20  H    0.124019
    21  H    0.247501
    22  H    0.256633
    23  H    0.095886
    24  H    0.241472
    25  H    0.140435
    26  H    0.123494
    27  H    0.123495
 Sum of Mulliken charges =  -0.00000

 Dipole moment (field-independent basis, Debye):
    X=              0.8365    Y=              1.3972    Z=              0.0000  Tot=              1.6285
 Quadrupole moment (field-independent basis, Debye-Ang):
   XX=            -47.4802   YY=            -63.6692   ZZ=            -69.7295
   XY=             -0.0273   XZ=              0.0000   YZ=              0.0000

  Exact polarizability: 191.821  -8.957  96.068  -0.000   0.000  71.871
 Approx polarizability: 221.849 -18.259 150.261  -0.000   0.000 111.419

 ******    3 imaginary frequencies (negative Signs) ******

                      1                      2                      3
                      A                      A                      A
 Frequencies --   -344.4943              -112.4703               -64.7554
 Red. masses --      1.2932                 1.9001                 2.2532
 Frc consts  --      0.0904                 0.0142                 0.0056
 IR Inten    --    136.2232                 1.5608                 3.0006

                      4                      5                      6
                      A                      A                      A
 Frequencies --     52.5542                66.1191                83.7961
 Red. masses --      4.3340                 3.8233                 1.7028
 Frc consts  --      0.0071                 0.0098                 0.0070
 IR Inten    --     10.6426                 0.7291                 0.4482

                      7                      8                      9
                      A                      A                      A
 Frequencies --    105.7664               129.7244               144.7747
 Red. masses --      2.0221                 1.8918                 3.4557
 Frc consts  --      0.0133                 0.0188                 0.0427
 IR Inten    --      0.4407                 0.1112                 1.2564

                     10                     11                     12
                      A                      A                      A
 Frequencies --    193.5633               248.4588               262.3697
 Red. masses --      1.7167                 1.1394                 4.4468
 Frc consts  --      0.0379                 0.0414                 0.1804
 IR Inten    --      0.0297                 0.0248                 0.5361

                     13                     14                     15
                      A                      A                      A
 Frequencies --    270.5816               326.9814               345.8265
 Red. masses --      3.5161                 3.1823                 4.8319
 Frc consts  --      0.1517                 0.2005                 0.3405
 IR Inten    --      0.0992                 1.8940                 0.2549

                     16                     17                     18
                      A                      A                      A
 Frequencies --    429.9277               494.2548               499.1643
 Red. masses --      3.1272                 3.3211                 1.3664
 Frc consts  --      0.3406                 0.4780                 0.2006
 IR Inten    --      7.3594                19.8783                96.0956

                     19                     20                     21
                      A                      A                      A
 Frequencies --    541.3124               565.9378               662.9176
 Red. masses --      1.3496                 4.1922                 1.8686
 Frc consts  --      0.2330                 0.7911                 0.4838
 IR Inten    --     12.1304                 4.4701                 5.1536

                     22                     23                     24
                      A                      A                      A
 Frequencies --    685.1615               742.7607               791.4962
 Red. masses --      3.7866                 1.1268                 1.2704
 Frc consts  --      1.0473                 0.3663                 0.4689
 IR Inten    --      6.4468                 4.6910                 0.0124

                     25                     26                     27
                      A                      A                      A
 Frequencies --    894.1688               914.1115               941.8641
 Red. masses --      2.7321                 1.9945                 1.2445
 Frc consts  --      1.2870                 0.9819                 0.6504
 IR Inten    --      2.2452                15.8025                 0.9169

                     28                     29                     30
                      A                      A                      A
 Frequencies --    997.9614              1004.3826              1032.8866
 Red. masses --      1.4056                 6.0404                 1.9385
 Frc consts  --      0.8248                 3.5901                 1.2185
 IR Inten    --      8.4987                 2.2090                30.5577

                     31                     32                     33
                      A                      A                      A
 Frequencies --   1047.1101              1072.8541              1100.7522
 Red. masses --      2.5499                 2.2832                 1.8947
 Frc consts  --      1.6473                 1.5484                 1.3526
 IR Inten    --     15.8510                 1.3016                32.7584

                     34                     35                     36
                      A                      A                      A
 Frequencies --   1125.5228              1138.0953              1153.7223
 Red. masses --      1.4407                 2.4752                 1.2654
 Frc consts  --      1.0753                 1.8889                 0.9924
 IR Inten    --      0.1229                24.9921                 0.2990

                     37                     38                     39
                      A                      A                      A
 Frequencies --   1181.1769              1243.2993              1271.7694
 Red. masses --      2.5618                 1.4245                 1.3348
 Frc consts  --      2.1059                 1.2974                 1.2720
 IR Inten    --     78.7438                 0.1017                24.9198

                     40                     41                     42
                      A                      A                      A
 Frequencies --   1309.9525              1315.3338              1333.0693
 Red. masses --      1.1715                 1.4654                 1.0684
 Frc consts  --      1.1844                 1.4937                 1.1186
 IR Inten    --      0.4232               138.4905                 0.1065

                     43                     44                     45
                      A                      A                      A
 Frequencies --   1347.7567              1356.8595              1394.0678
 Red. masses --      1.7529                 1.4333                 2.1363
 Frc consts  --      1.8760                 1.5547                 2.4461
 IR Inten    --     22.9868                 1.1648                18.6995

                     46                     47                     48
                      A                      A                      A
 Frequencies --   1397.8217              1413.5416              1471.7856
 Red. masses --      2.0309                 1.2630                 1.1652
 Frc consts  --      2.3380                 1.4869                 1.4871
 IR Inten    --     29.8540                 0.5991                36.2419

                     49                     50                     51
                      A                      A                      A
 Frequencies --   1473.4940              1481.1344              1481.3028
 Red. masses --      1.1000                 1.9205                 1.0417
 Frc consts  --      1.4071                 2.4823                 1.3467
 IR Inten    --      3.8536                30.2317                 3.2175

                     52                     53                     54
                      A                      A                      A
 Frequencies --   1488.2162              1499.9531              1501.5376
 Red. masses --      1.0600                 1.0403                 1.0707
 Frc consts  --      1.3832                 1.3789                 1.4223
 IR Inten    --      0.3915                 5.2149                 0.1159

                     55                     56                     57
                      A                      A                      A
 Frequencies --   1515.3857              1532.6803              1575.4004
 Red. masses --      1.0923                 1.1820                 1.3365
 Frc consts  --      1.4779                 1.6360                 1.9544
 IR Inten    --      5.3972                15.8197                92.3871

                     58                     59                     60
                      A                      A                      A
 Frequencies --   1682.5419              1729.5827              2999.8969
 Red. masses --      6.6926                 5.7774                 1.0571
 Frc consts  --     11.1628                10.1828                 5.6048
 IR Inten    --    338.7105               680.5600                13.1888

                     61                     62                     63
                      A                      A                      A
 Frequencies --   3001.2002              3017.7798              3027.9973
 Red. masses --      1.0380                 1.0593                 1.0999
 Frc consts  --      5.5084                 5.6840                 5.9418
 IR Inten    --    134.7458                26.2300                 2.4720

                     64                     65                     66
                      A                      A                      A
 Frequencies --   3028.3522              3038.7402              3041.1389
 Red. masses --      1.0359                 1.0601                 1.1040
 Frc consts  --      5.5971                 5.7675                 6.0156
 IR Inten    --     36.7169                22.2024                41.9977

                     67                     68                     69
                      A                      A                      A
 Frequencies --   3051.9916              3074.0873              3091.8961
 Red. masses --      1.1032                 1.1029                 1.0877
 Frc consts  --      6.0543                 6.1409                 6.1262
 IR Inten    --     12.4253                26.7549                22.7855

                     70                     71                     72
                      A                      A                      A
 Frequencies --   3094.6535              3101.4005              3117.1539
 Red. masses --      1.1022                 1.1008                 1.0955
 Frc consts  --      6.2192                 6.2383                 6.2716
 IR Inten    --     60.6104                38.1506                17.8869

                     73                     74                     75
                      A                      A                      A
 Frequencies --   3619.4860              3636.0408              3776.3033
 Red. masses --      1.0460                 1.0749                 1.1013
 Frc consts  --      8.0734                 8.3729                 9.2527
 IR Inten    --     23.2703                29.6173                71.0665

 - Thermochemistry -
 -------------------
 Temperature   298.150 Kelvin.  Pressure   1.00000 Atm.
 Atom     1 has atomic number  6 and mass  12.00000

 Molecular mass:   156.13750 amu.
 Principal axes and moments of inertia in atomic units:
                           1         2         3
     Eigenvalues --   308.362686370.144726622.70306
           X            1.00000  -0.00244   0.00000
           Y            0.00244   1.00000   0.00000
           Z           -0.00000  -0.00000   1.00000
 This molecule is an asymmetric top.
 Rotational symmetry number  1.
 Rotational temperatures (Kelvin)      0.28088     0.01360     0.01308
 Rotational constants (GHZ):           5.85266     0.28331     0.27251
    3 imaginary frequencies ignored.
 Zero-point vibrational energy     620758.2 (Joules/Mol)
                                  148.36476 (Kcal/Mol)
 Warning -- explicit consideration of  17 degrees of freedom as
           vibrations may cause significant error
 Vibrational temperatures:     75.61    95.13   120.56   152.17   186.64
          (Kelvin)            208.30   278.49   357.48   377.49   389.31
                              470.45   497.57   618.57   711.12   718.19
                              778.83   814.26   953.79   985.79  1068.67
                             1138.79  1286.51  1315.20  1355.13  1435.84
                             1445.08  1486.09  1506.56  1543.60  1583.74
                             1619.38  1637.47  1659.95  1699.45  1788.83
                             1829.79  1884.73  1892.47  1917.99  1939.12
                             1952.22  2005.75  2011.15  2033.77  2117.57
                             2120.03  2131.02  2131.26  2141.21  2158.10
                             2160.38  2180.30  2205.19  2266.65  2420.80
                             2488.48  4316.18  4318.06  4341.91  4356.61
                             4357.12  4372.07  4375.52  4391.14  4422.93
                             4448.55  4452.52  4462.22  4484.89  5207.63
                             5231.45  5433.26

 Zero-point correction=                           0.236434 (Hartree/Particle)
 Thermal correction to Energy=                    0.248569
 Thermal correction to Enthalpy=                  0.249513
 Thermal correction to Gibbs Free Energy=         0.197582
 Sum of electronic and zero-point Energies=           -495.158609
 Sum of electronic and thermal Energies=              -495.146474
 Sum of electronic and thermal Enthalpies=            -495.145530
 Sum of electronic and thermal Free Energies=         -495.197462

                     E (Thermal)             CV                S
                      KCal/Mol        Cal/Mol-Kelvin    Cal/Mol-Kelvin
 Total                  155.979             43.838            109.300
 Electronic               0.000              0.000              0.000
 Translational            0.889              2.981             41.046
 Rotational               0.889              2.981             30.943
 Vibrational            154.202             37.876             37.311
 Vibration     1          0.596              1.977              4.719
 Vibration     2          0.598              1.970              4.266
 Vibration     3          0.601              1.960              3.800
 Vibration     4          0.605              1.945              3.345
 Vibration     5          0.612              1.924              2.950
 Vibration     6          0.616              1.908              2.740
 Vibration     7          0.635              1.849              2.193
 Vibration     8          0.662              1.765              1.741
 Vibration     9          0.670              1.742              1.646
 Vibration    10          0.674              1.727              1.592
 Vibration    11          0.711              1.622              1.275
 Vibration    12          0.724              1.584              1.185
 Vibration    13          0.791              1.405              0.859
 Vibration    14          0.850              1.263              0.673
 Vibration    15          0.855              1.252              0.660
 Vibration    16          0.896              1.159              0.562
 Vibration    17          0.922              1.105              0.512

 Optimization completed.
    -- Stationary point found.
 Normal termination of Gaussian 16 at Tue Jun  1 14:45:14 2021.
