 Gaussian 16, Revision A.03,
 Gaussian 16:  ES64L-G16RevA.03 25-Dec-2016

 -----------------------------
 # opt freq b3lyp/6-31g(2df,p)
 -----------------------------

 -------------------
 Title Card Required
 -------------------
 Symbolic Z-matrix:
 Charge =  0 Multiplicity = 1

 SCF Done:  E(RB3LYP) =  -458.390314827     A.U. after   12 cycles
 SCF Done:  E(RB3LYP) =  -458.397477019     A.U. after   11 cycles
 SCF Done:  E(RB3LYP) =  -458.398276219     A.U. after   11 cycles
 SCF Done:  E(RB3LYP) =  -458.399174932     A.U. after   11 cycles
 SCF Done:  E(RB3LYP) =  -458.400161200     A.U. after   10 cycles
 SCF Done:  E(RB3LYP) =  -458.400223082     A.U. after   10 cycles
 SCF Done:  E(RB3LYP) =  -458.400388151     A.U. after    9 cycles
 SCF Done:  E(RB3LYP) =  -458.400597436     A.U. after   11 cycles
 SCF Done:  E(RB3LYP) =  -458.400697460     A.U. after   10 cycles
 SCF Done:  E(RB3LYP) =  -458.400736368     A.U. after    9 cycles
 SCF Done:  E(RB3LYP) =  -458.400654268     A.U. after   11 cycles
 SCF Done:  E(RB3LYP) =  -458.400781960     A.U. after   10 cycles
 SCF Done:  E(RB3LYP) =  -458.400781229     A.U. after    9 cycles
 SCF Done:  E(RB3LYP) =  -458.400791167     A.U. after    9 cycles
 SCF Done:  E(RB3LYP) =  -458.400787148     A.U. after    9 cycles
 SCF Done:  E(RB3LYP) =  -458.400791669     A.U. after    9 cycles
 SCF Done:  E(RB3LYP) =  -458.400791680     A.U. after    6 cycles
 SCF Done:  E(RB3LYP) =  -458.400791706     A.U. after    6 cycles
 Optimization completed.
    -- Stationary point found.
 Normal termination of Gaussian 16 at Tue Jun  1 02:18:16 2021.

 ----------------------------------------------------------------------
 #N Geom=AllCheck Guess=TCheck SCRF=Check GenChk RB3LYP/6-31G(2df,p) Fr
 eq
 ----------------------------------------------------------------------

 Structure from the checkpoint file:  "CCCCNNpCpNpCpN.chk"
 -------------------
 Title Card Required
 -------------------
 Charge =  0 Multiplicity = 1

                         Standard orientation:
 ---------------------------------------------------------------------
 Center     Atomic      Atomic             Coordinates (Angstroms)
 Number     Number       Type             X           Y           Z
 ---------------------------------------------------------------------
      1          6           0        4.774609   -0.509334    0.050135
      2          6           0        3.542812    0.383986    0.219153
      3          6           0        2.230397   -0.341532   -0.095997
      4          6           0        0.999811    0.547976    0.084239
      5          7           0       -0.204621   -0.187899   -0.330103
      6          7           0       -1.413013    0.440679    0.229742
      7          6           0       -1.526435    1.769993   -0.382846
      8          7           0       -2.600146   -0.318181   -0.290080
      9          6           0       -2.384690   -1.760821   -0.203421
     10          7           0       -3.688827   -0.018557    0.572700
     11          1           0        5.696211    0.034901    0.278347
     12          1           0        4.853876   -0.883804   -0.976406
     13          1           0        4.727950   -1.378645    0.715486
     14          1           0        3.635243    1.262459   -0.432681
     15          1           0        3.507816    0.770227    1.246213
     16          1           0        2.141089   -1.225058    0.552866
     17          1           0        2.248496   -0.715706   -1.127208
     18          1           0        1.110092    1.439131   -0.542403
     19          1           0        0.927776    0.889223    1.131086
     20          1           0       -0.150578   -1.067063    0.178266
     21          1           0       -0.780134    2.438962    0.049663
     22          1           0       -2.506995    2.181531   -0.140266
     23          1           0       -1.408850    1.726938   -1.473895
     24          1           0       -1.637140   -2.071820   -0.933469
     25          1           0       -3.336749   -2.231213   -0.447651
     26          1           0       -2.087452   -2.095522    0.807382
     27          1           0       -4.082787    0.871372    0.285575
     28          1           0       -3.330635    0.100185    1.525705
 ---------------------------------------------------------------------

 SCF Done:  E(RB3LYP) =  -458.400791706     A.U. after    1 cycles

 The electronic state is 1-A.
 Alpha  occ. eigenvalues --  -14.36442 -14.36251 -14.33630 -14.32898 -10.20390
 Alpha  occ. eigenvalues --  -10.19386 -10.19234 -10.18327 -10.18259 -10.17478
 Alpha  occ. eigenvalues --   -1.00627  -0.92556  -0.81875  -0.77929  -0.76841
 Alpha  occ. eigenvalues --   -0.70820  -0.65964  -0.62304  -0.58497  -0.58052
 Alpha  occ. eigenvalues --   -0.51120  -0.49419  -0.48189  -0.47527  -0.44802
 Alpha  occ. eigenvalues --   -0.42797  -0.42269  -0.41496  -0.40634  -0.39317
 Alpha  occ. eigenvalues --   -0.38137  -0.36767  -0.36298  -0.35748  -0.33523
 Alpha  occ. eigenvalues --   -0.33289  -0.32778  -0.31064  -0.25186  -0.24554
 Alpha  occ. eigenvalues --   -0.18018
 Alpha virt. eigenvalues --    0.07989   0.08846   0.09961   0.11150   0.12052
 Alpha virt. eigenvalues --    0.12926   0.13533   0.13969   0.14452   0.16106
 Alpha virt. eigenvalues --    0.16955   0.17337   0.17973   0.18023   0.18448

 Mulliken charges:
               1
     1  C   -0.380161
     2  C   -0.165121
     3  C   -0.187800
     4  C   -0.113830
     5  N   -0.283265
     6  N   -0.114013
     7  C   -0.265689
     8  N   -0.066596
     9  C   -0.293731
    10  N   -0.440353
    11  H    0.112657
    12  H    0.116057
    13  H    0.114218
    14  H    0.098334
    15  H    0.097381
    16  H    0.090690
    17  H    0.109743
    18  H    0.107151
    19  H    0.088674
    20  H    0.228082
    21  H    0.119721
    22  H    0.103980
    23  H    0.114788
    24  H    0.133511
    25  H    0.136675
    26  H    0.089956
    27  H    0.240274
    28  H    0.208669
 Sum of Mulliken charges =  -0.00000

 Dipole moment (field-independent basis, Debye):
    X=              1.3917    Y=              0.6626    Z=              0.9665  Tot=              1.8194
 Quadrupole moment (field-independent basis, Debye-Ang):
   XX=            -66.8288   YY=            -60.4765   ZZ=            -66.0501
   XY=             -3.3811   XZ=             -1.4985   YZ=             -0.3758

  Exact polarizability: 127.926   0.151  97.379  -2.559  -0.593  81.124
 Approx polarizability: 148.594   0.563 138.975  -3.093  -1.014 127.435

                      1                      2                      3
                      A                      A                      A
 Frequencies --     42.9357                53.2733                71.6564
 Red. masses --      3.5567                 1.7053                 2.9032
 Frc consts  --      0.0039                 0.0029                 0.0088
 IR Inten    --      0.2940                 0.6744                 0.4154

                      4                      5                      6
                      A                      A                      A
 Frequencies --     84.8928               124.8412               144.8809
 Red. masses --      3.3996                 2.2894                 1.9521
 Frc consts  --      0.0144                 0.0210                 0.0241
 IR Inten    --      0.1452                 2.7223                 1.0988

                      7                      8                      9
                      A                      A                      A
 Frequencies --    223.8439               238.7583               247.8400
 Red. masses --      2.9976                 1.9729                 1.1174
 Frc consts  --      0.0885                 0.0663                 0.0404
 IR Inten    --      0.1621                 0.2515                 0.0621

                     10                     11                     12
                      A                      A                      A
 Frequencies --    279.1479               319.5650               329.9129
 Red. masses --      1.6184                 1.1964                 1.3934
 Frc consts  --      0.0743                 0.0720                 0.0894
 IR Inten    --      0.5327                 7.0906                15.4447

                     13                     14                     15
                      A                      A                      A
 Frequencies --    369.3315               395.4455               423.4656
 Red. masses --      2.4383                 2.1297                 2.2086
 Frc consts  --      0.1960                 0.1962                 0.2333
 IR Inten    --      6.7967                 5.9458                 2.2618

                     16                     17                     18
                      A                      A                      A
 Frequencies --    455.3065               500.9872               538.3940
 Red. masses --      2.6481                 3.5393                 2.5846
 Frc consts  --      0.3234                 0.5234                 0.4414
 IR Inten    --      2.5467                 1.5751                 9.2803

                     19                     20                     21
                      A                      A                      A
 Frequencies --    570.9707               745.1432               772.2625
 Red. masses --      3.1624                 1.0775                 3.7486
 Frc consts  --      0.6074                 0.3525                 1.3172
 IR Inten    --     19.3752                 2.7259                 0.8186

                     22                     23                     24
                      A                      A                      A
 Frequencies --    819.2132               867.4233               888.7865
 Red. masses --      1.1371                 3.1382                 3.2042
 Frc consts  --      0.4496                 1.3912                 1.4913
 IR Inten    --      1.2830                65.6490                36.8707

                     25                     26                     27
                      A                      A                      A
 Frequencies --    915.8907               935.2507               971.3070
 Red. masses --      1.7703                 1.4574                 1.5028
 Frc consts  --      0.8750                 0.7511                 0.8353
 IR Inten    --      4.6473                22.5669                17.9693

                     28                     29                     30
                      A                      A                      A
 Frequencies --    999.4113              1026.0433              1065.9473
 Red. masses --      1.8269                 3.2466                 2.3935
 Frc consts  --      1.0751                 2.0138                 1.6023
 IR Inten    --    100.4766                 2.3723                 0.1807

                     31                     32                     33
                      A                      A                      A
 Frequencies --   1081.2371              1098.1015              1133.6509
 Red. masses --      3.0161                 2.2586                 1.4357
 Frc consts  --      2.0775                 1.6046                 1.0871
 IR Inten    --     10.6915                10.9791                 2.5030

                     34                     35                     36
                      A                      A                      A
 Frequencies --   1155.5661              1157.9746              1170.5500
 Red. masses --      1.6678                 1.7809                 1.6044
 Frc consts  --      1.3121                 1.4069                 1.2952
 IR Inten    --      4.9962                 0.1294                19.3394

                     37                     38                     39
                      A                      A                      A
 Frequencies --   1190.5273              1224.2731              1249.3791
 Red. masses --      1.8901                 1.8698                 1.9677
 Frc consts  --      1.5784                 1.6512                 1.8097
 IR Inten    --      8.0117                 4.8822                11.4257

                     40                     41                     42
                      A                      A                      A
 Frequencies --   1265.8787              1300.3447              1315.8029
 Red. masses --      1.6330                 1.4207                 1.1641
 Frc consts  --      1.5417                 1.4153                 1.1875
 IR Inten    --      2.2527                 4.0765                 1.6242

                     43                     44                     45
                      A                      A                      A
 Frequencies --   1327.7677              1340.6816              1376.4159
 Red. masses --      1.0859                 1.3227                 1.3855
 Frc consts  --      1.1279                 1.4007                 1.5465
 IR Inten    --      0.6439                 6.6838                 0.7032

                     46                     47                     48
                      A                      A                      A
 Frequencies --   1403.5700              1414.1200              1428.9520
 Red. masses --      1.5526                 1.2432                 1.1884
 Frc consts  --      1.8021                 1.4647                 1.4297
 IR Inten    --      3.4039                 0.7940                 0.7854

                     49                     50                     51
                      A                      A                      A
 Frequencies --   1433.2574              1485.3617              1486.8570
 Red. masses --      1.1861                 1.0535                 1.0618
 Frc consts  --      1.4355                 1.3695                 1.3830
 IR Inten    --      2.3891                 2.3057                 3.8750

                     52                     53                     54
                      A                      A                      A
 Frequencies --   1490.8032              1494.3949              1499.2046
 Red. masses --      1.0496                 1.0658                 1.0636
 Frc consts  --      1.3744                 1.4024                 1.4085
 IR Inten    --      8.0746                 2.5968                18.2625

                     55                     56                     57
                      A                      A                      A
 Frequencies --   1499.8384              1504.0437              1509.8490
 Red. masses --      1.0401                 1.0654                 1.0790
 Frc consts  --      1.3786                 1.4199                 1.4492
 IR Inten    --      5.1263                18.2526                 4.5260

                     58                     59                     60
                      A                      A                      A
 Frequencies --   1526.6018              1526.8951              1671.8190
 Red. masses --      1.0975                 1.0910                 1.0796
 Frc consts  --      1.5070                 1.4986                 1.7779
 IR Inten    --      1.0050                14.0276                14.5721

                     61                     62                     63
                      A                      A                      A
 Frequencies --   2939.4598              2957.3756              3001.4830
 Red. masses --      1.0595                 1.0702                 1.0638
 Frc consts  --      5.3938                 5.5148                 5.6467
 IR Inten    --     66.2529                44.7396                11.3721

                     64                     65                     66
                      A                      A                      A
 Frequencies --   3013.6882              3017.2020              3029.7506
 Red. masses --      1.0457                 1.0606                 1.0362
 Frc consts  --      5.5955                 5.6885                 5.6039
 IR Inten    --     36.2842                31.0064                32.3237

                     67                     68                     69
                      A                      A                      A
 Frequencies --   3039.5799              3054.0072              3070.5152
 Red. masses --      1.0944                 1.0919                 1.0990
 Frc consts  --      5.9572                 6.0002                 6.1048
 IR Inten    --      7.7761                11.9345                49.5200

                     70                     71                     72
                      A                      A                      A
 Frequencies --   3096.8221              3102.6644              3112.1529
 Red. masses --      1.1022                 1.1010                 1.0716
 Frc consts  --      6.2277                 6.2447                 6.1149
 IR Inten    --     58.0481                36.6684                21.0390

                     73                     74                     75
                      A                      A                      A
 Frequencies --   3114.3704              3136.7685              3158.9686
 Red. masses --      1.0883                 1.1010                 1.1040
 Frc consts  --      6.2191                 6.3827                 6.4909
 IR Inten    --     18.7099                26.4073                11.2720

                     76                     77                     78
                      A                      A                      A
 Frequencies --   3376.8699              3486.2839              3544.4545
 Red. masses --      1.0558                 1.0737                 1.0833
 Frc consts  --      7.0932                 7.6886                 8.0183
 IR Inten    --     17.2090                 0.3155                 1.1087

 - Thermochemistry -
 -------------------
 Temperature   298.150 Kelvin.  Pressure   1.00000 Atm.
 Atom     1 has atomic number  6 and mass  12.00000

 Molecular mass:   146.15315 amu.
 Principal axes and moments of inertia in atomic units:
                           1         2         3
     Eigenvalues --   544.952303931.723834305.41579
           X            0.99999  -0.00361  -0.00033
           Y            0.00361   0.99998  -0.00590
           Z            0.00035   0.00590   0.99998
 This molecule is an asymmetric top.
 Rotational symmetry number  1.
 Warning -- assumption of classical behavior for rotation
           may cause significant error
 Rotational temperatures (Kelvin)      0.15894     0.02203     0.02012
 Rotational constants (GHZ):           3.31174     0.45902     0.41918
 Zero-point vibrational energy     672530.2 (Joules/Mol)
                                  160.73857 (Kcal/Mol)
 Warning -- explicit consideration of  19 degrees of freedom as
           vibrations may cause significant error
 Vibrational temperatures:     61.77    76.65   103.10   122.14   179.62
          (Kelvin)            208.45   322.06   343.52   356.59   401.63
                              459.78   474.67   531.39   568.96   609.27
                              655.08   720.81   774.63   821.50  1072.09
                             1111.11  1178.67  1248.03  1278.77  1317.76
                             1345.62  1397.49  1437.93  1476.25  1533.66
                             1555.66  1579.92  1631.07  1662.60  1666.07
                             1684.16  1712.90  1761.46  1797.58  1821.32
                             1870.91  1893.15  1910.36  1928.94  1980.36
                             2019.42  2034.60  2055.94  2062.14  2137.10
                             2139.26  2144.93  2150.10  2157.02  2157.93
                             2163.98  2172.34  2196.44  2196.86  2405.37
                             4229.23  4255.00  4318.46  4336.03  4341.08
                             4359.14  4373.28  4394.04  4417.79  4455.64
                             4464.04  4477.69  4480.88  4513.11  4545.05
                             4858.56  5015.98  5099.68

 Zero-point correction=                           0.256153 (Hartree/Particle)
 Thermal correction to Energy=                    0.269030
 Thermal correction to Enthalpy=                  0.269975
 Thermal correction to Gibbs Free Energy=         0.216604
 Sum of electronic and zero-point Energies=           -458.144638
 Sum of electronic and thermal Energies=              -458.131761
 Sum of electronic and thermal Enthalpies=            -458.130817
 Sum of electronic and thermal Free Energies=         -458.184188

                     E (Thermal)             CV                S
                      KCal/Mol        Cal/Mol-Kelvin    Cal/Mol-Kelvin
 Total                  168.819             46.908            112.328
 Electronic               0.000              0.000              0.000
 Translational            0.889              2.981             40.849
 Rotational               0.889              2.981             30.601
 Vibrational            167.042             40.947             40.878
 Vibration     1          0.595              1.980              5.119
 Vibration     2          0.596              1.976              4.692
 Vibration     3          0.598              1.968              4.107
 Vibration     4          0.601              1.960              3.774
 Vibration     5          0.610              1.928              3.024
 Vibration     6          0.616              1.908              2.738
 Vibration     7          0.649              1.805              1.928
 Vibration     8          0.657              1.781              1.812
 Vibration     9          0.661              1.766              1.746
 Vibration    10          0.679              1.712              1.539
 Vibration    11          0.705              1.636              1.312
 Vibration    12          0.713              1.616              1.261
 Vibration    13          0.742              1.535              1.083
 Vibration    14          0.762              1.480              0.980
 Vibration    15          0.786              1.419              0.880
 Vibration    16          0.814              1.349              0.780
 Vibration    17          0.856              1.248              0.656
 Vibration    18          0.893              1.165              0.569
 Vibration    19          0.927              1.094              0.502

 Optimization completed.
    -- Stationary point found.
 Normal termination of Gaussian 16 at Tue Jun  1 03:14:07 2021.
