 Gaussian 16, Revision A.03,
 Gaussian 16:  ES64L-G16RevA.03 25-Dec-2016

 -----------------------------
 # opt freq b3lyp/6-31g(2df,p)
 -----------------------------

 -------------------
 Title Card Required
 -------------------
 Symbolic Z-matrix:
 Charge =  0 Multiplicity = 1

 SCF Done:  E(RB3LYP) =  -442.380971280     A.U. after   12 cycles
 SCF Done:  E(RB3LYP) =  -442.391500912     A.U. after   11 cycles
 SCF Done:  E(RB3LYP) =  -442.393409512     A.U. after   11 cycles
 SCF Done:  E(RB3LYP) =  -442.393943419     A.U. after   10 cycles
 SCF Done:  E(RB3LYP) =  -442.394060795     A.U. after   10 cycles
 SCF Done:  E(RB3LYP) =  -442.394153788     A.U. after   10 cycles
 SCF Done:  E(RB3LYP) =  -442.394964006     A.U. after   11 cycles
 SCF Done:  E(RB3LYP) =  -442.400712314     A.U. after   13 cycles
 SCF Done:  E(RB3LYP) =  -442.405217468     A.U. after   11 cycles
 SCF Done:  E(RB3LYP) =  -442.406040385     A.U. after   11 cycles
 SCF Done:  E(RB3LYP) =  -442.408703081     A.U. after   10 cycles
 SCF Done:  E(RB3LYP) =  -442.408704557     A.U. after    8 cycles
 SCF Done:  E(RB3LYP) =  -442.408704946     A.U. after    7 cycles
 SCF Done:  E(RB3LYP) =  -442.408707583     A.U. after   10 cycles
 SCF Done:  E(RB3LYP) =  -442.408708082     A.U. after    7 cycles
 SCF Done:  E(RB3LYP) =  -442.408708358     A.U. after    8 cycles
 SCF Done:  E(RB3LYP) =  -442.408708372     A.U. after    7 cycles
 SCF Done:  E(RB3LYP) =  -442.408708411     A.U. after    7 cycles
 SCF Done:  E(RB3LYP) =  -442.408708412     A.U. after    6 cycles
 Optimization completed.
    -- Stationary point found.
 Normal termination of Gaussian 16 at Tue Jun  1 20:21:42 2021.

 ----------------------------------------------------------------------
 #N Geom=AllCheck Guess=TCheck SCRF=Check GenChk RB3LYP/6-31G(2df,p) Fr
 eq
 ----------------------------------------------------------------------

 Structure from the checkpoint file:  "CCCCNNpCpNCC.chk"
 -------------------
 Title Card Required
 -------------------
 Charge =  0 Multiplicity = 1

                         Standard orientation:
 ---------------------------------------------------------------------
 Center     Atomic      Atomic             Coordinates (Angstroms)
 Number     Number       Type             X           Y           Z
 ---------------------------------------------------------------------
      1          6           0       -4.744209   -0.459192    0.131887
      2          6           0       -3.303218   -0.766043   -0.284621
      3          6           0       -2.300337    0.282739    0.207225
      4          6           0       -0.859947   -0.027421   -0.205820
      5          7           0        0.040227    1.013684    0.283014
      6          7           0        1.340600    1.007114   -0.287909
      7          6           0        1.888330    2.355625   -0.172753
      8          7           0        2.276456    0.095775    0.281123
      9          6           0        2.307044   -1.222693   -0.348787
     10          6           0        3.485016   -2.028656    0.194547
     11          1           0       -5.437759   -1.222637   -0.234322
     12          1           0       -5.073089    0.507722   -0.264651
     13          1           0       -4.840650   -0.417396    1.222643
     14          1           0       -3.245292   -0.836085   -1.378888
     15          1           0       -3.014570   -1.754484    0.096923
     16          1           0       -2.358052    0.351298    1.303429
     17          1           0       -2.570032    1.274596   -0.174813
     18          1           0       -0.769507   -0.033813   -1.296938
     19          1           0       -0.596364   -1.039831    0.142841
     20          1           0        0.101596    0.988780    1.305414
     21          1           0        1.210123    3.053835   -0.666101
     22          1           0        2.867335    2.379286   -0.653733
     23          1           0        2.011553    2.672325    0.878851
     24          1           0        2.124984    0.016221    1.289976
     25          1           0        2.423984   -1.053750   -1.423734
     26          1           0        1.378524   -1.800178   -0.217836
     27          1           0        4.426276   -1.496731    0.030270
     28          1           0        3.541537   -3.005687   -0.294747
     29          1           0        3.382353   -2.205634    1.271752
 ---------------------------------------------------------------------

 SCF Done:  E(RB3LYP) =  -442.408708412     A.U. after    1 cycles

 The electronic state is 1-A.
 Alpha  occ. eigenvalues --  -14.36273 -14.33119 -14.32956 -10.19936 -10.19812
 Alpha  occ. eigenvalues --  -10.18804 -10.17849 -10.17482 -10.17236 -10.17130
 Alpha  occ. eigenvalues --   -0.99861  -0.87480  -0.80370  -0.77294  -0.72020
 Alpha  occ. eigenvalues --   -0.70085  -0.63083  -0.60673  -0.60216  -0.57599
 Alpha  occ. eigenvalues --   -0.51850  -0.48909  -0.46441  -0.45754  -0.44291
 Alpha  occ. eigenvalues --   -0.43006  -0.41776  -0.40725  -0.39806  -0.38382
 Alpha  occ. eigenvalues --   -0.37702  -0.36397  -0.35622  -0.35024  -0.34203
 Alpha  occ. eigenvalues --   -0.33128  -0.32740  -0.32180  -0.25442  -0.23064
 Alpha  occ. eigenvalues --   -0.20598
 Alpha virt. eigenvalues --    0.07351   0.09399   0.10222   0.11788   0.12757
 Alpha virt. eigenvalues --    0.13665   0.14241   0.14896   0.15163   0.15437
 Alpha virt. eigenvalues --    0.16471   0.17106   0.18000   0.18315   0.18556

 Mulliken charges:
               1
     1  C   -0.378378
     2  C   -0.163750
     3  C   -0.168710
     4  C   -0.111820
     5  N   -0.273988
     6  N   -0.052661
     7  C   -0.266958
     8  N   -0.263307
     9  C   -0.085965
    10  C   -0.386343
    11  H    0.110575
    12  H    0.115205
    13  H    0.112355
    14  H    0.096981
    15  H    0.093494
    16  H    0.084970
    17  H    0.104362
    18  H    0.110627
    19  H    0.080614
    20  H    0.187225
    21  H    0.121492
    22  H    0.121509
    23  H    0.082185
    24  H    0.186961
    25  H    0.111987
    26  H    0.082939
    27  H    0.125590
    28  H    0.114073
    29  H    0.108737
 Sum of Mulliken charges =  -0.00000

 Dipole moment (field-independent basis, Debye):
    X=             -0.4265    Y=             -0.9067    Z=              1.1003  Tot=              1.4882
 Quadrupole moment (field-independent basis, Debye-Ang):
   XX=            -67.2414   YY=            -65.3260   ZZ=            -62.9982
   XY=             -0.3579   XZ=              1.0855   YZ=              0.3707

  Exact polarizability: 122.655  -0.725 102.777  -0.149   0.839  87.413
 Approx polarizability: 140.547  -1.004 138.831  -0.455   0.224 136.835

                      1                      2                      3
                      A                      A                      A
 Frequencies --     20.1305                42.9181                64.5613
 Red. masses --      1.8867                 1.9946                 2.3709
 Frc consts  --      0.0005                 0.0022                 0.0058
 IR Inten    --      0.2814                 0.2533                 0.2213

                      4                      5                      6
                      A                      A                      A
 Frequencies --     81.2902                97.1053               127.2013
 Red. masses --      2.7911                 2.4072                 2.0452
 Frc consts  --      0.0109                 0.0134                 0.0195
 IR Inten    --      0.4133                 0.2232                 0.1974

                      7                      8                      9
                      A                      A                      A
 Frequencies --    153.3428               188.7039               236.2509
 Red. masses --      2.5110                 2.4160                 1.5753
 Frc consts  --      0.0348                 0.0507                 0.0518
 IR Inten    --      1.0292                 2.4337                 1.4861

                     10                     11                     12
                      A                      A                      A
 Frequencies --    248.3120               253.0807               272.1679
 Red. masses --      1.1155                 1.2157                 2.1404
 Frc consts  --      0.0405                 0.0459                 0.0934
 IR Inten    --      0.0062                 0.8419                 2.4833

                     13                     14                     15
                      A                      A                      A
 Frequencies --    307.7242               358.2097               429.4169
 Red. masses --      2.1210                 3.1856                 2.9802
 Frc consts  --      0.1183                 0.2408                 0.3238
 IR Inten    --      2.3692                 2.1234                 1.5574

                     16                     17                     18
                      A                      A                      A
 Frequencies --    482.0836               495.5852               560.3080
 Red. masses --      2.5498                 2.5104                 3.2922
 Frc consts  --      0.3491                 0.3633                 0.6090
 IR Inten    --      7.4466                 6.0854                 3.1044

                     19                     20                     21
                      A                      A                      A
 Frequencies --    702.0429               741.5818               760.8392
 Red. masses --      1.6366                 1.0856                 2.1183
 Frc consts  --      0.4753                 0.3518                 0.7225
 IR Inten    --     62.9917                 2.1394                50.9810

                     22                     23                     24
                      A                      A                      A
 Frequencies --    808.2058               811.2730               898.5244
 Red. masses --      1.1536                 1.1289                 1.8044
 Frc consts  --      0.4440                 0.4378                 0.8583
 IR Inten    --      1.6001                 1.9683                12.0212

                     25                     26                     27
                      A                      A                      A
 Frequencies --    917.9190               931.0156               961.9613
 Red. masses --      1.4218                 1.7534                 1.6307
 Frc consts  --      0.7058                 0.8954                 0.8891
 IR Inten    --     36.4989                 7.6800                24.0355

                     28                     29                     30
                      A                      A                      A
 Frequencies --   1006.2460              1023.2732              1066.7205
 Red. masses --      1.9374                 3.0601                 2.3384
 Frc consts  --      1.1558                 1.8879                 1.5677
 IR Inten    --      2.2066                 0.4640                 0.8130

                     31                     32                     33
                      A                      A                      A
 Frequencies --   1080.1382              1099.7008              1126.6782
 Red. masses --      2.8370                 3.0819                 1.8523
 Frc consts  --      1.9501                 2.1959                 1.3854
 IR Inten    --     17.2747                21.3907                 0.7869

                     34                     35                     36
                      A                      A                      A
 Frequencies --   1135.2906              1145.2080              1164.7261
 Red. masses --      1.7936                 2.5708                 1.5628
 Frc consts  --      1.3620                 1.9865                 1.2491
 IR Inten    --      8.3786                 4.0273                24.0392

                     37                     38                     39
                      A                      A                      A
 Frequencies --   1211.5054              1220.7069              1224.3101
 Red. masses --      1.9034                 1.9115                 4.2687
 Frc consts  --      1.6460                 1.6782                 3.7699
 IR Inten    --      0.1147                 1.1319                 7.8195

                     40                     41                     42
                      A                      A                      A
 Frequencies --   1255.4004              1284.6442              1289.1290
 Red. masses --      1.3997                 1.2644                 1.2166
 Frc consts  --      1.2997                 1.2294                 1.1912
 IR Inten    --      1.3886                 2.0051                 3.7791

                     43                     44                     45
                      A                      A                      A
 Frequencies --   1315.3888              1325.5254              1371.3813
 Red. masses --      1.1813                 1.0728                 1.3293
 Frc consts  --      1.2042                 1.1106                 1.4730
 IR Inten    --      1.7880                 0.7974                 5.9874

                     46                     47                     48
                      A                      A                      A
 Frequencies --   1382.1133              1403.9806              1409.6649
 Red. masses --      1.3534                 1.4661                 1.3095
 Frc consts  --      1.5233                 1.7027                 1.5332
 IR Inten    --      6.0927                 7.5730                 3.1875

                     49                     50                     51
                      A                      A                      A
 Frequencies --   1414.2111              1436.3917              1462.6043
 Red. masses --      1.2640                 1.1686                 1.1546
 Frc consts  --      1.4894                 1.4206                 1.4552
 IR Inten    --      2.5876                 0.8374                 1.2811

                     52                     53                     54
                      A                      A                      A
 Frequencies --   1478.2701              1485.5912              1491.0230
 Red. masses --      1.0689                 1.0665                 1.0479
 Frc consts  --      1.3763                 1.3868                 1.3725
 IR Inten    --      4.5475                 0.6831                 9.6740

                     55                     56                     57
                      A                      A                      A
 Frequencies --   1492.9347              1495.4496              1498.0854
 Red. masses --      1.0667                 1.0509                 1.0414
 Frc consts  --      1.4008                 1.3847                 1.3771
 IR Inten    --      0.7891                 0.9933                 1.8835

                     58                     59                     60
                      A                      A                      A
 Frequencies --   1499.8486              1507.6806              1517.5930
 Red. masses --      1.0404                 1.0744                 1.0919
 Frc consts  --      1.3789                 1.4389                 1.4817
 IR Inten    --      4.9292                 3.7326                 4.1960

                     61                     62                     63
                      A                      A                      A
 Frequencies --   1522.4325              1541.6175              2947.0701
 Red. masses --      1.1081                 1.2126                 1.0597
 Frc consts  --      1.5132                 1.6980                 5.4224
 IR Inten    --      0.7102                 9.6085                80.6941

                     64                     65                     66
                      A                      A                      A
 Frequencies --   2952.5306              2981.9093              3002.5647
 Red. masses --      1.0712                 1.0699                 1.0649
 Frc consts  --      5.5018                 5.6052                 5.6567
 IR Inten    --     30.8590                79.5836                11.1268

                     67                     68                     69
                      A                      A                      A
 Frequencies --   3014.7582              3028.7553              3031.7167
 Red. masses --      1.0611                 1.0362                 1.0379
 Frc consts  --      5.6822                 5.6006                 5.6208
 IR Inten    --     39.5406                34.6917                23.6822

                     70                     71                     72
                      A                      A                      A
 Frequencies --   3038.9735              3059.9202              3072.6094
 Red. masses --      1.0952                 1.0934                 1.0887
 Frc consts  --      5.9593                 6.0316                 6.0558
 IR Inten    --      9.9338                18.0342                 2.1339

                     73                     74                     75
                      A                      A                      A
 Frequencies --   3079.3316              3095.2198              3095.7806
 Red. masses --      1.0944                 1.0713                 1.1011
 Frc consts  --      6.1142                 6.0469                 6.2176
 IR Inten    --     27.3006                17.6641                70.2979

                     76                     77                     78
                      A                      A                      A
 Frequencies --   3099.5542              3100.7817              3119.7135
 Red. masses --      1.0978                 1.1011                 1.1024
 Frc consts  --      6.2139                 6.2375                 6.3217
 IR Inten    --     49.0894                38.4103                27.0020

                     79                     80                     81
                      A                      A                      A
 Frequencies --   3148.3981              3360.9153              3384.9644
 Red. masses --      1.1053                 1.0714                 1.0738
 Frc consts  --      6.4555                 7.1303                 7.2488
 IR Inten    --     21.7861                21.4665                 9.5112

 - Thermochemistry -
 -------------------
 Temperature   298.150 Kelvin.  Pressure   1.00000 Atm.
 Atom     1 has atomic number  6 and mass  12.00000

 Molecular mass:   145.15790 amu.
 Principal axes and moments of inertia in atomic units:
                           1         2         3
     Eigenvalues --   890.437363676.999524397.92923
           X            0.99999  -0.00381   0.00074
           Y            0.00381   0.99999   0.00358
           Z           -0.00075  -0.00358   0.99999
 This molecule is an asymmetric top.
 Rotational symmetry number  1.
 Warning -- assumption of classical behavior for rotation
           may cause significant error
 Rotational temperatures (Kelvin)      0.09727     0.02356     0.01969
 Rotational constants (GHZ):           2.02680     0.49082     0.41036
 Zero-point vibrational energy     699532.4 (Joules/Mol)
                                  167.19226 (Kcal/Mol)
 Warning -- explicit consideration of  18 degrees of freedom as
           vibrations may cause significant error
 Vibrational temperatures:     28.96    61.75    92.89   116.96   139.71
          (Kelvin)            183.01   220.63   271.50   339.91   357.27
                              364.13   391.59   442.75   515.38   617.84
                              693.61   713.04   806.16  1010.08  1066.97
                             1094.68  1162.83  1167.24  1292.78  1320.68
                             1339.52  1384.05  1447.76  1472.26  1534.77
                             1554.08  1582.22  1621.04  1633.43  1647.70
                             1675.78  1743.09  1756.32  1761.51  1806.24
                             1848.32  1854.77  1892.55  1907.14  1973.11
                             1988.55  2020.01  2028.19  2034.73  2066.65
                             2104.36  2126.90  2137.43  2145.25  2148.00
                             2151.62  2155.41  2157.95  2169.22  2183.48
                             2190.44  2218.04  4240.18  4248.03  4290.30
                             4320.02  4337.56  4357.70  4361.96  4372.41
                             4402.54  4420.80  4430.47  4453.33  4454.14
                             4459.57  4461.33  4488.57  4529.84  4835.61
                             4870.21

 Zero-point correction=                           0.266438 (Hartree/Particle)
 Thermal correction to Energy=                    0.279950
 Thermal correction to Enthalpy=                  0.280894
 Thermal correction to Gibbs Free Energy=         0.224789
 Sum of electronic and zero-point Energies=           -442.142271
 Sum of electronic and thermal Energies=              -442.128759
 Sum of electronic and thermal Enthalpies=            -442.127815
 Sum of electronic and thermal Free Energies=         -442.183919

                     E (Thermal)             CV                S
                      KCal/Mol        Cal/Mol-Kelvin    Cal/Mol-Kelvin
 Total                  175.671             47.701            118.082
 Electronic               0.000              0.000              0.000
 Translational            0.889              2.981             40.829
 Rotational               0.889              2.981             31.044
 Vibrational            173.894             41.740             46.210
 Vibration     1          0.593              1.986              6.621
 Vibration     2          0.595              1.980              5.120
 Vibration     3          0.597              1.971              4.313
 Vibration     4          0.600              1.962              3.859
 Vibration     5          0.603              1.951              3.512
 Vibration     6          0.611              1.926              2.988
 Vibration     7          0.619              1.899              2.630
 Vibration     8          0.633              1.855              2.241
 Vibration     9          0.655              1.785              1.831
 Vibration    10          0.662              1.766              1.743
 Vibration    11          0.664              1.758              1.709
 Vibration    12          0.675              1.725              1.582
 Vibration    13          0.698              1.659              1.375
 Vibration    14          0.733              1.558              1.130
 Vibration    15          0.791              1.406              0.861
 Vibration    16          0.838              1.290              0.704
 Vibration    17          0.851              1.260              0.669
 Vibration    18          0.916              1.117              0.523

 Optimization completed.
    -- Stationary point found.
 Normal termination of Gaussian 16 at Tue Jun  1 21:08:07 2021.
