 Gaussian 16, Revision A.03,
 Gaussian 16:  ES64L-G16RevA.03 25-Dec-2016

 -----------------------------
 # opt freq b3lyp/6-31g(2df,p)
 -----------------------------

 -------------------
 Title Card Required
 -------------------
 Symbolic Z-matrix:
 Charge =  0 Multiplicity = 1

 SCF Done:  E(RB3LYP) =  -423.997739876     A.U. after   14 cycles
 SCF Done:  E(RB3LYP) =  -424.003281362     A.U. after   12 cycles
 SCF Done:  E(RB3LYP) =  -424.004137947     A.U. after   11 cycles
 SCF Done:  E(RB3LYP) =  -424.004555297     A.U. after   11 cycles
 SCF Done:  E(RB3LYP) =  -424.005147413     A.U. after   13 cycles
 SCF Done:  E(RB3LYP) =  -424.004720683     A.U. after   14 cycles
 SCF Done:  E(RB3LYP) =  -424.005983163     A.U. after   11 cycles
 SCF Done:  E(RB3LYP) =  -424.006387748     A.U. after   10 cycles
 SCF Done:  E(RB3LYP) =  -424.006797685     A.U. after   11 cycles
 SCF Done:  E(RB3LYP) =  -424.006908063     A.U. after   11 cycles
 SCF Done:  E(RB3LYP) =  -424.006968685     A.U. after    9 cycles
 SCF Done:  E(RB3LYP) =  -424.007343372     A.U. after   11 cycles
 SCF Done:  E(RB3LYP) =  -424.007235300     A.U. after   10 cycles
 SCF Done:  E(RB3LYP) =  -424.007372805     A.U. after   10 cycles
 SCF Done:  E(RB3LYP) =  -424.007374618     A.U. after    8 cycles
 SCF Done:  E(RB3LYP) =  -424.007374329     A.U. after    8 cycles
 SCF Done:  E(RB3LYP) =  -424.007375014     A.U. after    8 cycles
 SCF Done:  E(RB3LYP) =  -424.007375030     A.U. after    6 cycles
 Optimization completed.
    -- Stationary point found.
 Normal termination of Gaussian 16 at Mon May 31 16:40:17 2021.

 ----------------------------------------------------------------------
 #N Geom=AllCheck Guess=TCheck SCRF=Check GenChk RB3LYP/6-31G(2df,p) Fr
 eq
 ----------------------------------------------------------------------

 Structure from the checkpoint file:  "CCCCpCpNpCtNpCC.chk"
 -------------------
 Title Card Required
 -------------------
 Charge =  0 Multiplicity = 1

                         Standard orientation:
 ---------------------------------------------------------------------
 Center     Atomic      Atomic             Coordinates (Angstroms)
 Number     Number       Type             X           Y           Z
 ---------------------------------------------------------------------
      1          6           0        3.882991    0.573028   -0.698320
      2          6           0        2.786821   -0.394778   -0.242346
      3          6           0        1.399488    0.258994   -0.236103
      4          6           0        0.249934   -0.701425    0.101910
      5          6           0        0.327730   -1.275895    1.522283
      6          7           0       -1.051812   -0.029724   -0.150696
      7          6           0       -1.267219    1.128084    0.478432
      8          7           0       -1.451456    2.153250    0.997887
      9          6           0       -2.231233   -0.880349   -0.397014
     10          6           0       -3.358821   -0.118963   -1.085875
     11          1           0        4.865304    0.091008   -0.693416
     12          1           0        3.936153    1.447033   -0.040268
     13          1           0        3.693208    0.936182   -1.714188
     14          1           0        3.032016   -0.768988    0.758374
     15          1           0        2.774862   -1.271997   -0.903526
     16          1           0        1.197165    0.687819   -1.224923
     17          1           0        1.390609    1.097511    0.471526
     18          1           0        0.274439   -1.527935   -0.618668
     19          1           0        0.309209   -0.469500    2.262878
     20          1           0        1.246992   -1.850341    1.662984
     21          1           0       -0.513685   -1.945145    1.724805
     22          1           0       -2.595991   -1.327780    0.539046
     23          1           0       -1.886499   -1.699668   -1.035563
     24          1           0       -3.711755    0.710860   -0.467651
     25          1           0       -4.201993   -0.792297   -1.264363
     26          1           0       -3.025303    0.286387   -2.045190
 ---------------------------------------------------------------------

 SCF Done:  E(RB3LYP) =  -424.007375030     A.U. after    1 cycles

 The electronic state is 1-A.
 Alpha  occ. eigenvalues --  -14.37315 -14.30213 -10.23767 -10.23503 -10.22495
 Alpha  occ. eigenvalues --  -10.18888 -10.18724 -10.18659 -10.18578 -10.17770
 Alpha  occ. eigenvalues --   -0.97140  -0.87018  -0.81288  -0.77062  -0.74568
 Alpha  occ. eigenvalues --   -0.69025  -0.65442  -0.63011  -0.58533  -0.51313
 Alpha  occ. eigenvalues --   -0.50392  -0.47676  -0.47378  -0.44378  -0.43169
 Alpha  occ. eigenvalues --   -0.40958  -0.40326  -0.39213  -0.38470  -0.37620
 Alpha  occ. eigenvalues --   -0.37418  -0.35543  -0.34981  -0.34219  -0.33704
 Alpha  occ. eigenvalues --   -0.33419  -0.33152  -0.30817  -0.23369
 Alpha virt. eigenvalues --    0.04473   0.06441   0.08798   0.09257   0.10246
 Alpha virt. eigenvalues --    0.11532   0.12186   0.13076   0.13442   0.14386
 Alpha virt. eigenvalues --    0.15768   0.16243   0.16831   0.17085   0.18125

 Mulliken charges:
               1
     1  C   -0.381192
     2  C   -0.184950
     3  C   -0.174983
     4  C    0.002685
     5  C   -0.399788
     6  N   -0.164174
     7  C    0.348704
     8  N   -0.393988
     9  C   -0.146367
    10  C   -0.396254
    11  H    0.113276
    12  H    0.121753
    13  H    0.117411
    14  H    0.103729
    15  H    0.094134
    16  H    0.106117
    17  H    0.124551
    18  H    0.087442
    19  H    0.140695
    20  H    0.126017
    21  H    0.119692
    22  H    0.113952
    23  H    0.114980
    24  H    0.153974
    25  H    0.121218
    26  H    0.131366
 Sum of Mulliken charges =  -0.00000

 Dipole moment (field-independent basis, Debye):
    X=              0.9069    Y=             -4.2358    Z=             -1.5497  Tot=              4.6007
 Quadrupole moment (field-independent basis, Debye-Ang):
   XX=            -59.9738   YY=            -70.9294   ZZ=            -64.2729
   XY=              6.3548   XZ=              3.4372   YZ=             -3.7126

  Exact polarizability: 111.742  -1.237  98.178   0.463   4.194  84.860
 Approx polarizability: 131.894  -5.453 156.079  -1.233  16.484 128.665

                      1                      2                      3
                      A                      A                      A
 Frequencies --     42.1482                53.0380                73.5810
 Red. masses --      3.0577                 2.1904                 1.7576
 Frc consts  --      0.0032                 0.0036                 0.0056
 IR Inten    --      1.9277                 0.0878                 0.3464

                      4                      5                      6
                      A                      A                      A
 Frequencies --     98.1131               104.9694               141.3790
 Red. masses --      2.5975                 3.2339                 3.8479
 Frc consts  --      0.0147                 0.0210                 0.0453
 IR Inten    --      0.6230                 1.5481                 4.2859

                      7                      8                      9
                      A                      A                      A
 Frequencies --    181.6503               230.1119               237.0832
 Red. masses --      2.5308                 1.4473                 1.3193
 Frc consts  --      0.0492                 0.0452                 0.0437
 IR Inten    --      4.3622                 0.1660                 0.2670

                     10                     11                     12
                      A                      A                      A
 Frequencies --    252.6667               276.3239               318.1083
 Red. masses --      1.1704                 1.5791                 3.5315
 Frc consts  --      0.0440                 0.0710                 0.2106
 IR Inten    --      0.0858                 0.8067                 0.8314

                     13                     14                     15
                      A                      A                      A
 Frequencies --    319.8418               395.4010               460.8512
 Red. masses --      2.5078                 3.2382                 3.7736
 Frc consts  --      0.1512                 0.2983                 0.4722
 IR Inten    --      0.2188                 0.5689                 0.4993

                     16                     17                     18
                      A                      A                      A
 Frequencies --    503.9202               572.3697               671.6848
 Red. masses --      2.5115                 8.4875                 4.0846
 Frc consts  --      0.3758                 1.6383                 1.0857
 IR Inten    --      0.4835                12.0373                 3.0324

                     19                     20                     21
                      A                      A                      A
 Frequencies --    743.9564               750.0746               812.1171
 Red. masses --      3.0506                 1.1462                 1.1372
 Frc consts  --      0.9948                 0.3799                 0.4419
 IR Inten    --      3.3612                 1.8168                 1.5340

                     22                     23                     24
                      A                      A                      A
 Frequencies --    852.3783               877.7483               929.6818
 Red. masses --      1.8827                 1.3655                 1.8502
 Frc consts  --      0.8059                 0.6199                 0.9422
 IR Inten    --      1.1117                 1.6230                 2.1822

                     25                     26                     27
                      A                      A                      A
 Frequencies --    972.0119              1002.0595              1017.3253
 Red. masses --      1.9701                 1.6830                 1.5368
 Frc consts  --      1.0967                 0.9957                 0.9371
 IR Inten    --      0.6931                 0.5387                 0.2346

                     28                     29                     30
                      A                      A                      A
 Frequencies --   1053.3725              1081.2045              1113.8442
 Red. masses --      2.4159                 2.3177                 2.5655
 Frc consts  --      1.5794                 1.5964                 1.8753
 IR Inten    --      3.5438                14.6092                41.2467

                     31                     32                     33
                      A                      A                      A
 Frequencies --   1121.4369              1145.9440              1172.6841
 Red. masses --      1.9687                 2.1968                 2.0082
 Frc consts  --      1.4587                 1.6997                 1.6271
 IR Inten    --     21.5270                 6.9576                 7.1578

                     34                     35                     36
                      A                      A                      A
 Frequencies --   1205.6613              1241.6796              1277.0653
 Red. masses --      2.2215                 2.2508                 1.4546
 Frc consts  --      1.9026                 2.0446                 1.3978
 IR Inten    --     22.8095                32.2711                 7.8178

                     37                     38                     39
                      A                      A                      A
 Frequencies --   1305.5324              1325.1452              1330.8096
 Red. masses --      1.2066                 1.3681                 1.1237
 Frc consts  --      1.2117                 1.4155                 1.1726
 IR Inten    --      2.4924                20.9202                 0.7744

                     40                     41                     42
                      A                      A                      A
 Frequencies --   1364.9642              1368.9194              1394.6188
 Red. masses --      1.3162                 1.2676                 1.5213
 Frc consts  --      1.4449                 1.3995                 1.7433
 IR Inten    --      7.2938                20.9110                 7.2542

                     43                     44                     45
                      A                      A                      A
 Frequencies --   1409.1913              1411.4644              1415.8167
 Red. masses --      1.2410                 1.2506                 1.2369
 Frc consts  --      1.4520                 1.4679                 1.4608
 IR Inten    --      3.0066                 9.8291                10.6489

                     46                     47                     48
                      A                      A                      A
 Frequencies --   1434.2382              1482.4773              1489.0103
 Red. masses --      1.4527                 1.0666                 1.0399
 Frc consts  --      1.7606                 1.3811                 1.3585
 IR Inten    --      1.4030                 0.2208                 5.9478

                     49                     50                     51
                      A                      A                      A
 Frequencies --   1493.8994              1496.2524              1499.0189
 Red. masses --      1.0524                 1.0560                 1.0468
 Frc consts  --      1.3838                 1.3929                 1.3858
 IR Inten    --      0.5086                 2.0627                 7.2667

                     52                     53                     54
                      A                      A                      A
 Frequencies --   1500.5662              1501.3084              1512.4981
 Red. masses --      1.0452                 1.0536                 1.0855
 Frc consts  --      1.3867                 1.3991                 1.4630
 IR Inten    --      4.4901                 1.3185                 3.0029

                     55                     56                     57
                      A                      A                      A
 Frequencies --   1517.8610              2320.8631              2997.1273
 Red. masses --      1.0895                12.5136                 1.0686
 Frc consts  --      1.4788                39.7130                 5.6556
 IR Inten    --      2.5333               124.9960                39.7302

                     58                     59                     60
                      A                      A                      A
 Frequencies --   3014.0788              3027.0866              3031.7309
 Red. masses --      1.0630                 1.0642                 1.0584
 Frc consts  --      5.6896                 5.7456                 5.7316
 IR Inten    --     14.2475                 7.0182                15.2378

                     61                     62                     63
                      A                      A                      A
 Frequencies --   3033.6782              3041.0836              3047.6461
 Red. masses --      1.0560                 1.0375                 1.0349
 Frc consts  --      5.7258                 5.6532                 5.6632
 IR Inten    --     44.8322                 6.9341                14.5962

                     64                     65                     66
                      A                      A                      A
 Frequencies --   3050.8727              3072.6628              3076.2095
 Red. masses --      1.0937                 1.0935                 1.1027
 Frc consts  --      5.9981                 6.0829                 6.1482
 IR Inten    --      6.7840                10.4017                27.3784

                     67                     68                     69
                      A                      A                      A
 Frequencies --   3101.2160              3105.2597              3111.5577
 Red. masses --      1.1023                 1.1013                 1.1018
 Frc consts  --      6.2463                 6.2566                 6.2852
 IR Inten    --     49.5280                32.1054                24.2851

                     70                     71                     72
                      A                      A                      A
 Frequencies --   3120.7731              3122.1550              3127.7505
 Red. masses --      1.1006                 1.1018                 1.1027
 Frc consts  --      6.3152                 6.3277                 6.3559
 IR Inten    --     25.5431                21.7757                17.8369

 - Thermochemistry -
 -------------------
 Temperature   298.150 Kelvin.  Pressure   1.00000 Atm.
 Atom     1 has atomic number  6 and mass  12.00000

 Molecular mass:   140.13135 amu.
 Principal axes and moments of inertia in atomic units:
                           1         2         3
     Eigenvalues --   847.710802780.020202966.36495
           X            0.99979   0.01996   0.00524
           Y           -0.01912   0.99149  -0.12874
           Z           -0.00776   0.12862   0.99166
 This molecule is an asymmetric top.
 Rotational symmetry number  1.
 Warning -- assumption of classical behavior for rotation
           may cause significant error
 Rotational temperatures (Kelvin)      0.10217     0.03116     0.02920
 Rotational constants (GHZ):           2.12896     0.64918     0.60840
 Zero-point vibrational energy     609849.2 (Joules/Mol)
                                  145.75747 (Kcal/Mol)
 Warning -- explicit consideration of  17 degrees of freedom as
           vibrations may cause significant error
 Vibrational temperatures:     60.64    76.31   105.87   141.16   151.03
          (Kelvin)            203.41   261.35   331.08   341.11   363.53
                              397.57   457.69   460.18   568.89   663.06
                              725.03   823.51   966.40  1070.39  1079.19
                             1168.46  1226.38  1262.88  1337.60  1398.51
                             1441.74  1463.70  1515.57  1555.61  1602.57
                             1613.50  1648.76  1687.23  1734.68  1786.50
                             1837.41  1878.37  1906.59  1914.74  1963.88
                             1969.57  2006.55  2027.51  2030.78  2037.04
                             2063.55  2132.95  2142.35  2149.39  2152.77
                             2156.75  2158.98  2160.05  2176.15  2183.86
                             3339.20  4312.20  4336.59  4355.30  4361.98
                             4364.79  4375.44  4384.88  4389.53  4420.88
                             4425.98  4461.96  4467.78  4476.84  4490.10
                             4492.08  4500.14

 Zero-point correction=                           0.232279 (Hartree/Particle)
 Thermal correction to Energy=                    0.244990
 Thermal correction to Enthalpy=                  0.245934
 Thermal correction to Gibbs Free Energy=         0.192742
 Sum of electronic and zero-point Energies=           -423.775096
 Sum of electronic and thermal Energies=              -423.762385
 Sum of electronic and thermal Enthalpies=            -423.761441
 Sum of electronic and thermal Free Energies=         -423.814633

                     E (Thermal)             CV                S
                      KCal/Mol        Cal/Mol-Kelvin    Cal/Mol-Kelvin
 Total                  153.733             44.734            111.951
 Electronic               0.000              0.000              0.000
 Translational            0.889              2.981             40.724
 Rotational               0.889              2.981             30.326
 Vibrational            151.956             38.772             40.902
 Vibration     1          0.595              1.980              5.155
 Vibration     2          0.596              1.976              4.701
 Vibration     3          0.599              1.966              4.055
 Vibration     4          0.604              1.950              3.491
 Vibration     5          0.605              1.945              3.360
 Vibration     6          0.615              1.912              2.785
 Vibration     7          0.630              1.865              2.311
 Vibration     8          0.652              1.795              1.878
 Vibration     9          0.656              1.784              1.825
 Vibration    10          0.664              1.758              1.712
 Vibration    11          0.678              1.717              1.556
 Vibration    12          0.705              1.639              1.320
 Vibration    13          0.706              1.636              1.311
 Vibration    14          0.762              1.480              0.980
 Vibration    15          0.819              1.337              0.764
 Vibration    16          0.859              1.241              0.648
 Vibration    17          0.929              1.091              0.500

 Optimization completed.
    -- Stationary point found.
 Normal termination of Gaussian 16 at Mon May 31 17:26:48 2021.
